ITEM: TIMESTEP
0
ITEM: NUMBER OF ATOMS
1352
ITEM: BOX BOUNDS pp pp pp
0.0000000000000000e+00 3.1928000000000001e+01
0.0000000000000000e+00 5.5300918199999998e+01
0.0000000000000000e+00 1.5000000000000000e+01
ITEM: ATOMS id type x y z c_csym c_2[1] c_2[2] c_2[3] c_2[4] c_2[5] c_2[6] c_3 
47 1 1.039 8.562 3 6.02218 -165639 -131335 -131197 -16726.8 19965.3 -8690.3 -7.40891 
48 1 0.283 7.363 3 6.01928 -133637 -151381 -98171.9 -27283 50784.9 -1382.32 -7.41097 
49 1 0.945 6.108 3 6.02403 -147118 -87275.2 -137222 -14325.2 25186.8 -8345.48 -7.40827 
50 1 0.189 4.908 3 6.02502 -131759 -167118 -130947 17896 40546.8 -1321.5 -7.40923 
51 1 0.85 3.654 3 6.02801 -153239 -144229 -147962 10411.1 23133.1 -7915.38 -7.40788 
52 1 0.094 2.454 3 6.02183 -176343 -144311 -152419 2391.01 22387.6 -749.765 -7.40801 
53 1 0.756 1.2 3 6.02333 -138810 -134007 -157202 -1747.76 10151.6 -7018.7 -7.40736 
54 1 0 0 3 6.02606 -141012 -156892 -159368 15457.3 -4.50612 -23.268 -7.40741 
93 1 2.456 8.508 3 6.02484 -132803 -137842 -84170.9 10376.9 50138.4 1529.34 -7.41156 
94 1 3.117 7.253 3 6.022 -176049 -149272 -119577 -33373.1 21330.8 -26781 -7.40988 
95 1 2.362 6.054 3 6.02288 -147736 -179255 -117945 -23085.4 43527.6 -4912.86 -7.41006 
96 1 3.023 4.799 3 6.02288 -153974 -106610 -130004 -4945.01 24215.1 -27412.2 -7.40872 
97 1 2.267 3.599 3 6.02264 -134347 -159715 -142683 26822.5 29195.2 -11100.7 -7.40873 
98 1 2.928 2.345 3 6.02372 -160764 -165390 -143070 -3308.22 18152.9 -26648.5 -7.40835 
99 1 2.173 1.145 3 6.02128 -145494 -175996 -154051 8360.32 8739.27 -16060 -7.40817 
138 1 5.29 8.399 3 6.02379 -162599 -142370 -90581.8 11704.9 15018.7 -39193.1 -7.41176 
139 1 4.534 7.199 3 6.02414 -138922 -164765 -109664 31301 39871.4 -2476.96 -7.4104 
140 1 5.195 5.945 3 6.02052 -168816 -161225 -99942.8 -5684.22 22362.7 -40840.3 -7.41126 
141 1 4.44 4.745 3 6.02288 -139534 -145613 -132404 2034.41 28927.6 -13051.1 -7.40857 
142 1 5.101 3.49 3 6.02173 -157774 -144017 -115369 -25372.3 22962.7 -40406.8 -7.41022 
143 1 4.345 2.291 3 6.0206 -142512 -152011 -143478 -2614.67 11996.6 -22813.5 -7.40849 
144 1 5.006 1.036 3 6.02294 -147822 -140467 -131617 -28030.2 14343.5 -36773.1 -7.40894 
183 1 6.707 8.344 3 6.0217 -147630 -178679 -109067 16955.2 32481.5 2529.84 -7.41063 
184 1 7.368 7.09 3 6.02666 -161794 -154528 -61588.1 8003.95 18026.7 -47149.4 -7.41325 
185 1 6.612 5.89 3 6.02368 -127446 -146845 -127505 17596.8 23900.2 -9654.22 -7.40917 
186 1 7.274 4.636 3 6.02183 -197850 -136708 -78192 -6919.47 24640.2 -46835.5 -7.4128 
187 1 6.518 3.436 3 6.02469 -128770 -128482 -134817 18527.9 10128.3 -21325.3 -7.40838 
188 1 7.179 2.181 3 6.0211 -152057 -155465 -100195 -28208.7 23367.8 -43505.1 -7.41081 
189 1 6.423 0.982 3 6.02062 -138284 -141305 -129877 -12072.7 -6410.9 -31679 -7.40901 
228 1 9.541 8.235 3 6.02403 -154027 -113070 -20751.3 -14699.2 10712.7 -45128.4 -7.41522 
229 1 8.785 7.035 3 6.02502 -134625 -160361 -130079 33262 17279.1 -4112.01 -7.40933 
230 1 9.446 5.781 3 6.02801 -160849 -165167 -36166.3 5081.28 23169.8 -45982.1 -7.41457 
231 1 8.69 4.581 3 6.02217 -174374 -145317 -132627 18932.5 5688.79 -15756.1 -7.40923 
232 1 9.352 3.327 3 6.02334 -144537 -148102 -61539.4 -9147.76 28550.1 -43535.1 -7.41333 
233 1 8.596 2.127 3 6.02666 -136273 -163126 -123297 35885.9 -8476.24 -26455.6 -7.40959 
234 1 9.257 0.873 3 6.02073 -154925 -181671 -90898.6 -11864.9 24909.9 -38232.8 -7.41159 
681 2 0.378 8.617 6.4 6.02414 -141442 -172887 -78217.9 -17695.3 52854.3 1966.13 -7.41226 
682 2 0.472 6.163 6.4 6.02288 -139705 -152172 -115110 12575.9 46504.3 263.987 -7.40956 
683 2 0.567 3.709 6.4 6.0206 -139981 -156526 -143115 17411.2 32088 -2338.13 -7.40849 
684 2 0.661 1.254 6.4 6.02129 -147670 -170967 -157270 203.326 11221.8 -5129.95 -7.40785 
685 2 0 0 6.4 6.02684 -141317 -156573 -159368 -12755.4 3.55851 -29.8713 -7.40741 
723 2 1.795 8.671 6.4 6.022 -176620 -145469 -127621 30511.9 20313.4 -15924.2 -7.40942 
724 2 2.55 7.472 6.4 6.02288 -148721 -182506 -99707 38439 46565.4 1095.11 -7.41114 
725 2 1.889 6.217 6.4 6.02288 -156977 -101324 -132505 -2537.83 25745.5 -18414.3 -7.40859 
726 2 2.645 5.017 6.4 6.02264 -132459 -163842 -129969 -10643.5 35879.5 -7273.33 -7.4095 
727 2 1.984 3.763 6.4 6.02372 -166202 -159178 -142672 -7977.99 24192.3 -19821.6 -7.4084 
728 2 2.739 2.563 6.4 6.02156 -140450 -178013 -148049 9054.92 18409.3 -16068.7 -7.40853 
729 2 2.078 1.309 6.4 6.02412 -147969 -147739 -152322 -18381.9 11938.3 -19043.8 -7.40782 
730 2 2.834 0.109 6.4 6.02416 -142523 -156538 -151471 -5773.23 -2123.72 -23066.4 -7.40789 
768 2 4.629 8.781 6.4 6.01928 -136162 -148294 -90805.4 40517.2 41490.3 6564.09 -7.41143 
769 2 3.967 7.526 6.4 6.02403 -149842 -90893.2 -109711 10257 22064.8 -33271.2 -7.40988 
770 2 4.723 6.326 6.4 6.02502 -131046 -167063 -119696 -3877.74 33849.5 -5111.2 -7.40994 
771 2 4.062 5.072 6.4 6.02801 -158034 -145725 -118164 -18740.6 26043.7 -35180.9 -7.40964 
772 2 4.818 3.872 6.4 6.02183 -172700 -147954 -137235 11745.5 19759.8 -17723.2 -7.40895 
773 2 4.156 2.618 6.4 6.02333 -144984 -133267 -130927 -9855.3 21517.2 -34421 -7.40892 
774 2 4.912 1.418 6.4 6.02666 -134788 -161387 -140759 -598.365 1902.35 -29109.9 -7.40853 
775 2 4.251 0.164 6.4 6.02212 -153518 -170826 -141706 -11824.1 7199.59 -30282.4 -7.4088 
813 2 6.046 8.835 6.4 6.02368 -173151 -164161 -78628.6 -2555.86 15134.3 -41797.6 -7.41242 
814 2 6.801 7.635 6.4 6.0217 -143298 -180865 -116041 13728.2 28350.3 724.046 -7.41022 
815 2 6.14 6.381 6.4 6.02665 -160788 -149388 -84092.4 -19244.1 23786.2 -44129.7 -7.41189 
816 2 6.896 5.181 6.4 6.02368 -124388 -148876 -131232 14886.4 17483.5 -12957.7 -7.40896 
817 2 6.234 3.927 6.4 6.02183 -195598 -135005 -97840.2 -13250.1 26523.1 -43378.6 -7.4115 
818 2 6.99 2.727 6.4 6.0265 -133553 -165585 -132550 -2542.1 2242.74 -26125.1 -7.40884 
819 2 6.329 1.473 6.4 6.02281 -147601 -156124 -115669 -31765 20421.6 -39143 -7.4099 
820 2 7.085 0.273 6.4 6.02167 -129710 -112577 -120636 25271.8 -13217.4 -36757.4 -7.40924 
858 2 8.879 8.944 6.4 6.02406 -147004 -177895 -120371 17419.2 20314.1 7223.48 -7.40992 
859 2 8.218 7.69 6.4 6.02379 -164759 -154169 -44792.1 -17547.5 17798.2 -46223.3 -7.41451 
860 2 8.974 6.49 6.4 6.02414 -135465 -161723 -132537 -2168.51 13145.1 -5991.57 -7.40905 
861 2 8.313 5.236 6.4 6.02052 -169757 -172205 -57923.2 -10245.2 27205.9 -45831.8 -7.41378 
862 2 9.068 4.036 6.4 6.02288 -136984 -146475 -131078 27602 725.266 -18824 -7.40866 
863 2 8.407 2.781 6.4 6.02173 -156664 -152317 -79574.7 1912.9 28843.4 -42177 -7.41249 
864 2 9.163 1.582 6.4 6.02173 -141212 -157367 -116126 31079.6 -13683.4 -30019.9 -7.41011 
865 2 8.502 0.327 6.4 6.02294 -147640 -146197 -103848 75.0249 21607.4 -35465 -7.41048 
903 2 10.296 8.999 6.4 6.02334 -160294 -147353 -6765.11 -2865.28 7579.3 -40703.7 -7.41673 
905 2 10.391 6.544 6.4 6.022 -179816 -176219 -15747.4 24139.7 23166.1 -41397.7 -7.41611 
907 2 10.485 4.09 6.4 6.02288 -154693 -130077 -38405.9 -10974.1 32126.1 -38956.1 -7.41422 
909 2 10.58 1.636 6.4 6.02372 -159264 -183045 -68759.3 -16895.7 31907.9 -33828.9 -7.4128 
273 1 10.958 8.181 3 6.02288 -152792 -168767 -139393 -17448.5 10570.5 1368.24 -7.40879 
274 1 11.619 6.926 3 6.02288 -162499 -135365 4754.12 -3035.55 18032.3 -36872.8 -7.41683 
275 1 10.863 5.726 3 6.02264 -134407 -158106 -138041 33601.4 1307.61 -8551.23 -7.40902 
276 1 11.524 4.472 3 6.02372 -169180 -187731 -20784.6 -3265.81 29715.8 -36280 -7.41571 
277 1 10.769 3.272 3 6.02156 -140355 -180359 -123785 14482.5 -11083.5 -17912 -7.40998 
278 1 11.43 2.018 3 6.02412 -148824 -168799 -55304.3 2780.48 32509.3 -33369.3 -7.41361 
279 1 10.674 0.818 3 6.02416 -140986 -166918 -99337.9 28370.8 -23639.2 -26583 -7.41099 
318 1 13.791 8.072 3 6.02052 -177231 -192500 35015.7 411.262 9808.17 -20283.8 -7.4194 
319 1 13.036 6.872 3 6.02288 -141988 -141763 -148343 -1834.53 -1785.71 -2034.6 -7.40761 
320 1 13.697 5.617 3 6.02173 -166837 -170629 14633.7 -18179.5 26649.8 -21350.8 -7.41806 
321 1 12.941 4.418 3 6.02061 -140071 -157206 -131877 -5516.13 -12509.3 -8233.74 -7.40916 
322 1 13.602 3.163 3 6.02334 -155437 -158232 -20466 -18799.9 35531.1 -20974.5 -7.41558 
323 1 12.847 1.963 3 6.02129 -145744 -182609 -103825 11796.8 -24335.5 -14559.9 -7.41102 
324 1 13.508 0.709 3 6.02665 -141929 -177802 -60841.8 6434.14 34484.2 -19394.8 -7.41326 
363 1 15.208 8.017 3 6.02368 -131678 -141110 -157551 3643.77 -2275.85 716.969 -7.40737 
364 1 15.87 6.763 3 6.02183 -206738 -161084 35165.4 3612.41 20417.7 -1505.77 -7.41964 
365 1 15.114 5.563 3 6.02469 -128526 -131165 -143623 5346.16 -11228.2 -479.932 -7.40781 
366 1 15.775 4.308 3 6.0213 -161413 -175743 5323.77 -14669.8 34145.8 -2466.53 -7.41716 
367 1 15.019 3.109 3 6.02041 -132571 -149021 -115883 -25294.1 -22410.7 -2272.97 -7.40978 
368 1 15.681 1.854 3 6.02385 -135844 -128274 -34831 -11658.9 38107.5 -3678.74 -7.41417 
369 1 14.925 0.654 3 6.02442 -137695 -176629 -78942.5 21906.8 -32746.1 -4905.07 -7.41231 
407 1 17.381 9.162 3 6.02502 -138237 -156123 -157523 11493 571.286 -2256.86 -7.40756 
408 1 18.042 7.908 3 6.02801 -167660 -179990 35036 14447.4 12673.5 18535.7 -7.41887 
409 1 17.286 6.708 3 6.02217 -175792 -144920 -151273 -2524.33 -6055.62 2237.24 -7.40809 
410 1 17.948 5.454 3 6.02334 -153882 -161452 14589.2 5924.21 29430.5 17432.5 -7.41792 
411 1 17.192 4.254 3 6.02666 -133136 -168660 -130349 15711.3 -16523 6204.7 -7.40914 
412 1 17.853 3 3 6.02052 -163807 -190343 -20343.8 8382.58 37563.4 15024.5 -7.41579 
413 1 17.098 1.8 3 6.02288 -140504 -152398 -97454.2 -16450.2 -27826.8 8653.5 -7.41093 
414 1 17.759 0.545 3 6.02255 -142077 -138286 -60902.1 5525.96 35837.7 11615.4 -7.41294 
452 1 20.215 9.053 3 6.02414 -164603 -135049 14394.1 1255.71 5180.63 33892.1 -7.41752 
453 1 19.459 7.853 3 6.0239 -135387 -155243 -148266 6042.07 2600.15 -570.864 -7.40865 
454 1 20.12 6.599 3 6.02523 -175380 -187687 4707.76 3880.64 22966.2 34064 -7.41724 
455 1 19.365 5.399 3 6.02406 -140263 -181140 -139539 -12497.1 -6387.59 8474.5 -7.40879 
456 1 20.026 4.145 3 6.02379 -159001 -169266 -20824.9 20626.6 33739.1 31831.4 -7.41571 
457 1 19.27 2.945 3 6.02414 -134348 -166897 -116748 3523.3 -18404.7 16229.6 -7.40995 
458 1 19.931 1.691 3 6.02156 -155143 -184420 -55248.8 9776.92 35013.8 27354.1 -7.41416 
459 1 19.176 0.491 3 6.02336 -144662 -156961 -83415.2 -18630.7 -29555.4 21792 -7.41145 
904 2 11.052 7.799 6.4 6.02484 -130006 -126562 -140566 10973 7832.81 762.75 -7.40822 
906 2 11.146 5.345 6.4 6.02288 -145294 -175400 -137040 44834.6 -1577.41 -10568.3 -7.40894 
908 2 11.241 2.89 6.4 6.02264 -132707 -163856 -119476 -5938.97 -14241.1 -20570.2 -7.41012 
910 2 11.335 0.436 6.4 6.02123 -144928 -188566 -90556.6 10426.9 -26203.2 -28261.3 -7.41195 
948 2 13.13 9.108 6.4 6.02288 -135960 -123027 -151607 6767.67 3141.81 4257.91 -7.40721 
949 2 12.469 7.853 6.4 6.02218 -172123 -171053 20902.8 12995 14015.3 -29649.2 -7.41802 
950 2 13.225 6.654 6.4 6.01928 -132147 -140840 -147935 37613.6 -3415.96 -3425.73 -7.40803 
951 2 12.563 5.399 6.4 6.02403 -150013 -124096 1717.57 6383.51 29541.8 -28638.4 -7.41658 
952 2 13.319 4.199 6.4 6.02502 -130782 -167051 -129830 -8536.03 -14060.6 -10626.3 -7.40931 
953 2 12.658 2.945 6.4 6.02801 -152121 -174848 -30756.3 -20995.5 36471.6 -25480.5 -7.41487 
954 2 13.414 1.745 6.4 6.02218 -176005 -155222 -99375.9 5308.25 -25880.6 -16162.9 -7.41113 
955 2 12.752 0.491 6.4 6.02352 -135196 -158191 -68287.1 -10229.9 33777.9 -20574.6 -7.4129 
993 2 14.547 9.162 6.4 6.02288 -163916 -143975 42555.1 -3013.4 1263.96 -12751.1 -7.41931 
994 2 15.303 7.962 6.4 6.02264 -140441 -153208 -157429 -14810.9 -2685.67 -193.128 -7.40766 
995 2 14.642 6.708 6.4 6.02368 -175274 -196050 31537.7 -4373 21527.6 -11881.2 -7.41909 
996 2 15.397 5.508 6.4 6.0217 -141947 -180222 -143059 42.8168 -11547 -2753.4 -7.4086 
997 2 14.736 4.254 6.4 6.02666 -156441 -178919 2203.2 -16790.4 34740.6 -10380.6 -7.41707 
998 2 15.492 3.054 6.4 6.02368 -127115 -154593 -115033 -146.899 -22792 -4339.12 -7.40985 
999 2 14.83 1.8 6.4 6.02182 -187929 -157518 -37200.4 -7206.6 38127.7 -7874.68 -7.41521 
1000 2 15.586 0.6 6.4 6.02468 -133597 -144832 -77482.8 -2946.71 -33068 -4599.25 -7.41171 
1039 2 16.72 8.017 6.4 6.02523 -178507 -196406 42500.4 941.15 10425.4 7401.65 -7.41952 
1040 2 17.475 6.817 6.4 6.02406 -143745 -176776 -151451 -3387.74 -5304.36 571.364 -7.40808 
1041 2 16.814 5.563 6.4 6.02379 -163717 -177584 21326.9 -11629.5 27840.7 8727.83 -7.41825 
1042 2 17.57 4.363 6.4 6.02414 -134952 -164513 -131483 -19122.7 -15782.4 3744.69 -7.40906 
1043 2 16.909 3.109 6.4 6.02156 -160044 -191917 -14920.3 1917.09 36944.4 9362.95 -7.41657 
1044 2 17.664 1.909 6.4 6.02316 -140990 -152864 -99921.1 5805.23 -27123.6 7503.09 -7.41057 
1045 2 17.003 0.654 6.4 6.02131 -147766 -171744 -56737.4 18456.9 36117.9 9457.69 -7.41371 
1084 2 19.554 8.126 6.4 6.02217 -180003 -140616 -147824 -12781.4 4626.84 -1194.95 -7.40829 
1085 2 18.892 6.872 6.4 6.02334 -157354 -160049 20869.1 601.761 18607.6 26970.9 -7.41832 
1086 2 19.648 5.672 6.4 6.02665 -134574 -163315 -140688 -31349.1 -4447.75 6431.39 -7.40854 
1087 2 18.987 4.418 6.4 6.02052 -168922 -189381 -6998.27 2060.58 31502.9 26957.1 -7.41663 
1088 2 19.742 3.218 6.4 6.02288 -137909 -148525 -120603 1494.1 -16339.3 13895.9 -7.40946 
1089 2 19.081 1.963 6.4 6.02152 -154278 -166697 -44409.3 23491.9 35140.9 25182.6 -7.41424 
1090 2 19.837 0.764 6.4 6.02081 -143486 -164703 -90591.2 1577.49 -27897.6 21158.1 -7.41182 
1129 2 20.97 8.181 6.4 6.02183 -207664 -149610 1670.81 -1069.07 9871.61 39953.7 -7.41763 
1131 2 21.065 5.726 6.4 6.0213 -165562 -165422 -15716.1 21740.7 24306 40714.5 -7.41593 
1133 2 21.159 3.272 6.4 6.02156 -141440 -119508 -44852.2 21724.7 31155.2 38583 -7.41363 
1135 2 21.254 0.818 6.4 6.0261 -144315 -173293 -78519.2 -4725.64 28665.4 34014.9 -7.41202 
497 1 21.632 8.999 3 6.02288 -155341 -169847 -131836 -43781.6 13437.6 -6722.62 -7.40901 
498 1 22.293 7.744 3 6.02288 -160878 -127205 -20892.7 5928.7 16560.4 43938.5 -7.41548 
499 1 21.537 6.544 3 6.02264 -135634 -158653 -137705 2291.82 6708.01 5404.78 -7.40884 
500 1 22.198 5.29 3 6.02368 -170615 -180189 -36242.3 10879 28284.2 43079.1 -7.415 
501 1 21.443 4.09 3 6.0217 -139714 -181220 -129947 -12919.2 -5000.09 16999.4 -7.40941 
502 1 22.104 2.836 3 6.02665 -151569 -164763 -61490.8 25778.1 31844.1 39185.8 -7.41326 
503 1 21.348 1.636 3 6.02369 -128040 -151787 -109174 -12411.8 -18491.1 26927.5 -7.41023 
504 1 22.01 0.382 3 6.02202 -184555 -148000 -90513.2 16232.5 26366.6 32643.3 -7.41206 
542 1 24.466 8.89 3 6.02183 -207074 -134643 -55119.3 5415.1 12604.2 44838.6 -7.41392 
543 1 23.71 7.69 3 6.02288 -130450 -130877 -123704 -13849.9 21073.6 -702.246 -7.40888 
544 1 24.371 6.435 3 6.02219 -166723 -150635 -61796.9 -8845.93 23406.8 46502 -7.41314 
545 1 23.615 5.236 3 6.02041 -128938 -143139 -132568 -45187.9 10665.2 12874.9 -7.40897 
546 1 24.277 3.981 3 6.02156 -145541 -106957 -78120.1 -896.765 28197 44768.2 -7.41162 
547 1 23.521 2.781 3 6.02281 -132288 -164671 -127653 2466.76 -3625 25516.3 -7.40923 
548 1 24.182 1.527 3 6.0265 -148751 -161094 -99900.9 32442.6 24254.7 39781.8 -7.41074 
549 1 23.426 0.327 3 6.022 -178429 -150049 -109771 -10172.9 -17712 35804.4 -7.41081 
587 1 25.882 8.835 3 6.02217 -179331 -150072 -99244.2 -12142.5 34845.9 -7101.31 -7.41118 
588 1 26.544 7.581 3 6.02334 -154459 -129032 -90698.6 4802.92 20625.7 40767.4 -7.41158 
589 1 25.788 6.381 3 6.02665 -132637 -166685 -123232 4352.98 27092.9 5881.34 -7.4096 
590 1 26.449 5.127 3 6.02052 -170558 -161853 -100146 10684.7 26024 41955.6 -7.41102 
591 1 25.694 3.927 3 6.02288 -134980 -146391 -134902 -29003 13498 19363.3 -7.40866 
592 1 26.355 2.672 3 6.02173 -159143 -144388 -115373 -5211.43 23438 40058.5 -7.41002 
593 1 25.599 1.473 3 6.0206 -139450 -154688 -132515 -29611.2 -3235.4 31538.9 -7.40935 
594 1 26.26 0.218 3 6.02295 -149084 -140595 -130118 428.649 11613.6 34643.3 -7.40882 
632 1 28.716 8.726 3 6.02523 -172102 -154140 -116070 -1234.66 19174.4 26839 -7.40998 
633 1 27.961 7.526 3 6.02406 -142850 -186056 -103729 -12772.1 41568.6 -998.374 -7.41093 
634 1 28.622 6.272 3 6.02379 -161724 -138168 -120985 15608.5 25171.4 29811 -7.40971 
635 1 27.866 5.072 3 6.02414 -133176 -164455 -130057 1315.96 30556.2 10302.2 -7.40919 
636 1 28.527 3.818 3 6.02156 -162790 -158616 -131517 5956.4 24681.3 30897 -7.40961 
637 1 27.772 2.618 3 6.02334 -138805 -143845 -143435 -24129.5 13769.7 21749.3 -7.40804 
638 1 28.433 1.363 3 6.0204 -151031 -143792 -143092 -5462.8 14054.8 28968.6 -7.40868 
639 1 27.677 0.164 3 6.02194 -147592 -152738 -142566 -26696.7 -5064.34 30879.3 -7.40843 
669 1 30.133 8.671 3 6.02264 -141000 -169716 -79683.1 12438.5 50933 -3930.7 -7.41228 
670 1 30.794 7.417 3 6.02368 -170118 -152056 -132734 2215.93 23769.4 11065.9 -7.40925 
671 1 30.039 6.217 3 6.0217 -141814 -185748 -115552 -3969.52 44135.8 1915.28 -7.41024 
672 1 30.7 4.963 3 6.02666 -156218 -139825 -140847 14992.3 26117.6 12920.5 -7.40853 
673 1 29.944 3.763 3 6.02368 -126308 -149017 -141708 -5245.33 29752.4 8989.77 -7.40829 
674 1 30.606 2.509 3 6.02183 -189849 -128647 -151392 6070.64 18920.7 13358.3 -7.40832 
675 1 29.85 1.309 3 6.0263 -138102 -160607 -153972 11743.4 9579.76 15620.8 -7.40752 
676 1 30.511 0.055 3 6.02321 -142836 -156061 -157202 21163.4 1124.37 12348.4 -7.40744 
1130 2 21.726 6.981 6.4 6.02469 -130773 -127163 -136939 -17444.6 9938.09 3879.54 -7.40823 
1132 2 21.821 4.527 6.4 6.02041 -131998 -141826 -132397 13135.6 -1434.96 14407.5 -7.40885 
1134 2 21.915 2.072 6.4 6.02241 -135890 -164522 -115940 -33902.6 -14781.3 24161.1 -7.4099 
1174 2 23.804 8.29 6.4 6.02288 -145223 -142465 -119260 -4422.62 24964.3 -2112.43 -7.40934 
1175 2 23.143 7.035 6.4 6.02173 -168442 -153033 -38210.1 20671.5 17684.8 47320.6 -7.41488 
1176 2 23.899 5.836 6.4 6.02061 -140559 -153548 -131226 -1299.61 15977.1 10088 -7.40924 
1177 2 23.238 4.581 6.4 6.02334 -160306 -143029 -57821.3 24378 26090.7 46477.9 -7.41336 
1178 2 23.993 3.381 6.4 6.0217 -143935 -174900 -131127 -19015.8 2506.85 21570.8 -7.40947 
1179 2 23.332 2.127 6.4 6.02665 -146770 -163473 -84111.4 -595.054 26322.2 42634.7 -7.41187 
1180 2 24.088 0.927 6.4 6.0235 -133090 -147972 -119437 -18652.2 -12548.6 31893.3 -7.40965 
1219 2 25.221 8.344 6.4 6.02288 -161101 -114102 -68699.9 1655.17 13330.7 44668.8 -7.41237 
1220 2 25.977 7.144 6.4 6.02264 -136211 -160488 -116133 -34078.7 32771.8 3218.57 -7.41033 
1221 2 25.316 5.89 6.4 6.02372 -171838 -168470 -79660.8 3663.54 22099.4 46031.5 -7.41215 
1222 2 26.071 4.69 6.4 6.02156 -139704 -178610 -132731 -15685 21475.6 14980.1 -7.40947 
1223 2 25.41 3.436 6.4 6.02414 -154511 -153100 -97890.6 -910.446 24203.9 44696.5 -7.41106 
1224 2 26.166 2.236 6.4 6.02415 -137493 -158130 -137379 -28626.3 5384.3 25942.4 -7.40875 
1225 2 25.505 0.982 6.4 6.02177 -152037 -175148 -118201 15883.1 17415.2 40077.1 -7.41042 
1264 2 28.055 8.453 6.4 6.02502 -136063 -171075 -90912.5 -27431 45628.9 -2453.98 -7.41152 
1265 2 27.394 7.199 6.4 6.02801 -160892 -144941 -103675 -8347.14 19937.9 36497 -7.41051 
1266 2 28.15 5.999 6.4 6.02217 -175148 -149819 -120872 -13781 38368.7 6969.96 -7.4099 
1267 2 27.488 4.745 6.4 6.02334 -148465 -130454 -115644 5810.85 23741.8 37215.8 -7.41009 
1268 2 28.244 3.545 6.4 6.02665 -134570 -163306 -140930 -31346.8 24172.1 16171.9 -7.40854 
1269 2 27.583 2.291 6.4 6.02052 -160151 -165846 -131028 7132.28 19042.6 35791.2 -7.40917 
1270 2 28.338 1.091 6.4 6.02328 -144683 -139818 -148082 1070.84 4817.88 23883.8 -7.40798 
1309 2 29.472 8.508 6.4 6.02484 -160358 -137187 -123122 -11769 18656.6 20472.6 -7.40959 
1310 2 30.228 7.308 6.4 6.02368 -129246 -155455 -100384 -7056 49329.6 1591.41 -7.41074 
1311 2 29.566 6.054 6.4 6.02183 -199861 -119825 -130008 756.692 24185.2 21294.3 -7.40973 
1312 2 30.322 4.854 6.4 6.02469 -128116 -133724 -131480 -7944.35 39081.1 6011.79 -7.40852 
1313 2 29.661 3.599 6.4 6.0213 -157252 -140770 -141701 20527.5 22652.2 21398.4 -7.40837 
1314 2 30.417 2.4 6.4 6.02041 -134211 -139818 -151380 23666.9 21042.3 9756.71 -7.40769 
1315 2 29.755 1.145 6.4 6.02384 -134349 -104435 -152276 19582.3 10595.7 19824 -7.40722 
1350 2 31.645 7.363 6.4 6.02052 -169644 -149216 -134870 -39.3199 23561.3 1932.8 -7.40922 
1351 2 31.739 4.908 6.4 6.02173 -161654 -131993 -143399 16281.8 25747.2 1016.54 -7.40859 
1352 2 31.834 2.454 6.4 6.02334 -153044 -127314 -154161 14796 18101.7 511.699 -7.4076 
39 1 1.417 18.379 3 6.02519 -142668 -151971 -157471 24005 -1512.65 -2207.92 -7.40777 
40 1 0.661 17.179 3 6.02379 -168110 -177881 42620 14955 11657.4 5291.83 -7.4198 
41 1 1.322 15.925 3 6.02406 -158502 -161975 -151453 427.741 -2126.05 -4854.16 -7.40808 
42 1 0.567 14.725 3 6.02523 -172439 -195700 21040.3 631.431 32601.5 2654.9 -7.41823 
43 1 1.228 13.471 3 6.02396 -154544 -139455 -140602 16698.2 3301.95 -7080.77 -7.40878 
44 1 0.472 12.271 3 6.02414 -147221 -162802 -15835.9 7562.79 47467.1 600.083 -7.41587 
45 1 1.134 11.017 3 6.02183 -202888 -116618 -132418 4972.2 11744.4 -8435.97 -7.40934 
46 1 0.378 9.817 3 6.02288 -137896 -143502 -57826.3 3688.65 53309.3 -679.242 -7.41281 
85 1 2.834 18.325 3 6.0213 -173279 -172278 31619.5 -15761 440.484 24491.7 -7.41878 
86 1 3.495 17.07 3 6.0262 -140984 -118799 -143178 11774.9 -8248.02 -8664.54 -7.40785 
87 1 2.739 15.87 3 6.02334 -158302 -158209 21244.3 5013.81 21458.3 19821.3 -7.41842 
88 1 3.401 14.616 3 6.02368 -148054 -129670 -131448 5947.47 -4652.69 -15572 -7.40888 
89 1 2.645 13.416 3 6.0262 -156372 -177954 -6984 19822.8 39027.3 13835.5 -7.41632 
90 1 3.306 12.162 3 6.02639 -159792 -142009 -120693 16001.7 3933.18 -21196.6 -7.40948 
91 1 2.55 10.962 3 6.02217 -188395 -157630 -44998.8 8606.95 48955.3 7642.39 -7.41443 
92 1 3.212 9.708 3 6.02334 -155034 -119514 -116141 2202.46 13514.8 -24828.9 -7.41019 
130 1 5.668 18.215 3 6.01928 -141618 -134791 -129852 -14021 -16284.1 -6875.58 -7.4091 
131 1 4.912 17.016 3 6.02149 -171521 -163937 2223.59 -12694.7 8389.05 35171.2 -7.41707 
132 1 5.573 15.761 3 6.02288 -158033 -133867 -115008 -747.652 -15198.5 -17581.7 -7.40956 
133 1 4.818 14.561 3 6.02052 -170813 -183204 -14831.7 8716.65 26435.9 27375.5 -7.41634 
134 1 5.479 13.307 3 6.02414 -162147 -146186 -99857.5 25106.9 -7173.69 -27190.4 -7.41093 
135 1 4.723 12.107 3 6.02379 -149993 -167024 -44433.3 26353.3 39370 17817.8 -7.41471 
136 1 5.384 10.853 3 6.02523 -172915 -161231 -90559.3 1756.79 4374.53 -34729.6 -7.41147 
137 1 4.629 9.653 3 6.02406 -150968 -184502 -78646.6 9812.33 43759.1 7883.49 -7.4124 
175 1 7.085 18.161 3 6.02368 -175487 -176345 -30733.9 2734.41 -3890.93 44282.8 -7.4153 
176 1 7.746 16.907 3 6.02264 -150509 -154555 -99360.4 30980.9 -26868.9 -14348 -7.41108 
177 1 6.99 15.707 3 6.02288 -161058 -123791 -37338.6 7277.52 12255.1 37028.7 -7.41422 
178 1 7.651 14.452 3 6.02138 -169788 -166953 -77350.5 -20587.5 -20469.9 -26312.9 -7.41255 
179 1 6.896 13.253 3 6.02288 -172411 -171456 -56925.5 -18941.6 26321 26518.1 -7.41356 
180 1 7.557 11.998 3 6.02288 -157703 -118606 -60776.5 8867.98 -7964.42 -36786.8 -7.41302 
181 1 6.801 10.798 3 6.02264 -150508 -158188 -83383.7 30558.2 33672.9 14697.3 -7.41203 
182 1 7.462 9.544 3 6.02368 -174319 -170050 -55188.1 2655.73 6257.71 -43940 -7.41382 
220 1 9.918 18.052 3 6.02406 -151140 -180909 -90507.7 11868.4 -37541.2 -8657.16 -7.41169 
221 1 9.163 16.852 3 6.02523 -173990 -166652 -68376.9 2274.2 -970.054 39532.9 -7.41279 
222 1 9.824 15.598 3 6.02396 -149862 -164370 -60899.8 27534.3 -34035.8 -20181.8 -7.41349 
223 1 9.068 14.398 3 6.02414 -154785 -137182 -78941.9 14108.2 12145.8 30842.7 -7.412 
224 1 9.73 13.144 3 6.02183 -203385 -144747 -35178.4 13650.3 -22232.3 -31163.9 -7.41509 
225 1 8.974 11.944 3 6.02288 -147764 -123156 -97178.9 14165.6 21472.8 19787.3 -7.41041 
226 1 9.635 10.689 3 6.02218 -170494 -159708 -20240.8 -12032.9 -5661.67 -40006.7 -7.4155 
227 1 8.879 9.49 3 6.01928 -141235 -137476 -116805 -13880.8 23343.9 7802.98 -7.40986 
678 2 0.094 15.979 6.4 6.02052 -175149 -194648 35041.2 -1700.24 22316.4 1622.71 -7.4194 
679 2 0.189 13.525 6.4 6.02379 -154889 -177523 4599.27 -16178.4 40984.7 2790.2 -7.41772 
680 2 0.283 11.071 6.4 6.02406 -155204 -193901 -35896.8 2367.86 51390.6 2878.55 -7.415 
716 2 2.173 17.288 6.4 6.02334 -160750 -160189 35258.3 -623.491 9057.39 18376.1 -7.41928 
717 2 1.511 16.034 6.4 6.02368 -142540 -131366 -151315 4744.83 -1202.8 -6351.52 -7.40772 
718 2 2.267 14.834 6.4 6.0262 -160979 -180055 14546.9 -10860.1 29839.6 16820.9 -7.41763 
719 2 1.606 13.58 6.4 6.02639 -156314 -142036 -139446 -9188.51 4107.19 -9808.59 -7.40838 
720 2 2.362 12.38 6.4 6.02217 -193408 -159896 -21023 3371.94 44448.6 13231.4 -7.41589 
721 2 1.7 11.126 6.4 6.02334 -153647 -117673 -130251 -64.9815 12195.1 -12920.6 -7.40935 
722 2 2.456 9.926 6.4 6.02484 -136367 -140429 -61586.4 3546.42 49829.8 8032.99 -7.41293 
761 2 3.59 17.343 6.4 6.02406 -152595 -169700 -143352 12261.4 -6022.42 -9467.67 -7.40855 
762 2 4.345 16.143 6.4 6.02523 -175386 -187685 5431.76 4956.18 14825.1 30817.3 -7.41725 
763 2 3.684 14.889 6.4 6.02396 -150407 -147511 -130279 -7191.32 -2939.81 -17440.8 -7.40937 
764 2 4.44 13.689 6.4 6.02414 -152386 -155878 -20406.2 1957.73 31873.9 24970.4 -7.41555 
765 2 3.778 12.435 6.4 6.02183 -201487 -123889 -116753 534.64 4842.35 -24093.2 -7.41024 
766 2 4.534 11.235 6.4 6.02288 -142834 -138187 -55227.1 8212.09 41178.7 16700.1 -7.41295 
767 2 3.873 9.98 6.4 6.02219 -166454 -136928 -109136 17485.9 14038.1 -29366 -7.41019 
806 2 6.423 17.452 6.4 6.02406 -174003 -179244 -20350.8 5271.77 -523.968 41215.5 -7.4159 
807 2 5.762 16.198 6.4 6.02379 -149818 -150332 -115930 -2344.33 -13181.3 -18280.7 -7.41034 
808 2 6.518 14.998 6.4 6.02403 -158557 -127093 -35055.5 6719.15 15862.1 34839.4 -7.41435 
809 2 5.857 13.743 6.4 6.02138 -169940 -161654 -97404.6 41103.7 -6360.31 -28413.9 -7.41136 
810 2 6.612 12.544 6.4 6.02288 -168059 -174450 -60770.4 41164.5 27801 25300.9 -7.41334 
811 2 5.951 11.289 6.4 6.02288 -156916 -112584 -83431.2 2564.81 4120.58 -36519.9 -7.41168 
812 2 6.707 10.089 6.4 6.02264 -145582 -160799 -90687.7 -3055.53 32292.5 13576.7 -7.4116 
851 2 7.84 17.507 6.4 6.02219 -137865 -143794 -104058 9695.54 -24862.8 -13757.7 -7.41063 
852 2 8.596 16.307 6.4 6.02242 -159073 -117706 -60920.1 3498.13 472.675 39583.4 -7.41293 
853 2 7.935 15.052 6.4 6.02288 -160390 -138861 -78886.2 24277.5 -20605.9 -25941 -7.41182 
854 2 8.69 13.852 6.4 6.02052 -166280 -170313 -77212.2 8849.65 12532.7 30909.1 -7.41257 
855 2 8.029 12.598 6.4 6.02414 -163659 -155934 -56976.3 -9386.28 -9836.12 -36027.5 -7.4135 
856 2 8.785 11.398 6.4 6.02379 -145648 -157068 -99702.2 -2680.53 20019 19762.9 -7.41139 
857 2 8.124 10.144 6.4 6.02523 -175142 -172542 -44424.2 3624.08 4341.17 -43011.9 -7.41423 
897 2 10.013 16.361 6.4 6.0262 -142341 -134883 -68419.8 9291.33 -34702.2 -18998.6 -7.41215 
899 2 10.107 13.907 6.4 6.02368 -150374 -151162 -37598 9769.6 -25959.8 -29127.8 -7.41447 
901 2 10.202 11.453 6.4 6.02639 -164118 -167836 -14719.4 -7827.8 -10389.2 -36618.6 -7.41582 
265 1 11.335 17.997 3 6.02334 -155367 -124179 -99450.8 1464.3 -11182.2 33709.7 -7.41116 
266 1 11.997 16.743 3 6.02368 -140497 -155297 -55256.7 9838.51 -45160.8 -11475.2 -7.41344 
267 1 11.241 15.543 3 6.0262 -159815 -146469 -103879 18491.6 -456.756 28390.7 -7.41048 
268 1 11.902 14.289 3 6.02639 -157086 -173099 -20362.6 21041.4 -35909 -20220.5 -7.41549 
269 1 11.146 13.089 3 6.02217 -196705 -131539 -115996 9950.81 9204 20552.5 -7.41015 
270 1 11.808 11.835 3 6.02334 -158338 -153078 5349.69 7299.43 -19267 -28299.3 -7.41745 
271 1 11.052 10.635 3 6.02484 -141445 -119040 -130419 14190.2 13585.7 11232.6 -7.4088 
272 1 11.713 9.38 3 6.022 -183274 -181950 14529.7 -29502.8 423.255 -34256.5 -7.41792 
310 1 14.169 17.888 3 6.02288 -148664 -156233 -61505.1 -6127.47 -51976.3 -2977.9 -7.41278 
311 1 13.414 16.688 3 6.02052 -170301 -151536 -123805 2208.46 -10044.1 18605.4 -7.40985 
312 1 14.075 15.434 3 6.02414 -155412 -174716 -20959 22812.9 -46331 -7535.4 -7.41572 
313 1 13.319 14.234 3 6.02379 -155213 -139214 -131875 19580.2 -857.817 14923.1 -7.4095 
314 1 13.98 12.98 3 6.02523 -172355 -193648 14592.8 2853.27 -31808.8 -12456.2 -7.41783 
315 1 13.225 11.78 3 6.02406 -159024 -163255 -143417 3842.97 5169.43 9960.39 -7.40855 
316 1 13.886 10.526 3 6.02379 -167903 -175753 35175.6 15761.1 -11557.5 -17086.9 -7.41934 
317 1 13.13 9.326 3 6.02414 -145551 -151853 -151243 26455.1 4927.01 4122.13 -7.40793 
355 1 15.586 17.834 3 6.02288 -158447 -97744.5 -132587 -13.0135 -16474 2924.62 -7.4086 
356 1 16.247 16.579 3 6.02288 -160825 -188432 -35917.8 -31619.6 -51387.7 3004.84 -7.41499 
357 1 15.492 15.38 3 6.022 -174535 -146729 -137784 -30204.4 -8028.06 3130.56 -7.40879 
358 1 16.153 14.125 3 6.02519 -151680 -143273 4807.86 2841.58 -40972.4 2848.3 -7.41717 
359 1 15.397 12.925 3 6.02379 -155271 -137074 -148223 15237.1 -804.787 2520.6 -7.40845 
360 1 16.058 11.671 3 6.02406 -173975 -196793 35063.3 -2373 -22334.4 1626.4 -7.41928 
361 1 15.303 10.471 3 6.02421 -156275 -165159 -157553 1098.14 1709.36 1496.51 -7.40751 
362 1 15.964 9.217 3 6.02484 -168056 -181294 46346.3 13940.3 -8.91616 -50.0763 -7.41978 
400 1 18.42 17.725 3 6.02396 -141023 -172285 -61471.6 10122.9 -49842.1 7983.08 -7.41362 
401 1 17.664 16.525 3 6.02403 -149002 -85927.2 -130293 -13553.1 -12206.2 -12878.9 -7.40867 
402 1 18.326 15.27 3 6.01796 -198464 -154040 -20992.4 -32388.7 -44430.2 13236.7 -7.41599 
403 1 17.57 14.071 3 6.02219 -161934 -136411 -139507 -19983.9 -4152.22 -9799.39 -7.40838 
404 1 18.231 12.816 3 6.02351 -156809 -145793 14588.7 -588.9 -29841.9 16862.3 -7.41718 
405 1 17.475 11.616 3 6.02334 -143720 -129234 -151283 -745.665 1178.94 -6431.79 -7.40784 
406 1 18.137 10.362 3 6.02414 -162473 -163276 35127.5 3626.26 -9090.16 18428.6 -7.41893 
445 1 19.837 17.67 3 6.02801 -160813 -142556 -109032 11740.2 -14063.6 -29419.5 -7.4102 
446 1 20.498 16.416 3 6.02389 -145318 -172120 -55091.1 4942.38 -41188 16595.2 -7.41364 
447 1 19.742 15.216 3 6.02414 -201762 -126358 -116833 548.364 -4889.02 -24107.1 -7.41014 
448 1 20.404 13.962 3 6.02219 -152115 -153418 -20271.4 -3052.19 -31890.4 24884 -7.41566 
449 1 19.648 12.762 3 6.02253 -147920 -113608 -130470 -5943.15 2903.64 -17398.4 -7.40867 