ITEM: TIMESTEP
73
ITEM: NUMBER OF ATOMS
1352
ITEM: BOX BOUNDS pp pp pp
0.0000000000000000e+00 3.1928000000000001e+01
0.0000000000000000e+00 5.5300918199999998e+01
0.0000000000000000e+00 1.5000000000000000e+01
ITEM: ATOMS id type x y z c_csym c_2[1] c_2[2] c_2[3] c_2[4] c_2[5] c_2[6] c_3 
47 1 1.04788 8.5614 2.88376 6.01845 -168008 -132857 -14312 -23958 8709.71 -6350.86 -7.41165 
48 1 0.292259 7.36177 2.87417 6.0212 -143917 -159582 10091.1 -18641.9 26282.4 -2708.67 -7.41309 
49 1 0.952659 6.10695 2.86516 6.01973 -164808 -137276 -5253.81 -15598.6 10794 -5551.34 -7.41171 
50 1 0.196113 4.90783 2.85662 6.02428 -144975 -158138 3165.48 -10047 19177.9 -2057.57 -7.41207 
51 1 0.855792 3.65266 2.84988 6.02282 -160254 -142628 -1252.9 -7121.4 9678.63 -4570.64 -7.41155 
52 1 0.0984987 2.45393 2.84416 6.02786 -147694 -155370 -33.3734 -2803.82 9939.61 -1028.84 -7.41148 
53 1 0.757688 1.19853 2.84115 6.02842 -154514 -148596 -622.662 -1667.21 4102.67 -3425.65 -7.41135 
54 1 3.65134e-07 3.12814e-06 2.83961 6.03142 -151453 -151537 -744.714 -6.53526 0.151731 0.502039 -7.4113 
93 1 2.46475 8.50504 2.88562 6.01524 -160458 -143367 11170.1 -19067.9 27296.6 -201.077 -7.41355 
94 1 3.12503 7.25002 2.87797 6.01863 -179055 -122688 -4021.21 -19942.3 8702.87 -15956 -7.41216 
95 1 2.36948 6.05032 2.8675 6.01862 -156204 -146762 3256.71 -9494.72 21261.1 -3260.48 -7.41242 
96 1 3.02915 4.79505 2.8616 6.02046 -171233 -131356 681.84 -10795.7 9913.28 -14735.3 -7.41201 
97 1 2.27258 3.59589 2.85263 6.02229 -153658 -149387 -294.889 -269.176 12921.3 -5530.92 -7.41171 
98 1 2.93181 2.34046 2.8499 6.02492 -161716 -141393 1127.45 -3241.16 7266.1 -12925.6 -7.41172 
99 1 2.17447 1.14171 2.84415 6.02557 -152016 -150971 -841.869 5267.75 3140.03 -7122.35 -7.41142 
138 1 5.29629 8.39426 2.89333 6.01492 -192072 -109981 2631.37 -22365.6 5369.87 -24485.9 -7.41308 
139 1 4.5418 7.1939 2.88265 6.01306 -169471 -132976 -1607.03 -8245.28 20712.3 -1410.69 -7.41256 
140 1 5.20155 5.93857 2.87806 6.01805 -182479 -120245 6772.27 -12045.4 9143.61 -23358.7 -7.41293 
141 1 4.4459 4.73884 2.86744 6.01757 -162271 -139850 -4264.1 3559.94 13157 -6424.21 -7.41189 
142 1 5.10525 3.48341 2.86525 6.02209 -170729 -132454 6072.96 -2241.98 9647.95 -21047.8 -7.41252 
143 1 4.34857 2.28424 2.85657 6.02103 -156356 -146222 -3052.45 12349.9 4125.58 -10430.9 -7.41162 
144 1 5.00778 1.02883 2.85789 6.02209 -157287 -145680 2101.94 3558.56 5901.86 -17654.5 -7.41204 
183 1 6.71302 8.33877 2.89888 6.01025 -181547 -120055 -12105 -7924.47 18279.9 2119.14 -7.41233 
184 1 7.37301 7.08345 2.89604 6.01412 -191047 -112894 18221.6 -12089.3 7229.39 -29237.9 -7.41429 
185 1 6.61827 5.88314 2.88543 6.01443 -171055 -130144 -13523.7 6795.93 11531.3 -4736.02 -7.4118 
186 1 7.2779 4.62778 2.88401 6.01882 -178788 -125072 15439.2 296 11192 -26836.3 -7.41377 
187 1 6.52198 3.42809 2.874 6.01824 -162062 -139438 -9732.95 19419 3065.79 -10291.3 -7.41168 
188 1 7.1814 2.17276 2.87515 6.01864 -164733 -138737 8309.46 9697.92 10904.6 -23079.7 -7.41302 
189 1 6.42454 0.973577 2.86745 6.01935 -154160 -147984 -2887.34 26221.7 -5613.77 -14833.3 -7.41193 
228 1 9.54372 8.22966 2.91234 6.01187 -193723 -112204 34871.4 -11492.9 3511.89 -30307.9 -7.41595 
229 1 8.78974 7.02886 2.90333 6.0143 -177330 -122886 -28041.3 8157.42 8968.38 -1591.89 -7.41136 
230 1 9.44981 5.77366 2.90286 6.01656 -183613 -122199 30169.4 3338.22 11498 -29057.9 -7.41538 
231 1 8.69461 4.57348 2.89308 6.01799 -166719 -133510 -21779 24527.7 1019.89 -7950.9 -7.41144 
232 1 9.35441 3.31829 2.89406 6.01597 -170703 -134042 19432.4 16459.6 15151.5 -25674.1 -7.41438 
233 1 8.59814 2.11866 2.88544 6.01882 -157842 -143208 -10886.3 35828 -7520.72 -13197.3 -7.41191 
234 1 9.2579 0.86359 2.88878 6.01222 -156328 -146824 5354.09 23659.4 13458.1 -21145.6 -7.41324 
681 2 0.368819 8.61673 6.51599 6.01885 -138773 -165163 15440.2 23358.2 28836.7 3725.06 -7.41377 
682 2 0.464093 6.16298 6.53475 6.02211 -140056 -163086 6073.01 15390.1 23051.8 2168.48 -7.41253 
683 2 0.560989 3.70925 6.5501 6.02491 -143502 -159443 1127.78 7141.61 14827.4 170.668 -7.41172 
684 2 0.659112 1.25544 6.55885 6.02847 -148547 -154415 -622.586 1693.63 5018.01 -1840.23 -7.41135 
685 2 -1.07009e-06 5.19479e-07 6.56039 6.03143 -151502 -151514 -744.7 -7.7866 0.0192754 0.498773 -7.4113 
723 2 1.78581 8.67316 6.51457 6.01443 -146282 -154760 -13523.8 21201.1 9866.83 -7619.73 -7.4118 
724 2 2.54217 7.47395 6.52194 6.01806 -125330 -177403 6773.23 20784.1 24802 3761.08 -7.41293 
725 2 1.881 6.21968 6.53256 6.01763 -148606 -153687 -4264.32 11450.5 12143 -8180.87 -7.41189 
726 2 2.63806 5.02084 6.5384 6.0205 -132013 -170700 681.908 11865.1 17718.1 -1216.8 -7.41201 
727 2 1.97784 3.76606 6.54737 6.02227 -150035 -152849 -294.768 1707.33 11250.6 -8424.57 -7.41171 
728 2 2.7354 2.56747 6.55012 6.02279 -140813 -162015 -1253.02 4065.79 8797.73 -6095.7 -7.41155 
729 2 2.07592 1.31227 6.55584 6.02786 -150993 -152087 -33.4314 -4699.15 5859.92 -8093.33 -7.41148 
730 2 2.83361 0.113722 6.55438 6.02536 -151051 -151968 -428.284 669.577 -407.037 -10138.4 -7.41149 
768 2 4.6215 8.78384 6.50667 6.01493 -111026 -190819 2632.7 24341.3 23891 7592.02 -7.41308 
769 2 3.9592 7.53026 6.51735 6.01307 -134898 -167418 -1607.91 11704.1 11577.4 -17232.7 -7.41256 
770 2 4.71619 6.33136 6.52203 6.01868 -119375 -182225 -4021.11 14449.2 18169.2 441.624 -7.41216 
771 2 4.05499 5.07718 6.5325 6.01864 -140928 -162111 3256.3 -625.688 13453.8 -16782 -7.41242 
772 2 4.81245 3.8785 6.53484 6.01977 -130597 -171541 -5254.04 4152.47 10204.6 -6571.62 -7.41171 
773 2 4.15225 2.62375 6.54338 6.02425 -146122 -157079 3165.25 -10733.2 11370.3 -15579.6 -7.41207 
774 2 4.90989 1.42513 6.54215 6.02014 -143604 -159123 -2549.17 -2828.44 1467.22 -12812.9 -7.41171 
775 2 4.2504 0.169955 6.54737 6.02249 -151014 -151819 185.85 -15225.9 4894.67 -13486.1 -7.41172 
813 2 6.03865 8.83965 6.50105 6.00968 -121490 -181679 6311.87 12978.2 8666 -24528.3 -7.41361 
814 2 6.79547 7.64061 6.50431 6.01844 -109221 -191382 -13831.2 16111.1 16635.5 3820.52 -7.41201 
815 2 6.13321 6.38706 6.51438 6.01524 -130984 -172647 11169.6 -2159.57 13821.3 -23538.6 -7.41355 
816 2 6.89045 5.18819 6.51624 6.01845 -120930 -179860 -14312.4 3276.17 9854.92 -4368.23 -7.41165 
817 2 6.22936 3.93399 6.52583 6.02117 -139448 -164009 10090.7 -16080.6 15486.6 -21407.8 -7.41309 
818 2 6.98685 2.73521 6.525 6.0169 -134696 -166874 -9280.84 -7548.99 1629.45 -11847.9 -7.41176 
819 2 6.32671 1.48045 6.53249 6.02041 -146950 -155970 4589.33 -25028.8 12521.8 -18507.6 -7.41247 
820 2 7.08411 0.281574 6.52816 6.01607 -149625 -152920 -862.894 -12541 -6094.92 -18139.7 -7.41227 
858 2 8.87579 8.94869 6.48866 6.01909 -104979 -195115 -28021.7 17536.1 13018.2 7532.04 -7.41151 
859 2 8.21259 7.69566 6.49641 6.01299 -123270 -182156 24324.4 -1315.5 11594 -27598.2 -7.41501 
860 2 8.96945 6.49651 6.4977 6.01974 -114856 -184913 -28504.6 2624.09 8060.99 -936.999 -7.41125 
861 2 8.30743 5.24283 6.50655 6.01865 -133738 -171117 21970.6 -19052.2 17615.8 -25055.2 -7.41453 
862 2 9.06463 4.04379 6.50624 6.01535 -127654 -172768 -21467.8 -12068.3 622.935 -8821.6 -7.41151 
863 2 8.40372 2.78948 6.51434 6.01703 -142324 -161092 13641.2 -32732.9 18725.1 -21609.6 -7.41366 
864 2 9.16101 1.59044 6.51132 6.01214 -141756 -159841 -9237.1 -22033.8 -7353.97 -15594.4 -7.41222 
865 2 8.5009 0.335648 6.51732 6.01736 -149982 -151959 1799.29 -38945.8 14818.6 -17674.6 -7.41271 
903 2 10.293 9.00324 6.48189 6.01151 -120400 -187242 41240.5 2618.86 5622.23 -26981.2 -7.41661 
905 2 10.3865 6.55041 6.48883 6.01698 -131119 -175946 38907.9 -17967.2 16553.3 -24980.7 -7.41625 
907 2 10.4816 4.09709 6.49619 6.01383 -139909 -165288 28205.1 -36196.9 22480.5 -21728.1 -7.41524 
909 2 10.5778 1.64333 6.50092 6.01264 -146699 -156204 12174.2 -47991 22344.2 -17996.9 -7.41393 
273 1 10.9605 8.17575 2.91801 6.01729 -178148 -121102 -45686.3 6036.56 5926.17 1939.78 -7.4106 
274 1 11.6212 6.92086 2.91858 6.0164 -182248 -126157 48779.3 5435.25 9742.42 -25415.2 -7.41714 
275 1 10.8666 5.7203 2.91051 6.02057 -168312 -131181 -38331.4 26022.9 -1074.29 -4228.15 -7.41085 
276 1 11.5269 4.46536 2.91125 6.01416 -172729 -134010 35525 22380.6 17806.4 -23675.1 -7.41602 
277 1 10.7711 3.26534 2.90319 6.02029 -159939 -140150 -23894.8 42054.6 -9480.11 -9451.82 -7.41156 
278 1 11.4313 2.01041 2.90527 6.00977 -161174 -143521 16931.5 34271.4 19919.9 -20453 -7.41454 
279 1 10.6747 0.81081 2.89885 6.0153 -152960 -148356 -6072.27 50001.8 -17270.5 -13950.7 -7.41263 
318 1 13.7925 8.06886 2.92852 6.01867 -172540 -137708 65421.6 4809.12 5669.65 -14846.3 -7.41857 
319 1 13.038 6.86812 2.92327 6.02366 -164193 -134340 -55871.5 21926.1 -2418.64 -539.988 -7.41006 
320 1 13.6991 5.61358 2.92365 6.01382 -168822 -140280 53127 24807.5 17868.1 -15377.9 -7.41759 
321 1 12.9437 4.4133 2.91741 6.02173 -158272 -141365 -40075.3 42087.8 -10334.3 -4407.21 -7.4109 
322 1 13.6043 3.15863 2.91799 6.00834 -161769 -144616 32301 41550.6 24122.4 -14284.9 -7.41596 
323 1 12.848 1.95874 2.91258 6.01432 -153728 -147105 -18448.2 55512.8 -18454.9 -7881.14 -7.41218 
324 1 13.5084 0.704057 2.91446 6.00767 -153496 -150365 7720.68 49919.3 23487.1 -12396.4 -7.41413 
363 1 15.2094 8.01619 2.92951 6.02776 -153036 -144567 -67804.8 11595.8 -2052.99 628.676 -7.40947 
364 1 15.8714 6.76217 2.92932 6.01609 -157930 -152283 65170.7 21683.6 15055.9 -1967.3 -7.41857 
365 1 15.116 5.56185 2.92557 6.0218 -151075 -147883 -54703.5 34171.7 -8958.43 -154.542 -7.4102 
366 1 15.7773 4.30756 2.92442 6.00894 -156997 -150814 46403.1 42154.5 24941.8 -2935.87 -7.4171 
367 1 15.0211 3.10756 2.92089 6.01445 -150401 -150051 -32590.2 52235.3 -17014.7 -1057.42 -7.4115 
368 1 15.6819 1.85305 2.92022 6.00671 -153771 -151106 21220.6 55765.8 27618.4 -3343.71 -7.4152 
369 1 14.9252 0.653269 2.91826 6.00988 -150775 -151617 -6509.63 61043.3 -24239.1 -2265.66 -7.41318 
407 1 17.3811 9.16365 2.92951 6.02779 -136668 -160955 -67804.7 -2176 481.831 -2092.1 -7.40947 
408 1 18.0439 7.91022 2.92852 6.01865 -142344 -167936 65421.5 12724.2 10022 12332.8 -7.41858 
409 1 17.2883 6.71008 2.927 6.02302 -138260 -160068 -61263 19356.2 -4753.36 865.786 -7.40982 
410 1 17.9504 5.45625 2.92402 6.01229 -147405 -161198 52931.6 34899.8 22270.5 10224.3 -7.41756 
411 1 17.1942 4.25635 2.92239 6.01534 -142154 -157838 -43342.8 39747.4 -12223 3600.08 -7.41087 
412 1 17.8554 3.00211 2.91911 6.00856 -149709 -155845 31655.4 52550.7 27769.3 8121.98 -7.41589 
413 1 17.0987 1.80237 2.91881 6.01022 -147000 -154640 -18927.4 53527.6 -19996.3 5550.37 -7.41239 
414 1 17.7594 0.547859 2.91658 6.00874 -150732 -152379 6382.21 61012.5 26420.9 5988.75 -7.41402 
452 1 20.2169 9.05702 2.92365 6.01381 -125810 -183147 53127.8 -50.9958 4383.02 23162.8 -7.41759 
453 1 19.461 7.85722 2.92327 6.02367 -122865 -175723 -55871.6 1867.75 1677.12 -1824.08 -7.41006 
454 1 20.1237 6.60385 2.91858 6.01637 -135343 -172831 48779.9 21645 17138.5 21144.4 -7.41714 
455 1 19.3673 5.4042 2.91801 6.01728 -130095 -169189 -45686.4 21697.4 -4642.65 4161.78 -7.4106 
456 1 20.029 4.15028 2.91234 6.01189 -142598 -163426 34871.7 41122.9 24491.4 18194.6 -7.41595 
457 1 19.2722 2.95075 2.91302 6.01148 -139253 -161493 -27178.3 37973.6 -12418.3 9326.26 -7.41171 
458 1 19.9331 1.69637 2.90804 6.01027 -147713 -155602 15228.1 53692 25227.6 14889 -7.4144 
459 1 19.1762 0.496841 2.91095 6.00799 -149101 -153629 -4443.76 46007.1 -19572.8 13262.8 -7.4132 
904 2 11.0493 7.80371 6.48247 6.02307 -115701 -183502 -45856.4 3110.84 5119.68 2482.55 -7.41054 
906 2 11.1432 5.351 6.48912 6.01725 -125054 -174289 -38183.8 -14946.6 -1142.93 -4835.88 -7.41089 
908 2 11.2386 2.89777 6.49482 6.01147 -136685 -164104 -22906 -29997.5 -8947.95 -11240.6 -7.41178 
910 2 11.3349 0.443965 6.49702 6.00873 -148875 -153591 -3511.05 -37284.1 -16171.6 -16373.8 -7.41305 
948 2 13.1295 9.11034 6.47312 6.02547 -125451 -172777 -61288.3 5514.43 2324.35 4005.71 -7.40981 
949 2 12.4664 7.85714 6.47574 6.01714 -134179 -175164 57343.6 -11868.6 10951.6 -19518.5 -7.4179 
950 2 13.2224 6.65727 6.47659 6.02132 -129729 -168679 -55833.6 -14662.3 -2651.97 -1141.28 -7.41008 
951 2 12.5602 5.40358 6.48119 6.01344 -141555 -166040 46643.2 -33485.9 22065.2 -17061.7 -7.41698 
952 2 13.3167 4.20389 6.48171 6.01443 -136849 -163118 -39708.2 -34028.5 -9975.43 -5954.42 -7.41101 
953 2 12.6554 2.94971 6.4865 6.00982 -146581 -158430 27813.9 -50489.1 26622.9 -14197.8 -7.41546 
954 2 13.4123 1.75012 6.48536 6.00951 -145042 -156852 -17229.7 -47193.9 -17736 -9734.45 -7.41242 
955 2 12.7517 0.495592 6.48897 6.00998 -150185 -152435 5079.21 -58596.6 24717 -11123.6 -7.41376 
993 2 14.5466 9.1637 6.46927 6.02011 -144175 -166671 69863.6 -1449.35 1480.64 -9118.47 -7.41895 
994 2 15.3017 7.96333 6.47047 6.02647 -142416 -155315 -67802.1 -9820.5 -2205.62 200.429 -7.40947 
995 2 14.6394 6.70959 6.47191 6.01574 -149147 -160647 63082.5 -23828.9 16415.5 -7112.09 -7.41839 
996 2 15.3951 5.50946 6.47429 6.0197 -143682 -155269 -54661.4 -32009.1 -8927.44 -1518.63 -7.41021 
997 2 14.7336 4.25534 6.47685 6.00926 -151388 -155950 44843.8 -44466.4 25882.2 -5351.52 -7.41695 
998 2 15.4899 3.05546 6.47872 6.01285 -146529 -154307 -32392.1 -50019.7 -16843.7 -2817.79 -7.41155 
999 2 14.8291 1.80104 6.48085 6.00765 -151429 -153253 20225.6 -58157.4 28110.5 -3756.27 -7.41508 
1000 2 15.5858 0.601294 6.481 6.00885 -150114 -152738 -5987.58 -58776.9 -23977.5 -3390.75 -7.41327 
1039 2 16.7187 8.01591 6.46927 6.02009 -162402 -148439 69863.7 -9035.62 7156.17 5841.54 -7.41894 
1040 2 17.4735 6.81533 6.47311 6.02545 -156340 -142062 -61288.5 -23277.9 -4631.31 9.86349 -7.40981 
1041 2 16.812 5.56105 6.47345 6.01237 -161636 -147765 56518.6 -30379.1 19973 7012.04 -7.41789 
1042 2 17.5677 4.36084 6.4781 6.01906 -153354 -146366 -43541 -44087.2 -12438.7 1951.66 -7.41081 
1043 2 16.9068 3.10634 6.47854 6.00726 -157722 -148770 34134.5 -47829.8 26403.5 7077.37 -7.41616 
1044 2 17.6632 1.90645 6.48229 6.01265 -151603 -149556 -19590.4 -57921.1 -20409 3906.33 -7.41226 
1045 2 17.0026 0.65186 6.48162 6.00738 -152491 -151353 7832.42 -56464 25743.6 6609.92 -7.41422 
1084 2 19.5515 8.12226 6.47659 6.02132 -171677 -126850 -55833.9 -9548.01 2314.23 -1726.5 -7.41008 
1085 2 18.8903 6.86764 6.47574 6.01714 -175327 -134309 57343.7 -11884.2 11427.4 19244.3 -7.4179 
1086 2 19.6452 5.6671 6.48247 6.02308 -163856 -135351 -45856.7 -30853.5 -4709.62 3192.6 -7.41054 
1087 2 18.9845 4.41238 6.48189 6.01151 -168193 -139325 41240.3 -30355.4 20555.5 18358.9 -7.4166 
1088 2 19.7403 3.21231 6.48866 6.01907 -157387 -142652 -28021.4 -47827.7 -13031.7 7508 -7.41151 
1089 2 19.08 1.95754 6.48711 6.00835 -158903 -146022 19328.3 -43016.7 23166 16188.9 -7.41491 
1090 2 19.8365 0.757835 6.49235 6.0127 -152218 -149179 -6624.43 -56127.4 -20607 11344.4 -7.41284 
1129 2 20.9683 8.17564 6.48119 6.01346 -188877 -118740 46644.5 6074.6 3742.84 27640 -7.41698 
1131 2 21.0619 5.71977 6.48883 6.01695 -180193 -126889 38908.8 -10517.9 13358 26825.4 -7.41625 
1133 2 21.1571 3.26448 6.49641 6.01299 -168582 -137018 24324.4 -24849.5 18103.4 23841.1 -7.41501 
1135 2 21.2533 0.809806 6.50105 6.00974 -155492 -147822 6311.8 -32515.9 16908.2 19768.8 -7.41361 
497 1 21.6341 9.00292 2.91741 6.02172 -108942 -190540 -40075.8 -13760.7 8982.5 -6746.82 -7.4109 
498 1 22.2974 7.74992 2.91125 6.01416 -124399 -182457 35525.7 5600.78 11599.6 27258 -7.41602 
499 1 21.5408 6.55057 2.91051 6.02056 -117781 -181688 -38331.8 2990.65 4198 1183.76 -7.41085 
500 1 22.203 5.29695 2.90286 6.01657 -134614 -171121 30170.1 25030.4 19416 24486.5 -7.41538 
501 1 21.446 4.09771 2.90333 6.01427 -129345 -170725 -28041.3 19371.8 -3106.43 8562.9 -7.41136 
502 1 22.107 2.84349 2.89604 6.01412 -142801 -160899 18221.4 39891.7 21704.9 20880 -7.41429 
503 1 21.3499 1.64426 2.89888 6.0103 -142237 -159267 -12105.7 30497.2 -10974.9 14772.1 -7.41233 
504 1 22.0102 0.389588 2.89333 6.01493 -149853 -152098 2632.02 46747 18520.6 16893.9 -7.41308 
542 1 24.4713 8.89456 2.90527 6.00982 -118108 -186435 16931.6 -9454.05 7752.36 27478 -7.41454 
543 1 23.7146 7.69542 2.90319 6.02032 -108697 -191381 -23894.9 -12514.9 12925.4 -3484.08 -7.41156 
544 1 24.3771 6.44202 2.89406 6.01597 -128882 -175710 19432.5 7694.13 14657.5 25958.4 -7.41438 
545 1 23.6199 5.24302 2.89308 6.018 -120449 -179746 -21779.1 2096.1 6375.56 4858.59 -7.41144 
546 1 24.2813 3.98896 2.88401 6.01886 -138334 -165678 15439.6 23167.2 17644.9 23110.7 -7.41377 
547 1 23.5239 2.79003 2.88543 6.01441 -134327 -166720 -13523.9 14162.2 -1665.87 12354.8 -7.41181 
548 1 24.1843 1.5354 2.87806 6.01804 -146300 -156370 6772.97 32944.3 15657.2 19598.6 -7.41293 
549 1 23.427 0.336365 2.88265 6.01306 -149242 -153223 -1607.71 19936.6 -9133.91 18642.9 -7.41256 
587 1 25.8885 8.83913 2.89885 6.0153 -106037 -195092 -6072.41 -22942.7 20716.5 -7982.17 -7.41263 
588 1 26.5512 7.58579 2.88878 6.01222 -128794 -174468 5354.42 -7699.83 11584.2 22227.8 -7.41324 
589 1 25.7941 6.38688 2.88544 6.01873 -115766 -185192 -10886.1 -11606.2 15189.2 85.6997 -7.41191 
590 1 26.4556 5.1329 2.87515 6.01866 -136787 -166526 8309.57 6430.63 14535.9 20983.8 -7.41301 
591 1 25.6982 3.93415 2.874 6.01823 -128303 -173163 -9732.87 61.2233 7380.6 7800.67 -7.41168 
592 1 26.3587 2.67957 2.86525 6.0221 -144049 -159195 6072.8 17676.2 13404.3 18879.6 -7.41253 
593 1 25.6011 1.48084 2.86744 6.01761 -142468 -159825 -4264.39 7879.39 -1013.91 14607.1 -7.41189 
594 1 26.2608 0.225793 2.8616 6.0205 -150681 -151942 681.57 22731.5 7805.06 15952.1 -7.41201 
632 1 28.7249 8.72889 2.88868 6.01214 -136180 -165323 -9237.16 -18916.7 9828.01 14167 -7.41222 
633 1 27.9682 7.52982 2.88268 6.01737 -117944 -184153 1799.98 -20290.6 22715.9 -3996.39 -7.41271 
634 1 28.6298 6.27581 2.87183 6.01609 -141291 -161293 -862.958 -7695.6 12661.7 14348 -7.41227 
635 1 27.8726 5.07703 2.86745 6.01938 -126773 -175294 -2886.9 -10414.2 15652.5 2555.47 -7.41193 
636 1 28.5331 3.82245 2.85789 6.02211 -145601 -157523 2101.73 3255.98 12339.3 13938.6 -7.41204 
637 1 27.7755 2.62385 2.85657 6.02106 -138073 -164546 -3052.76 -1843.96 6969.71 8788.06 -7.41162 
638 1 28.4352 1.36879 2.8499 6.02492 -149272 -153766 1127.39 10453.8 7561.15 12755.2 -7.41172 
639 1 27.6776 0.170171 2.85263 6.02227 -150651 -152312 -295.009 2043.52 -1670.76 13955.7 -7.41171 
669 1 30.1419 8.67257 2.88566 6.01705 -128039 -175360 13641.4 -24485.5 28077.1 -5411.83 -7.41366 
670 1 30.8033 7.41839 2.875 6.01687 -152184 -149296 -9280.57 -17772.2 11075.6 4513.2 -7.41176 
671 1 30.0467 6.21931 2.86751 6.02041 -132058 -170775 4589.44 -16425.4 22288.6 -1590.04 -7.41247 
672 1 30.7073 4.96466 2.85785 6.02015 -152715 -149846 -2549.29 -8183 11829.6 5136.02 -7.41171 
673 1 29.95 3.76593 2.85263 6.02251 -138567 -164410 185.934 -7898.07 14127.8 2504.33 -7.41172 
674 1 30.6097 2.51084 2.84562 6.02536 -152277 -150731 -428.389 -6.36814 8576.43 5421.61 -7.4115 
675 1 29.852 1.3123 2.84415 6.02553 -146681 -156285 -841.877 -2151.64 4597.87 6280.7 -7.41142 
676 1 30.5112 0.0569166 2.84115 6.0284 -151434 -151568 -622.751 3433.97 915.145 5266.14 -7.41135 
1130 2 21.7223 6.97479 6.48912 6.01728 -175024 -124445 -38184.3 -13771.6 4759.78 1427.66 -7.41089 
1132 2 21.8171 4.51951 6.4977 6.01975 -165116 -134694 -28504.5 -31620.7 -3219.57 7449.52 -7.41125 
1134 2 21.9133 2.06474 6.50431 6.01847 -156952 -143838 -13831.2 -43566 -11626.3 12497.8 -7.41201 
1174 2 23.7992 8.284 6.49482 6.01148 -183249 -117517 -22906.5 3190.87 14208.6 -2129.6 -7.41178 
1175 2 23.139 7.02875 6.49619 6.01385 -190332 -115026 28205.4 7090.8 7575.94 30333.1 -7.41524 
1176 2 23.8937 5.82831 6.50624 6.01537 -172019 -128517 -21467.9 -13380.5 7327.69 4951.84 -7.41151 
1177 2 23.2339 4.57304 6.50655 6.01865 -178173 -126580 21970.8 -6778.16 12890.9 27782.4 -7.41453 
1178 2 23.9897 3.37321 6.51624 6.01847 -162414 -138475 -14312.4 -27193.8 -1145.23 10717.3 -7.41165 
1179 2 23.33 2.11799 6.51438 6.01524 -164138 -139644 11169.9 -16984.9 13474.5 23739.6 -7.41355 
1180 2 24.0868 0.918659 6.52203 6.01864 -154013 -147682 -4021.34 -34413.4 -9466.92 15514.9 -7.41216 
1219 2 25.2159 8.33901 6.50091 6.01265 -195370 -107654 12174.8 19827.1 4413.97 28349.4 -7.41393 
1220 2 25.9701 7.13845 6.51132 6.01216 -174503 -127252 -9237.1 3242.76 17181.7 1428.97 -7.41222 
1221 2 25.3104 5.88309 6.51434 6.01702 -184726 -118705 13641.4 8144.15 9352.15 27021.3 -7.41366 
1222 2 26.0658 4.68319 6.525 6.01687 -165464 -136124 -9280.68 -10141.6 9446.04 7335.12 -7.41176 
1223 2 25.4064 3.42778 6.52583 6.02118 -171916 -131735 10090.7 -2602.19 10795.1 24115.7 -7.41309 
1224 2 26.1629 2.22845 6.53484 6.01975 -157678 -144430 -5254.2 -19703.3 589.407 12123.7 -7.41171 
1225 2 25.5035 0.973133 6.5325 6.01861 -157307 -145576 3256.55 -8869.57 7807.1 20042.5 -7.41242 
1264 2 28.0469 8.44937 6.51122 6.01227 -169695 -133413 5354.1 15976.8 25041.7 -1082.01 -7.41324 
1265 2 27.3869 7.19417 6.51732 6.01737 -185249 -116815 1799.17 18601 7896.36 21670.1 -7.41271 
1266 2 28.1421 5.99424 6.52816 6.01607 -162945 -139564 -862.541 4881.28 18756.6 3791.15 -7.41227 
1267 2 27.4825 4.73887 6.53249 6.02037 -175423 -127442 4589.4 8559.14 9766.69 20098 -7.41247 
1268 2 28.2389 3.53953 6.54215 6.02012 -157640 -144965 -2549.27 -5331.26 10363.3 7676.47 -7.41171 
1269 2 27.5796 2.28408 6.54338 6.02426 -163560 -139540 3165.37 590.088 7807.39 17636.7 -7.41207 
1270 2 28.3368 1.08519 6.55012 6.02281 -153176 -149590 -1253.24 -11216.2 880.735 10667.4 -7.41155 
1309 2 29.4637 8.50554 6.51456 6.01884 -177950 -123114 -10886.3 24307.1 7668.65 13111.7 -7.41191 
1310 2 30.219 7.30566 6.52485 6.01862 -153631 -149872 8310.1 16060.3 25440.5 2096.86 -7.41301 
1311 2 29.5589 6.0506 6.53255 6.01933 -172189 -129943 -2887.14 15755.1 10039 12278.2 -7.41193 
1312 2 30.3151 4.85129 6.54211 6.02211 -151712 -151350 2102.02 6779.12 18240.7 3715.88 -7.41204 
1313 2 29.6556 3.59597 6.54737 6.02249 -164756 -138125 185.961 7220.14 9232.85 10982.5 -7.41172 
1314 2 30.4127 2.39712 6.55438 6.02539 -151057 -151864 -428.379 -716.27 8983.46 4716.65 -7.4115 
1315 2 29.7536 1.14167 6.55584 6.02789 -155881 -147176 -33.4933 1905.47 4078.78 9122.18 -7.41148 
1350 2 31.6358 7.36224 6.526 6.01821 -161911 -139588 -9732.57 19496.1 10445.7 2491.29 -7.41168 
1351 2 31.7319 4.90808 6.54343 6.02104 -159492 -143050 -3052.32 10565.4 11095.8 1642.11 -7.41162 
1352 2 31.8295 2.454 6.55585 6.02555 -155662 -147154 -841.634 3002.52 7738.72 841.221 -7.41142 
39 1 1.41671 18.3805 2.92953 6.02648 -160567 -136993 -67802.5 668.863 -928.982 -2010.53 -7.40947 
40 1 0.662677 17.1796 2.93073 6.02014 -159798 -151084 69863.7 -10472.1 8637.05 3276.86 -7.41895 
41 1 1.32502 15.9257 2.92689 6.02547 -165795 -132550 -61288 -17732.5 -2306.67 -4016.19 -7.40981 
42 1 0.571287 14.7248 2.92426 6.01715 -154736 -154629 57343.2 -23655.7 22379.7 275.474 -7.4179 
43 1 1.23357 13.4708 2.91753 6.02308 -169214 -129950 -45856.3 -27904.8 409.709 -5675.14 -7.41054 
44 1 0.479569 12.2702 2.91117 6.01697 -149290 -157898 38909 -28296.6 29910.5 -1845.36 -7.41625 
45 1 1.14142 11.016 2.9023 6.01978 -169676 -130201 -28504.7 -29051.6 4841.16 -6513.51 -7.41125 
46 1 0.386705 9.81586 2.89345 6.01868 -145367 -159543 21970.8 -25690.9 30505.5 -2727.28 -7.41453 
85 1 2.83364 18.3272 2.92809 6.01574 -178349 -131401 63082.7 -6882.45 2048.52 17771.8 -7.41839 
86 1 3.49512 17.0726 2.92571 6.01969 -180169 -118832 -54661.3 -11000.9 -5779.12 -6972.23 -7.41022 
87 1 2.742 15.8714 2.92655 6.01236 -177520 -131878 56518.6 -21134.2 16059.4 13791.1 -7.41789 
88 1 3.40357 14.6168 2.9219 6.01906 -186312 -113386 -43540.8 -25073.8 -4528.9 -11747.8 -7.41081 
89 1 2.65054 13.4156 2.91811 6.01147 -172812 -134762 41240.8 -27562 26177.6 8621.41 -7.4166 
90 1 3.3119 12.161 2.91134 6.01907 -187890 -112284 -28021.4 -30226.7 -13.3712 -15039.2 -7.41151 
91 1 2.55834 10.9601 2.90359 6.01297 -166301 -139044 24324.8 -26056.3 29698.2 3759.08 -7.41501 
92 1 3.21923 9.70535 2.89569 6.01846 -184872 -115845 -13831.2 -27533.9 5009.78 -16317.9 -7.41201 
130 1 5.66499 18.2198 2.91829 6.01441 -185997 -113900 -39708.5 -5717.49 -10144.5 -5661.26 -7.41101 
131 1 4.91198 17.0185 2.92316 6.00926 -193361 -114076 44844 -20185.2 8306.83 25090 -7.41695 
132 1 5.57293 15.7635 2.92128 6.01285 -195712 -105134 -32392.6 -21655.7 -10861.9 -13178.8 -7.41155 
133 1 4.82044 14.5619 2.92146 6.00725 -192428 -114051 34134.6 -27741.9 19331.1 19328 -7.41616 
134 1 5.48138 13.3069 2.91771 6.01265 -200333 -100983 -19590.3 -29877.7 -6820.93 -19628 -7.41227 
135 1 4.72874 12.1055 2.91289 6.00834 -186628 -118482 19328.4 -27100.3 25602.5 11967 -7.41491 
136 1 5.38943 10.8504 2.90765 6.01268 -198549 -102847 -6624.99 -29376.9 -479.042 -23518.5 -7.41284 
137 1 4.63603 9.64946 2.89895 6.00972 -177956 -125419 6312.46 -19565.3 25574.7 4758.63 -7.41362 
175 1 7.08176 18.1654 2.9135 6.00983 -199069 -105742 27813.8 -20077.4 1016 30155.4 -7.41546 
176 1 7.74222 16.9102 2.91464 6.00954 -194724 -107118 -17229.3 -18622.9 -17297.8 -10492.1 -7.41242 
177 1 6.98971 15.7086 2.91915 6.00768 -203144 -101610 20225.3 -28346 10802.2 26222.5 -7.41508 
178 1 7.65036 14.4534 2.919 6.00888 -202818 -99836.8 -5987.84 -28286.9 -14925.8 -19070.6 -7.41327 
179 1 6.89816 13.2517 2.91838 6.00742 -200587 -103319 7832.26 -28679.5 18596.8 18989.8 -7.41422 
180 1 7.55878 11.9965 2.91658 6.00876 -204800 -98337 6381.29 -29767.6 -8023.92 -25874.7 -7.41402 
181 1 6.80619 10.795 2.91095 6.00799 -192316 -110334 -4443.18 -21076.2 21272.3 10318.9 -7.4132 
182 1 7.46656 9.53973 2.90804 6.01025 -200165 -103171 15227.8 -23394.6 280.366 -29292.2 -7.4144 
220 1 9.91209 18.0562 2.90298 6.00872 -184709 -117735 -3510.55 -16579.2 -22266.7 -5818.76 -7.41305 
221 1 9.15898 16.855 2.91104 6.00997 -202500 -99932.2 5078.39 -28288.5 2725.13 26966.9 -7.41376 
222 1 9.81951 15.5998 2.91446 6.00769 -194411 -109437 7720.41 -26373.1 -22478.8 -14141.9 -7.41413 
223 1 9.06713 14.3982 2.91826 6.00989 -204181 -98122.1 -6509.26 -30177.1 10157.4 22124.3 -7.41318 
224 1 9.72785 13.143 2.92022 6.00673 -200140 -104879 21220.7 -29075.5 -16704.8 -22246.7 -7.4152 
225 1 8.97554 11.9414 2.91881 6.01021 -199143 -102595 -18927.5 -23554.7 14805.1 14542.7 -7.4124 
226 1 9.63622 10.6862 2.91911 6.00855 -199820 -105795 31655.4 -23616.9 -6850.35 -28110.3 -7.41589 
227 1 8.8833 9.48484 2.91302 6.01148 -188935 -111906 -27178.2 -9458.64 14284.9 6090.99 -7.41171 
678 2 0.0915912 15.9791 6.47148 6.01868 -150552 -159830 65421.2 17472.1 15691.7 2512.81 -7.41857 
679 2 0.183025 13.5247 6.48142 6.01642 -144831 -163535 48779.5 27010.5 26881 4271.19 -7.41714 
680 2 0.275222 11.0706 6.49714 6.01656 -140453 -165368 30170.2 28112.3 30914.1 4571.63 -7.41538 
716 2 2.1721 17.2865 6.47069 6.01614 -135009 -175383 65170.3 8406.9 5824.69 14022.5 -7.41857 
717 2 1.50872 16.0334 6.473 6.02299 -137820 -160399 -61262.7 19113.9 -1627.07 -4549.79 -7.40982 
718 2 2.26356 14.8331 6.47598 6.0123 -127444 -180853 52931.5 23362.9 19989.6 14173.7 -7.41756 
719 2 1.60016 13.5799 6.48199 6.01728 -140608 -158484 -45686 27792.3 1283.78 -6102.95 -7.4106 
720 2 2.35523 12.3799 6.48766 6.01188 -122502 -183217 34872.3 29473.2 28002.7 12112.2 -7.41595 
721 2 1.69229 11.1266 6.49667 6.0143 -143640 -156548 -28041.3 27723.3 5862.21 -6971.12 -7.41136 
722 2 2.44794 9.92694 6.50396 6.01413 -121911 -181905 18221.9 27766.1 28935.5 8357.36 -7.41429 
761 2 3.5893 17.3405 6.47443 6.02181 -119121 -179902 -54703.6 15665.2 -4612.89 -7681.56 -7.4102 
762 2 4.3449 16.1407 6.47558 6.0089 -115899 -191874 46403 18376.4 9928.1 23068.3 -7.41711 
763 2 3.68081 14.888 6.47761 6.01533 -119383 -180523 -43342.7 26791.9 -2993.56 -12385 -7.41087 
764 2 4.43641 13.6883 6.48089 6.00854 -108855 -196777 31655.7 28929.8 20919 19987.8 -7.41589 
765 2 3.77245 12.4356 6.48698 6.01149 -122936 -177775 -27178.7 28729.3 1867.18 -15417.4 -7.41171 
766 2 4.52837 11.2361 6.49196 6.01025 -107196 -196159 15228.3 30270.2 25507.6 14402.5 -7.4144 
767 2 3.86507 9.98303 6.50112 6.01026 -128604 -172900 -12105.7 22697.1 7305.07 -16890 -7.41233 
806 2 6.42639 17.4481 6.48201 6.00831 -112961 -193532 32301.4 13301.6 -309.909 28033.2 -7.41596 
807 2 5.76221 16.1956 6.47911 6.01444 -104993 -195731 -32590.2 26043.7 -9423.37 -14205.7 -7.4115 
808 2 6.51827 14.9961 6.47978 6.00671 -103513 -201549 21220.8 26793.7 10914.1 25589.4 -7.4152 
809 2 5.85374 13.7437 6.48119 6.01016 -106342 -195316 -18927.3 30091.6 -5191.35 -20092.9 -7.41239 
810 2 6.60986 12.5443 6.48343 6.00874 -99096.8 -203918 6381.82 31198.5 18396.3 19887 -7.41402 
811 2 5.94564 11.2918 6.48905 6.00798 -112661 -190078 -4443.76 25047.4 1698.91 -23581.7 -7.4132 
812 2 6.70203 10.0926 6.49235 6.01268 -101207 -200093 -6624.08 26813.6 20127.8 12173.4 -7.41284 
851 2 7.84366 17.5031 6.48742 6.01431 -100702 -200216 -18447.4 24891.6 -16053.8 -12041.9 -7.41218 
852 2 8.60005 16.3038 6.48554 6.00765 -107882 -195938 7720.12 23652.6 1008.32 26538.2 -7.41413 
853 2 7.93563 15.0515 6.48174 6.00987 -98517.2 -203799 -6508.93 30931.6 -14081.3 -19859 -7.41318 
854 2 8.69183 13.8521 6.481 6.00886 -101009 -201603 -5987.22 30542.5 9052.1 22461 -7.41326 
855 2 8.02722 12.5998 6.48162 6.0074 -102735 -201103 7831.94 27804.9 -7147.63 -25598.9 -7.41422 
856 2 8.78346 11.4005 6.48229 6.01266 -99958.3 -201352 -19590.3 28101.7 13588.2 15721.1 -7.41227 
857 2 8.1193 10.148 6.48711 6.00833 -111874 -192960 19328.2 15889.1 2437.09 -28156.9 -7.41491 
897 2 10.0174 16.3594 6.48897 6.00997 -101112 -201414 5079.19 30246.2 -21991.8 -15843.1 -7.41376 
899 2 10.1092 13.9076 6.48085 6.00767 -102290 -202175 20225.5 29797.3 -17309 -22466.1 -7.41508 
901 2 10.2008 11.4556 6.47854 6.00725 -109635 -196916 34134.7 20008.1 -7072.46 -26404.3 -7.41616 
265 1 11.3289 18.0005 2.89885 6.01529 -192780 -108443 -6072.66 -27033.2 -3446.05 21932.4 -7.41263 
266 1 11.9894 16.7455 2.90527 6.00979 -177614 -126973 16931.5 -24761.5 -27672.6 -7025.31 -7.41454 
267 1 11.2363 15.5444 2.91258 6.0143 -196873 -103941 -18448.3 -30626.7 2401.82 19922.6 -7.41218 
268 1 11.8973 14.2895 2.91799 6.00832 -184906 -121522 32301.5 -28186.9 -24432.3 -13748.2 -7.41596 
269 1 11.1447 13.088 2.92089 6.01444 -195466 -105131 -32590.3 -26277.2 7590.94 15264.2 -7.4115 
270 1 11.8058 11.8331 2.92442 6.00893 -188940 -119000 46403.1 -23671.4 -15013.7 -20132.3 -7.4171 