ITEM: TIMESTEP
0
ITEM: NUMBER OF ATOMS
16856
ITEM: BOX BOUNDS pp pp pp
0.0000000000000000e+00 1.1273548200000000e+02
0.0000000000000000e+00 1.9526358200000001e+02
0.0000000000000000e+00 1.8399999999999999e+01
ITEM: ATOMS id type x y z c_csym c_2[1] c_2[2] c_2[3] c_2[4] c_2[5] c_2[6] c_3 
180 1 0.802578 8.58777 7.5 6.03193 -144760 -129195 -104240 -710.637 18615.3 -2299.62 -7.41333 
181 1 0.0802578 7.36756 7.5 6.03193 -131337 -142678 -104494 203.449 19400.3 -270.72 -7.41332 
182 1 0.775826 6.13191 7.5 6.03193 -142227 -131153 -106740 -691.195 14090.8 -2185 -7.41319 
183 1 0.0535052 4.91171 7.5 6.03193 -132691 -140589 -107471 137.983 12898.2 -179.897 -7.41315 
184 1 0.749073 3.67606 7.5 6.03193 -139749 -133195 -108577 -665.105 8862.84 -2048.11 -7.41308 
185 1 0.0267526 2.45585 7.5 6.03193 -134388 -138463 -109198 70.1096 6371.89 -88.6484 -7.41305 
186 1 0.72232 1.2202 7.5 6.03191 -137402 -135301 -109573 -633.372 3058.85 -1887.99 -7.41302 
187 1 0 0 7.5 6.03191 -136404 -136417 -109751 48.3658 0.00624538 0.057774 -7.41301 
340 1 2.22047 8.57232 7.5 6.03194 -130795 -143686 -102333 2327 22339.5 -4397.09 -7.41344 
341 1 2.91603 7.33667 7.5 6.03194 -143447 -130431 -104675 -2191.85 16461.5 -8235.72 -7.41331 
342 1 2.19371 6.11647 7.5 6.03194 -131969 -141640 -105885 2212.87 15924.3 -4731.41 -7.41324 
343 1 2.88928 4.88082 7.5 6.03194 -140929 -132418 -106937 -2293.5 11610.2 -7950.23 -7.41318 
344 1 2.16696 3.66061 7.5 6.03194 -133503 -139543 -108167 2077.89 9402.31 -5023.44 -7.41311 
345 1 2.86253 2.42496 7.5 6.03192 -138503 -134480 -108449 -2381.09 6116.76 -7590.98 -7.41309 
346 1 2.14021 1.20476 7.5 6.03192 -135379 -137516 -109240 1973.14 2946.6 -5271.28 -7.41304 
499 1 5.05624 8.54143 7.5 6.03194 -144688 -129996 -101341 -3532.55 18707.3 -14248.6 -7.4135 
500 1 4.33392 7.32123 7.5 6.03194 -131392 -142761 -103569 4307.11 18546.8 -8772.74 -7.41337 
501 1 5.02949 6.08558 7.5 6.03194 -142150 -131905 -104048 -3766.06 14298.6 -13863.4 -7.41334 
502 1 4.30717 4.86537 7.5 6.03194 -132760 -140730 -106305 4124.01 12104.8 -9481.51 -7.41321 
503 1 5.00274 3.62972 7.5 6.03194 -139668 -133892 -106109 -3977.69 9192.64 -13358 -7.41322 
504 1 4.28042 2.40952 7.5 6.03192 -134464 -138665 -107809 3905.45 5648.03 -10105.9 -7.41313 
505 1 4.97598 1.17387 7.5 6.03192 -137340 -136021 -107344 -4213.96 3513.45 -12729.1 -7.41315 
657 1 7.19645 9.74619 7.5 6.03194 -145936 -129860 -96710.9 -4694.86 20767.5 -20081 -7.41377 
658 1 6.47413 8.52598 7.5 6.03194 -130896 -143903 -100709 6370.25 20714.6 -12209.4 -7.41353 
659 1 7.1697 7.29033 7.5 6.03194 -143402 -131673 -99867.4 -5060.71 16855.5 -19638.8 -7.41359 
660 1 6.44738 6.07013 7.5 6.03194 -132095 -141973 -103788 6159.55 14416.7 -13352.5 -7.41336 
661 1 7.14295 4.83448 7.5 6.03194 -140881 -133570 -102492 -5398.97 12204.4 -19036.2 -7.41343 
662 1 6.42063 3.61428 7.5 6.03194 -133649 -139988 -105625 5894.63 8032.22 -14379.6 -7.41325 
663 1 7.11619 2.37863 7.5 6.03192 -138450 -135532 -104398 -5706.12 6917.35 -18266.5 -7.41332 
664 1 6.39387 1.15842 7.5 6.03192 -135538 -138066 -106284 5629.83 1730.01 -15279.1 -7.41321 
816 1 8.61434 9.73074 7.5 6.03194 -130475 -145019 -97496.5 8354.32 22397.9 -14980.4 -7.41372 
817 1 9.30991 8.49509 7.5 6.03194 -144670 -131726 -94388.2 -6161.58 19220.4 -25144.7 -7.4139 
818 1 8.58759 7.27489 7.5 6.03194 -131506 -143221 -100806 8136.08 16294.3 -16558.1 -7.41353 
819 1 9.28315 6.03924 7.5 6.03194 -142132 -133516 -97575.4 -6624.4 15079.1 -24487 -7.41372 
820 1 8.56083 4.81903 7.5 6.03194 -132903 -141356 -102872 7846.19 10043.7 -17998 -7.41341 
821 1 9.2564 3.58338 7.5 6.03194 -139646 -135370 -100163 -7050.85 10251.9 -23625.7 -7.41357 
822 1 8.53408 2.36318 7.5 6.03192 -134632 -139451 -103746 7490.92 3804.88 -19282.2 -7.41336 
823 1 9.22965 1.12753 7.5 6.03192 -137309 -137351 -101973 -7484.08 4854.84 -22556 -7.41346 
975 1 11.4501 9.69985 7.5 6.03194 -145940 -132059 -87635.9 -7059.51 21345.5 -30271 -7.4143 
976 1 10.7278 8.47965 7.5 6.03194 -130989 -144423 -97554.7 10007.2 17715.5 -19055.7 -7.41371 
977 1 11.4234 7.244 7.5 6.03194 -143409 -133729 -91370.8 -7642.42 17756.1 -29592.4 -7.41408 
978 1 10.701 6.02379 7.5 6.03194 -132227 -142707 -99745.1 9711.8 11646.5 -20901.6 -7.41359 
979 1 11.3966 4.78814 7.5 6.03194 -140886 -135465 -94634.7 -8185.2 13443.8 -28681.4 -7.41389 
980 1 10.6743 3.56794 7.5 6.03194 -133815 -140932 -100737 9334.63 5528.78 -22573.9 -7.41353 
981 1 11.3699 2.33229 7.5 6.03192 -138448 -137249 -97241.2 -8681.48 8503.7 -27530 -7.41374 
982 1 10.6475 1.11208 7.5 6.03192 -135730 -139208 -100604 8931.54 -477.318 -24053.4 -7.41354 
1134 1 12.868 9.68441 7.5 6.03194 -130540 -145535 -94222.9 11732.6 18679 -20837.5 -7.4139 
1135 1 13.5636 8.44876 7.5 6.03194 -144697 -134200 -83918.6 -8446.04 20187.7 -34257.5 -7.41452 
1136 1 12.8413 7.22855 7.5 6.03194 -131619 -143995 -96437.3 11449.1 12825.6 -23067.2 -7.41378 
1137 1 13.5368 5.9929 7.5 6.03194 -142161 -135807 -87837.5 -9098.23 16432.4 -33330.7 -7.41429 
1138 1 12.8145 4.7727 7.5 6.03194 -133058 -142382 -97452.5 11070.2 6873.31 -25114.8 -7.41372 
1139 1 13.5101 3.53705 7.5 6.03194 -139671 -137458 -91229.9 -9700.51 12003.8 -32139.7 -7.41409 
1140 1 12.7877 2.31684 7.5 6.03192 -134821 -140721 -97332 10602.9 972.572 -26956.3 -7.41373 
1141 1 13.4833 1.08119 7.5 6.03192 -137324 -139219 -93914.4 -10295 7007.73 -30679.9 -7.41393 
1293 1 15.7038 9.65352 7.5 6.03194 -145982 -134914 -75286 -9033.3 22338.1 -38410.4 -7.41502 
1294 1 14.9815 8.43331 7.5 6.03194 -131077 -145176 -93134.3 13021.3 13585.7 -24505.1 -7.41396 
1295 1 15.677 7.19766 7.5 6.03194 -143455 -136384 -79825.7 -9786.22 19169.5 -37494.5 -7.41475 
1296 1 14.9547 5.97746 7.5 6.03194 -132364 -143749 -94083.1 12657.1 7830 -26901 -7.41391 
1297 1 15.6503 4.74181 7.5 6.03194 -140933 -137900 -83977 -10487.7 15294.3 -36297.9 -7.41451 
1298 1 14.928 3.5216 7.5 6.03194 -133993 -142256 -93890.2 12191.6 2074.83 -29086.6 -7.41392 
1299 1 15.6235 2.28595 7.5 6.03192 -138488 -139442 -87551.9 -11130.5 10798 -34813.7 -7.4143 
1300 1 14.9012 1.06575 7.5 6.03192 -135939 -140803 -92641.2 11681.6 -3530 -31038.2 -7.414 
1452 1 17.1217 9.63807 7.5 6.03194 -130602 -146219 -90006.1 14398.1 13948.5 -25253.9 -7.41414 
1453 1 17.8172 8.40242 7.5 6.03194 -144755 -137183 -70677.5 -10250.6 21618.7 -41114.3 -7.41529 
1454 1 17.0949 7.18222 7.5 6.03194 -131733 -144996 -90807.6 14062 8408.86 -27959.6 -7.4141 
1455 1 17.7905 5.94657 7.5 6.03194 -142223 -138556 -75547.3 -11041.4 18326.8 -39939.5 -7.415 
1456 1 17.0682 4.72636 7.5 6.03194 -133219 -143695 -90464 13614.7 2827.25 -30458.4 -7.41412 
1457 1 17.7637 3.49071 7.5 6.03194 -139731 -139951 -79979.5 -11772.4 14371.8 -38465.5 -7.41474 
1458 1 17.0414 2.27051 7.5 6.03192 -135019 -142337 -89052.5 13064.4 -2655.5 -32723.5 -7.41421 
1459 1 17.737 1.03486 7.5 6.03192 -137374 -141436 -83790.1 -12484.8 9848.68 -36689.6 -7.41452 
1611 1 19.9574 9.60718 7.5 6.03194 -146047 -138184 -60491.4 -10496.5 23752.1 -44148.8 -7.41589 
1612 1 19.2351 8.38697 7.5 6.03194 -131168 -146093 -87786.2 15258.9 8635.06 -28341.5 -7.41427 
1613 1 19.9307 7.15132 7.5 6.03194 -143526 -139412 -66027.5 -11365.4 21063.5 -43018 -7.41556 
1614 1 19.2084 5.93112 7.5 6.03194 -132506 -145000 -87223.2 14842.6 3244.38 -31113 -7.41431 
1615 1 19.9039 4.69547 7.5 6.03194 -141007 -140662 -71270.1 -12174.5 17680.2 -41582.2 -7.41525 
1616 1 19.1816 3.47527 7.5 6.03194 -134176 -143834 -85582.8 14314.2 -2091.75 -33657.8 -7.4144 
1617 1 19.8772 2.23962 7.5 6.03192 -138558 -141919 -76028.8 -12916.9 13678.6 -39837.1 -7.41497 
1618 1 19.1549 1.01941 7.5 6.03192 -136154 -142698 -82963.9 13731.1 -7234.56 -35951.1 -7.41456 
1770 1 21.3753 9.59173 7.5 6.03194 -130673 -147022 -85156.6 16228.9 8544.57 -28113.4 -7.41442 
1771 1 22.0709 8.35608 7.5 6.03194 -144830 -140451 -55523.6 -11467.5 23475 -45499.9 -7.41618 
1772 1 21.3486 7.13588 7.5 6.03194 -131855 -146147 -84317.2 15852.5 3354.02 -31110.8 -7.41447 
1773 1 22.0441 5.90023 7.5 6.03194 -142303 -141555 -61517.6 -12343.5 20684.3 -44125.9 -7.41583 
1774 1 21.3218 4.68002 7.5 6.03194 -133386 -145190 -82391.7 15357.5 -1820.17 -33893.2 -7.41459 
1775 1 22.0174 3.44437 7.5 6.03194 -139814 -142659 -67170.8 -13153.9 17235.2 -42440.6 -7.41549 
1776 1 21.2951 2.22417 7.5 6.03192 -135220 -144169 -79471.8 14753.5 -6846.49 -36434.3 -7.41476 
1777 1 21.9906 0.98852 7.5 6.03192 -137452 -143835 -72295.8 -13939.8 13213 -40444.1 -7.41519 
1929 1 24.2111 9.56084 7.5 6.03194 -146121 -141655 -44157.4 -11359.5 25537.4 -47359.7 -7.41685 
1930 1 23.4888 8.34064 7.5 6.03194 -131274 -147122 -81870.8 16628.2 3192.99 -30523.4 -7.41461 
1931 1 24.1844 7.10499 7.5 6.03194 -143608 -142614 -50833.7 -12289.9 23352.8 -46068.4 -7.41646 
1932 1 23.462 5.88478 7.5 6.03194 -132656 -146383 -79616 16175.7 -1810.88 -33496.6 -7.41475 
1933 1 24.1576 4.64913 7.5 6.03194 -141094 -143573 -57315.6 -13156 20478.5 -44467.6 -7.41607 
1934 1 23.4353 3.42893 7.5 6.03194 -134363 -145564 -76351.3 15608.6 -6707.48 -36242.5 -7.41494 
1935 1 24.1309 2.19328 7.5 6.03192 -138649 -144521 -63409.9 -13952.3 16983.4 -42556.2 -7.41571 
1936 1 23.4085 0.973074 7.5 6.03192 -136365 -144767 -72189 14984.9 -11368.1 -38737.9 -7.41519 
2088 1 25.629 9.5454 7.5 6.03194 -130766 -147918 -79983.2 17160.6 2802.89 -29426.3 -7.41472 
2089 1 26.3246 8.30975 7.5 6.03194 -144908 -143822 -39346 -12026.8 25659.9 -47386.5 -7.41714 
2090 1 25.6022 7.08954 7.5 6.03194 -131993 -147400 -77367.4 16756.1 -2026.72 -32541.2 -7.41487 
2091 1 26.2978 5.85389 7.5 6.03194 -142391 -144639 -46580.1 -12936.3 23375.7 -45892.1 -7.41671 
2092 1 25.5755 4.63369 7.5 6.03194 -133558 -146796 -73726.6 16234 -6785.9 -35445.2 -7.41509 
2093 1 26.2711 3.39804 7.5 6.03194 -139909 -145439 -53570.9 -13778.5 20431.6 -44091.4 -7.41629 
2094 1 25.5487 2.17783 7.5 6.03192 -135420 -146120 -69166 15603.7 -11351.2 -38114.4 -7.41536 
2095 1 26.2443 0.942183 7.5 6.03192 -137551 -146294 -60127 -14597.1 16905.3 -41987.1 -7.4159 
2248 1 27.7425 8.2943 7.5 6.03194 -131402 -148237 -75731.8 17091 -2426.96 -31101.5 -7.41497 
2250 1 27.7157 5.83845 7.5 6.03194 -132819 -147851 -71695.8 16618.8 -7044.46 -34115.4 -7.41521 
2252 1 27.6889 3.38259 7.5 6.03194 -134551 -147380 -66717.9 16036.3 -11507.5 -36911.8 -7.4155 
2254 1 27.6622 0.926737 7.5 6.03192 -136569 -146923 -60922.2 15401.8 -15695.6 -39470.2 -7.41585 
2247 1 28.4648 9.5145 7.5 6.03194 -146192 -145160 -27197 -11571.1 27583.3 -48058.3 -7.41786 
2249 1 28.438 7.05865 7.5 6.03194 -143691 -145841 -35097.3 -12511.1 25899.3 -46690.9 -7.41739 
2251 1 28.4113 4.6028 7.5 6.03194 -141189 -146504 -42900.8 -13386.7 23523.5 -45023.4 -7.41692 
2253 1 28.3845 2.14694 7.5 6.03192 -138753 -147139 -50410.7 -14194.4 20519.7 -43058.1 -7.41647 
2406 1 29.8827 9.49906 7.5 6.03194 -130889 -148892 -74768.4 17176.6 -2970.18 -29248.4 -7.41502 
2407 1 30.5782 8.26341 7.5 6.03194 -144982 -147157 -23015.1 -11899.3 28025.8 -46841.1 -7.4181 
2408 1 29.8559 7.0432 7.5 6.03194 -132150 -148725 -70331.3 16758.3 -7443.37 -32324.5 -7.41529 
2409 1 30.5515 5.80755 7.5 6.03194 -142479 -147692 -31537.8 -12794.8 26230.6 -45327.5 -7.4176 
2410 1 29.8292 4.58735 7.5 6.03194 -133740 -148467 -64930 16228.7 -11799.5 -35200.7 -7.41561 
2411 1 30.5247 3.3517 7.5 6.03194 -140013 -148191 -39910.5 -13626.4 23768.5 -43523.8 -7.4171 
2412 1 29.8024 2.1315 7.5 6.03192 -135615 -148130 -58682.1 15598 -15921.6 -37856.9 -7.41598 
2413 1 30.498 0.895846 7.5 6.03192 -137668 -148732 -47938 -14439.7 20712.3 -41434.7 -7.41662 
2565 1 32.7184 9.46817 7.5 6.03194 -146253 -148566 -10496.2 -11124 29735.6 -46320.8 -7.41885 
2566 1 31.9961 8.24796 7.5 6.03194 -131557 -149418 -69679.8 16649.2 -7942.55 -30140.1 -7.41532 
2567 1 32.6917 7.01231 7.5 6.03194 -143769 -148981 -19635.9 -12025.1 28528.6 -44979.6 -7.4183 
2568 1 31.9694 5.79211 7.5 6.03194 -132997 -149373 -63861.6 16175.7 -12188.3 -33049.1 -7.41567 
2569 1 32.6649 4.55646 7.5 6.03194 -141286 -149360 -28770.4 -12867.2 26622.6 -43357.6 -7.41776 
2570 1 31.9426 3.33625 7.5 6.03194 -134742 -149237 -57167.8 15601.1 -16239.8 -35756.4 -7.41607 
2571 1 32.6382 2.1006 7.5 6.03192 -138870 -149697 -37699.5 -13648 24077.9 -41458.9 -7.41723 
2572 1 31.9159 0.880401 7.5 6.03192 -136763 -149107 -49732.4 14983.2 -19982.8 -38244.5 -7.41651 
2724 1 34.1363 9.45272 7.5 6.03194 -131042 -149926 -69762.3 16292 -8502.68 -27626.6 -7.41532 
2725 1 34.8319 8.21707 7.5 6.03194 -145046 -150345 -7363.49 -11102.7 30398.1 -43957.9 -7.41904 
2726 1 34.1096 6.99687 7.5 6.03194 -132327 -150096 -63546.6 15877 -12634.9 -30521.8 -7.41569 
2727 1 34.8051 5.76122 7.5 6.03194 -142565 -150615 -17150.2 -11940.1 29057.7 -42534.6 -7.41845 
2728 1 34.0828 4.54101 7.5 6.03194 -133929 -150167 -56426.1 15362.6 -16611.7 -33233.5 -7.41611 
2729 1 34.7784 3.30536 7.5 6.03194 -140122 -150836 -26872.7 -12721.4 27040.7 -40845.2 -7.41787 
2730 1 34.0561 2.08516 7.5 6.03192 -135806 -150149 -48528.5 14758.1 -20321 -35744.9 -7.41658 
2731 1 34.7516 0.849509 7.5 6.03192 -137801 -151084 -36332.6 -13494 24416.6 -38894.6 -7.41731 
2883 1 36.9721 9.42183 7.5 6.03194 -146303 -151752 5096.61 -10054.6 31825.5 -42246.7 -7.41978 
2884 1 36.2498 8.20163 7.5 6.03194 -131733 -150633 -63994.1 15334.2 -13100.9 -27681.7 -7.41566 
2885 1 36.9453 6.96598 7.5 6.03194 -143839 -151928 -5224.64 -10872.1 31055.4 -41034.8 -7.41916 
2886 1 36.223 5.74577 7.5 6.03194 -133186 -150911 -56478.7 14882.2 -16999.1 -30351.3 -7.41611 
2887 1 36.9186 4.51012 7.5 6.03194 -141384 -152052 -15623.8 -11639.7 29576.9 -39569.5 -7.41854 
2888 1 36.1963 3.28992 7.5 6.03194 -134932 -151086 -48150.7 14341.9 -20670.5 -32839.8 -7.4166 
2889 1 36.8918 2.05427 7.5 6.03192 -138996 -152118 -25897.4 -12356.2 27448.5 -37854.8 -7.41793 
2890 1 36.1695 0.834064 7.5 6.03192 -136944 -151256 -39151.9 13770.4 -24005.7 -35132.6 -7.41714 
3042 1 38.39 9.40639 7.5 6.03194 -131216 -150980 -65188 14549.5 -13547.9 -24592.8 -7.41559 
3043 1 39.0856 8.17074 7.5 6.03194 -145100 -153263 6817.83 -9693.17 32603.8 -38847.3 -7.41988 
3044 1 38.3632 6.95053 7.5 6.03194 -132514 -151464 -57322.8 14162.6 -17364.1 -27173.2 -7.41606 
3045 1 39.0588 5.71488 7.5 6.03194 -142647 -153306 -4133.45 -10431.1 31669.7 -37615.6 -7.41923 
3046 1 38.3365 4.49468 7.5 6.03194 -134119 -151837 -48608.8 13689.6 -20993.8 -29592.2 -7.41657 
3047 1 39.0321 3.25903 7.5 6.03194 -140236 -153281 -15096.9 -11124.2 30048.8 -36149 -7.41857 
3048 1 38.3097 2.03882 7.5 6.03192 -135987 -152110 -39182.1 13140.7 -24328.9 -31835.7 -7.41713 
3049 1 39.0053 0.803172 7.5 6.03192 -137946 -153269 -25871.4 -11820.1 27809.4 -34451.6 -7.41793 
3201 1 41.2258 9.37549 7.5 6.03194 -146342 -154583 18777.6 -8434.81 33699.4 -35974.6 -7.4206 
3202 1 40.5034 8.15529 7.5 6.03194 -131915 -151824 -58930.5 13207.9 -17668.6 -23766.2 -7.41596 
3203 1 41.199 6.91964 7.5 6.03194 -143904 -154559 7404.91 -9127.09 33309.6 -34979.6 -7.41992 
3204 1 40.4767 5.69944 7.5 6.03194 -133372 -152394 -49888.1 12805.5 -21253.1 -26068.2 -7.4165 
3205 1 41.1723 4.46379 7.5 6.03194 -141480 -154468 -4117.66 -9781.03 32202.6 -33767.2 -7.41923 
3206 1 40.4499 3.24358 7.5 6.03194 -135112 -152847 -40090.3 12329.4 -24584.8 -28216.3 -7.41708 
3207 1 41.1455 2.00793 7.5 6.03192 -139127 -154302 -15584.2 -10396.8 30436.1 -32340.2 -7.41854 
3208 1 40.4232 0.787727 7.5 6.03192 -137108 -153283 -29685.5 11836.3 -27557.6 -30198.1 -7.4177 
3360 1 42.6437 9.36005 7.5 6.03194 -131386 -151988 -61248.7 12025.3 -17873.4 -20203.1 -7.41583 
3361 1 43.3392 8.1244 7.5 6.03194 -145147 -155774 18788.3 -7760.67 34496.1 -31674.4 -7.4206 
3362 1 42.6169 6.90419 7.5 6.03194 -132693 -152750 -51948.8 11694.9 -21410.4 -22339.8 -7.41638 
3363 1 43.3125 5.66854 7.5 6.03194 -142724 -155632 6842.96 -8360.12 33903.2 -30714.9 -7.41989 
3364 1 42.5901 4.44834 7.5 6.03194 -134294 -153388 -41850.2 11294.3 -24736 -24344.8 -7.41698 
3365 1 43.2857 3.21269 7.5 6.03194 -140348 -155407 -5178.91 -8927.73 32615.9 -29560.8 -7.41917 
3366 1 42.5634 1.99249 7.5 6.03192 -136148 -153911 -31095.2 10833.1 -27745.2 -26206.9 -7.41762 
3367 1 43.259 0.756836 7.5 6.03192 -138094 -155179 -17074.6 -9511.33 30701.4 -28214.1 -7.41845 
3519 1 45.4794 9.32916 7.5 6.03194 -146372 -156907 29808.2 -6365.02 35238.1 -27733 -7.42126 
3520 1 44.7571 8.10895 7.5 6.03194 -132078 -152906 -54725.7 10366.8 -21426.4 -18486.3 -7.41622 
3521 1 45.4527 6.8733 7.5 6.03194 -143961 -156730 17580.2 -6895.05 35153.4 -27017.2 -7.42053 
3522 1 44.7304 5.6531 7.5 6.03194 -133537 -153723 -44409.4 10044.3 -24744.4 -20299.8 -7.41683 
3523 1 45.4259 4.41745 7.5 6.03194 -141571 -156471 5144.07 -7399.21 34345.4 -26130.4 -7.41978 
3524 1 44.7036 3.19724 7.5 6.03194 -135266 -154410 -33386.4 9664.69 -27788.7 -21995.3 -7.41748 
3525 1 45.3992 1.96159 7.5 6.03192 -139254 -156121 -7292.79 -7878.03 32871.5 -25073.3 -7.41904 
3526 1 44.6769 0.74139 7.5 6.03192 -137243 -155064 -21809.7 9283.7 -30456.1 -23563 -7.41817 
3678 1 46.8973 9.31371 7.5 6.03194 -131526 -152862 -58127.9 8835.15 -21260.9 -14595.5 -7.41602 
3680 1 46.8706 6.85786 7.5 6.03194 -132838 -153850 -47690.6 8590.93 -24571 -16168.4 -7.41664 
3682 1 46.8438 4.402 7.5 6.03194 -134434 -154701 -36494.8 8294.82 -27650.3 -17649.5 -7.4173 
3684 1 46.8171 1.94615 7.5 6.03192 -136274 -155422 -24687.8 7954.03 -30396.2 -19030 -7.418 
3679 1 47.5929 8.07806 7.5 6.03194 -145187 -157722 27886.4 -5418.67 35965.3 -22720.4 -7.42115 
3681 1 47.5661 5.62221 7.5 6.03194 -142793 -157444 15180 -5845.32 35630.5 -22087.3 -7.42039 
3683 1 47.5394 3.16635 7.5 6.03194 -140450 -157070 2347.27 -6252.5 34596.8 -21310.3 -7.41962 
3685 1 47.5126 0.710499 7.5 6.03192 -138231 -156677 -10408.4 -6689.2 32930.8 -20389.2 -7.41885 
3837 1 49.7331 9.28282 7.5 6.03194 -146396 -158567 37556.5 -3963.08 36360.7 -17892.2 -7.42173 
3838 1 49.0108 8.06262 7.5 6.03194 -132195 -153776 -51590.9 6950.2 -24176.1 -12045.5 -7.41641 
3839 1 49.7063 6.82697 7.5 6.03194 -144011 -158285 24724.3 -4299.8 36486.8 -17491.7 -7.42096 
3840 1 48.984 5.60676 7.5 6.03194 -133653 -154780 -40330.2 6737.23 -27291.4 -13264.5 -7.41708 
3841 1 49.6796 4.37111 7.5 6.03194 -141648 -157909 11642.2 -4622.59 35886.9 -16977 -7.42017 
3842 1 48.9573 3.15091 7.5 6.03194 -135374 -155641 -28398.9 6484.92 -30117.3 -14411.5 -7.41778 
3843 1 49.6528 1.91526 7.5 6.03192 -139362 -157432 -1481.77 -4932.63 34618.1 -16346.9 -7.41939 
3844 1 48.9305 0.695053 7.5 6.03192 -137337 -156456 -15953.5 6246.62 -32552.3 -15479.1 -7.41852 
3996 1 51.151 9.26737 7.5 6.03194 -131605 -153513 -55983 5144.37 -23520.2 -8031 -7.41615 
3997 1 51.8466 8.03172 7.5 6.03194 -145219 -158958 33578.2 -2793.87 36938.3 -12424.4 -7.42149 
3998 1 51.1242 6.81152 7.5 6.03194 -132923 -154655 -44777.4 5011.32 -26673.5 -8941.65 -7.41681 
3999 1 51.8198 5.57587 7.5 6.03194 -142848 -158595 20392.7 -3020.8 36760.3 -12147.1 -7.4207 
4000 1 51.0975 4.35567 7.5 6.03194 -134516 -155650 -32840.1 4846.8 -29581.8 -9809.63 -7.41752 
4001 1 51.793 3.12002 7.5 6.03194 -140531 -158127 7048.56 -3239.93 35882.1 -11786.3 -7.4199 
4002 1 51.0707 1.89981 7.5 6.03192 -136347 -156505 -20321.5 4654.34 -32144.2 -10629.1 -7.41827 
4003 1 51.7663 0.664162 7.5 6.03192 -138340 -157630 -6250.66 -3501.43 34370.6 -11340 -7.4191 
4155 1 53.9868 9.23648 7.5 6.03194 -146416 -159429 41554.3 -1356.34 37016.4 -6983.41 -7.42197 
4156 1 53.2644 8.01628 7.5 6.03194 -132239 -154343 -49698 3142.65 -25759.2 -4785.24 -7.41652 
4157 1 53.96 6.78063 7.5 6.03194 -144047 -159093 28408.3 -1477.85 37243.3 -6912.84 -7.42118 
4158 1 53.2377 5.56042 7.5 6.03194 -133701 -155455 -37883.5 3060.95 -28752.8 -5331.31 -7.41722 
4159 1 53.9333 4.32477 7.5 6.03194 -141704 -158656 14989.9 -1597.32 36744.3 -6793.15 -7.42038 
4160 1 53.2109 3.10457 7.5 6.03194 -135420 -156416 -25418.7 2958.49 -31446.4 -5859.84 -7.41796 
4161 1 53.9065 1.86892 7.5 6.03192 -139440 -158109 1507.05 -1715.88 35577.1 -6621.47 -7.41957 
4162 1 53.1842 0.648716 7.5 6.03192 -137376 -157324 -12462 2886.16 -33739.1 -6366.11 -7.41873 
4314 1 55.4046 9.22104 7.5 6.03194 -131603 -153867 -54932.9 1161.36 -24514.8 -896.891 -7.41622 
4315 1 56.1002 7.98539 7.5 6.03194 -145242 -159374 35513.5 -22.1747 37368.5 -1381.07 -7.42161 
4316 1 55.3779 6.76518 7.5 6.03194 -132929 -155077 -43379.8 1155.02 -27596 -1082.87 -7.4169 
4317 1 56.0735 5.52953 7.5 6.03194 -142884 -158980 22162.4 -33.5469 37233 -1469.2 -7.42081 
4318 1 55.3511 4.30933 7.5 6.03194 -134525 -156132 -31105.3 1137.78 -30424.2 -1281.39 -7.41763 
4319 1 56.0467 3.07368 7.5 6.03194 -140580 -158476 8640.41 -48.7524 36399.3 -1540.73 -7.42 
4320 1 55.3244 1.85347 7.5 6.03192 -136356 -157045 -18261.6 1110.49 -32898.5 -1489.76 -7.41839 
4321 1 56.02 0.617825 7.5 6.03192 -138404 -157939 -4849.43 -117.655 34934.5 -1591.7 -7.41919 
4473 1 58.2404 9.19015 7.5 6.03194 -146430 -159418 41551.6 1323.05 37173 4332.41 -7.42197 
4474 1 57.5181 7.96994 7.5 6.03194 -132198 -154542 -49161 -836.515 -26081.4 2835.36 -7.41656 
4475 1 58.2137 6.73429 7.5 6.03194 -144067 -159078 28403.1 1425.61 37381.9 4072.83 -7.42118 
4476 1 57.4914 5.51409 7.5 6.03194 -133668 -155672 -37220.9 -777.947 -29046.5 3000.13 -7.41726 
4477 1 58.1869 4.27844 7.5 6.03194 -141731 -158635 14980.7 1519.08 36867.8 3793.77 -7.42038 
4478 1 57.4646 3.05823 7.5 6.03194 -135392 -156651 -24632.2 -720.4 -31706.3 3124.51 -7.41801 
4479 1 58.1602 1.82258 7.5 6.03192 -139474 -158081 1491.85 1602.56 35689.1 3499.6 -7.41957 
4480 1 57.4378 0.602379 7.5 6.03192 -137353 -157574 -11554.7 -616.805 -33959.8 3210.23 -7.41879 
4632 1 59.6583 9.1747 7.5 6.03194 -131514 -153886 -55045.4 -2875.96 -24186.1 6334.85 -7.41621 
4633 1 60.3539 7.93905 7.5 6.03194 -145252 -158932 33571.1 2757.51 37228.1 9714.98 -7.42149 
4634 1 59.6316 6.71885 7.5 6.03194 -132848 -155066 -43589 -2753.47 -27287.8 6888.36 -7.41689 
4635 1 60.3271 5.4832 7.5 6.03194 -142893 -158560 20379.5 2963.86 37017.1 9266.27 -7.4207 
4636 1 59.6048 4.26299 7.5 6.03194 -134456 -156095 -31403.7 -2621.39 -30134.8 7373.82 -7.41761 
4637 1 60.3004 3.02734 7.5 6.03194 -140591 -158079 7025.9 3155.39 36112.4 8766.8 -7.4199 
4638 1 59.5781 1.80714 7.5 6.03192 -136298 -156984 -18641.9 -2481.36 -32625.2 7790.41 -7.41837 
4639 1 60.2736 0.571488 7.5 6.03192 -138416 -157568 -6287.53 3281.84 34581.8 8222.02 -7.4191 
4791 1 62.4941 9.14381 7.5 6.03194 -146436 -158534 37550 3943.24 36810.3 15339.5 -7.42173 
4792 1 61.7718 7.92361 7.5 6.03194 -132072 -154351 -50022.5 -4749.59 -25130.5 10302.1 -7.4165 
4793 1 62.4673 6.68796 7.5 6.03194 -144066 -158240 24711.2 4265.18 36884.1 14759.7 -7.42096 
4794 1 61.745 5.46775 7.5 6.03194 -133553 -155408 -38391.8 -4555.82 -28163.2 11168.5 -7.41719 
4795 1 62.4406 4.2321 7.5 6.03194 -141724 -157848 11618.5 4566.99 36240 14094.4 -7.42017 
4796 1 61.7183 3.0119 7.5 6.03194 -135294 -156319 -26095.9 -4344.57 -30891.3 11939.2 -7.41792 
4797 1 62.4138 1.77625 7.5 6.03192 -139461 -157350 -1521.94 4846.98 34937.4 13349.4 -7.41939 
4798 1 61.6915 0.556042 7.5 6.03192 -137271 -157182 -13294.3 -4070.66 -33212.5 12612.9 -7.41868 
4950 1 63.912 9.12836 7.5 6.03194 -131346 -153569 -56329 -6723.44 -22566.4 13179.3 -7.41613 
4951 1 64.6075 7.89271 7.5 6.03194 -145246 -157672 27876.4 5405.97 36507 20160.4 -7.42115 
4952 1 63.8852 6.67251 7.5 6.03194 -132691 -154628 -45404.4 -6485 -25779.1 14436.8 -7.41678 
4953 1 64.5808 5.43686 7.5 6.03194 -142875 -157374 15160 5818.52 36108.8 19368.8 -7.42038 
4954 1 63.8585 4.21666 7.5 6.03194 -134316 -155544 -33726.2 -6216.61 -28741.7 15576.4 -7.41747 
4955 1 64.554 2.98101 7.5 6.03194 -140560 -156977 2311.12 6204.6 35023.7 18464.6 -7.41961 
4956 1 63.8317 1.7608 7.5 6.03192 -136180 -156330 -21445.7 -5923.14 -31350.4 16593.7 -7.4182 
4957 1 64.5273 0.525151 7.5 6.03192 -138373 -156556 -10469.3 6513.83 33320.9 17454.4 -7.41885 
5109 1 66.7478 9.09747 7.5 6.03194 -146427 -156857 29803.1 6372.53 35924.2 25361.9 -7.42126 
5110 1 66.0254 7.87727 7.5 6.03194 -131879 -153796 -52247.7 -8366.94 -22980 17128.4 -7.41637 
5111 1 66.721 6.64162 7.5 6.03194 -144042 -156659 17567.3 6895.15 35756.4 24482.8 -7.42053 
5112 1 65.9987 5.42141 7.5 6.03194 -133376 -154696 -41337 -8058.37 -26169.2 18641.8 -7.41701 
5113 1 66.6942 4.18576 7.5 6.03194 -141682 -156373 5117.39 7386.75 34878.2 23460.2 -7.41978 
5114 1 65.9719 2.96556 7.5 6.03194 -135138 -155462 -29728 -7713.27 -29060.4 20012.5 -7.4177 
5115 1 66.6675 1.72991 7.5 6.03192 -139401 -155992 -7341.56 7845.03 33350.2 22300.8 -7.41904 
5116 1 65.9452 0.509706 7.5 6.03192 -137143 -156192 -17578.6 -7289.2 -31549 21235.6 -7.41843 
5268 1 68.1656 9.08203 7.5 6.03194 -131125 -152957 -58732.5 -10158.8 -19774 19214.6 -7.41598 
5269 1 68.8612 7.84638 7.5 6.03194 -145218 -155706 18784.3 7786.2 35220.6 29337.9 -7.4206 
5270 1 68.1389 6.62617 7.5 6.03194 -132483 -153815 -48734 -9828.86 -23176.6 21097.6 -7.41657 
5271 1 68.8345 5.39052 7.5 6.03194 -142828 -155536 6829.24 8380.91 34537.8 28236.6 -7.41988 
5272 1 68.1121 4.17032 7.5 6.03194 -134127 -154546 -37943.4 -9449.5 -26339.8 22822.3 -7.41721 
5273 1 68.8077 2.93467 7.5 6.03194 -140490 -155277 -5210.01 8938.29 33177.6 26970.2 -7.41916 
5274 1 68.0854 1.71446 7.5 6.03192 -136018 -155159 -26509 -9027.89 -29157.3 24380.9 -7.41789 
5275 1 68.781 0.478814 7.5 6.03192 -138281 -155008 -17134.1 9406.11 31210.2 25546.7 -7.41845 
5427 1 71.0014 9.05114 7.5 6.03194 -146396 -154525 18783.1 8481.98 34539 33845.2 -7.4206 
5428 1 70.2791 7.83093 7.5 6.03194 -131648 -152943 -55730 -11488.3 -19776.5 22927.5 -7.41616 
5429 1 70.9747 6.59528 7.5 6.03194 -143992 -154472 7405.79 9177.44 34040 32704.2 -7.41992 
5430 1 70.2523 5.37508 7.5 6.03194 -133161 -153618 -45898.2 -11093.5 -23196.1 24997.9 -7.41674 
5431 1 70.9479 4.13943 7.5 6.03194 -141607 -154345 -4127.71 9830.54 32840.3 31371.8 -7.41923 
5432 1 70.2256 2.91922 7.5 6.03194 -134949 -154173 -35321.9 -10644.6 -26329.8 26888.9 -7.41737 
5433 1 70.9212 1.68357 7.5 6.03192 -139301 -154137 -15614.6 10438.4 31002 29856.2 -7.41854 
5434 1 70.1988 0.463369 7.5 6.03192 -136986 -154707 -24156.2 -10101 -29070.5 28592.2 -7.41803 
5586 1 72.4193 9.03569 7.5 6.03194 -130885 -152119 -62150.2 -12998.2 -15991.6 24135.4 -7.41577 
5587 1 73.1149 7.80004 7.5 6.03194 -145164 -153192 6833.26 9769.11 33422 36782.3 -7.41989 
5588 1 72.3926 6.57984 7.5 6.03194 -132252 -152717 -53408.3 -12607.4 -19646 26535.2 -7.41629 
5589 1 73.0881 5.34419 7.5 6.03194 -142750 -153198 -4121.4 10514.5 32375.3 35424.3 -7.41923 
5590 1 72.3658 4.12398 7.5 6.03194 -133917 -153203 -43825.3 -12149.1 -23077.8 28747.1 -7.41686 
5591 1 73.0614 2.88833 7.5 6.03194 -140386 -153131 -15095.7 11211.2 30662.4 33859.2 -7.41857 
5592 1 72.339 1.66813 7.5 6.03192 -135837 -153585 -33545.3 -11632.4 -26177.2 30759.8 -7.41747 
5593 1 73.0346 0.432477 7.5 6.03192 -138152 -153068 -25892.8 11805.8 28355.5 32096.2 -7.41793 
5746 1 74.5328 7.78459 7.5 6.03194 -131413 -151881 -60303.7 -13955.1 -15715.4 27447.7 -7.41588 
5748 1 74.506 5.32874 7.5 6.03194 -132940 -152279 -51839.2 -13507 -19421.6 29962 -7.41638 
5750 1 74.4793 2.87289 7.5 6.03194 -134751 -152572 -42574.8 -12988.4 -22859.5 32270.1 -7.41693 
5752 1 74.4525 0.417032 7.5 6.03192 -136819 -152860 -32661.6 -12359.6 -25919 34360.3 -7.41752 
5745 1 75.2551 9.0048 7.5 6.03194 -146337 -151704 5124.8 10151.6 32721.8 40398.4 -7.41978 
5747 1 75.2283 6.54894 7.5 6.03194 -143911 -151844 -5191.69 10985 31819.9 39054.4 -7.41917 
5749 1 75.2016 4.09309 7.5 6.03194 -141502 -151925 -15591.2 11765.2 30228.7 37481.6 -7.41854 
5751 1 75.1748 1.63724 7.5 6.03192 -139169 -151940 -25873.8 12488.6 28012 35688.9 -7.41793 
5904 1 76.673 8.98935 7.5 6.03194 -130660 -151138 -66432.7 -15106.1 -11438 27762.9 -7.41552 
5905 1 77.3685 7.7537 7.5 6.03194 -145079 -150294 -7313.15 11238.3 31211.6 42195.1 -7.41904 
5906 1 76.6462 6.5335 7.5 6.03194 -132032 -151434 -59199.1 -14685.3 -15389.5 30555 -7.41595 
5907 1 77.3418 5.29785 7.5 6.03194 -142641 -150523 -17089.1 12097.6 29737.9 40655.9 -7.41845 
5908 1 76.6195 4.07764 7.5 6.03194 -133713 -151630 -51069.2 -14182.2 -19140.6 33138.3 -7.41643 
5909 1 77.315 2.84199 7.5 6.03194 -140253 -150693 -26806.6 12897.6 27610.8 38876.9 -7.41787 
5910 1 76.5927 1.62179 7.5 6.03192 -135658 -151738 -42181 -13604.9 -22577.9 35497.6 -7.41696 
5911 1 77.2883 0.386141 7.5 6.03192 -137994 -150882 -36272 13584.6 24904.7 36867.6 -7.41731 
6063 1 79.5087 8.95846 7.5 6.03194 -146244 -148556 -10434.4 11275.9 30588.1 44783.9 -7.41885 
6064 1 78.7864 7.73826 7.5 6.03194 -131207 -150696 -65759.4 -15654.9 -11017.2 30558.4 -7.41556 
6065 1 79.482 6.50261 7.5 6.03194 -143797 -148932 -19552.3 12208 29227.6 43318.7 -7.41831 
6066 1 78.7597 5.2824 7.5 6.03194 -132740 -150782 -58870 -15183.8 -15050.7 33391.4 -7.41596 
6067 1 79.4552 4.04675 7.5 6.03194 -141365 -149263 -28667.4 13078.4 27189.2 41596 -7.41776 
6068 1 78.7329 2.82655 7.5 6.03194 -134568 -150777 -51119.6 -14628 -18839.3 35998.4 -7.41643 
6069 1 79.4285 1.5909 7.5 6.03192 -139011 -149542 -37583.2 13882.3 24539.6 39624.3 -7.41723 
6070 1 78.7062 0.370695 7.5 6.03192 -136661 -150778 -42653.7 -13948.3 -22269 38364.1 -7.41693 
6222 1 80.9266 8.94302 7.5 6.03194 -130480 -150085 -71395.7 -16391.3 -6346.47 30012.1 -7.41522 
6223 1 81.6222 7.70737 7.5 6.03194 -144956 -147162 -22918.3 12098.6 28734.6 45409.1 -7.41811 
6224 1 80.8999 6.48716 7.5 6.03194 -131847 -150052 -65837.7 -15967.4 -10626.7 33064.4 -7.41555 
6225 1 81.5954 5.25151 7.5 6.03194 -142500 -147652 -31407.2 13032.5 26784.6 43784.4 -7.4176 
6226 1 80.8731 4.03131 7.5 6.03194 -133536 -149929 -59324.8 -15448.6 -14734.9 35892.8 -7.41594 
6227 1 81.5687 2.79566 7.5 6.03194 -140092 -148097 -39748.2 13899.5 24193.3 41894.1 -7.41711 
6228 1 80.8464 1.57545 7.5 6.03192 -135498 -149728 -51987 -14842.9 -18553.6 38478 -7.41637 
6229 1 81.5419 0.339804 7.5 6.03192 -137817 -148573 -47751.5 14644.1 21039.3 39747.5 -7.41663 
6381 1 83.7624 8.91213 7.5 6.03194 -146110 -145225 -27099 11777 28294 46868.3 -7.41786 
6382 1 83.0401 7.69192 7.5 6.03194 -131050 -149457 -71854 -16511.1 -5911.62 32197.3 -7.4152 
6383 1 83.7357 6.45627 7.5 6.03194 -143647 -145867 -34952.4 12765 26432.8 45380.9 -7.41739 
6384 1 83.0133 5.23607 7.5 6.03194 -132579 -149208 -66663.1 -16043 -10302.5 35216.2 -7.4155 
6385 1 83.7089 4.00042 7.5 6.03194 -141198 -146480 -42706.3 13686.9 23902.9 43614.3 -7.41693 