ITEM: TIMESTEP
174
ITEM: NUMBER OF ATOMS
16856
ITEM: BOX BOUNDS pp pp pp
0.0000000000000000e+00 1.1273548200000000e+02
0.0000000000000000e+00 1.9526358200000001e+02
0.0000000000000000e+00 1.8399999999999999e+01
ITEM: ATOMS id type x y z c_csym c_2[1] c_2[2] c_2[3] c_2[4] c_2[5] c_2[6] c_3 
180 1 0.880293 8.57922 7.41055 6.01363 -169716 -141361 -2982.2 -24904.6 15739.4 -3422.23 -7.41525 
181 1 0.148189 7.36523 7.40666 6.0214 -148923 -163149 2151.15 -18132.5 20352.2 -1319.3 -7.41545 
182 1 0.832901 6.12368 7.4033 6.01853 -166149 -145724 -1033.54 -13554.4 12710.9 -3079.59 -7.41511 
183 1 0.099898 4.91017 7.40027 6.02414 -151024 -161283 722.175 -8374.89 13551.2 -898.99 -7.41511 
184 1 0.783912 3.66829 7.398 6.02274 -162249 -149944 -137.561 -5375.18 8423.29 -2655.48 -7.41497 
185 1 0.0502887 2.45511 7.39615 6.02707 -153479 -158872 165.209 -2102.94 6636.83 -441.32 -7.41492 
186 1 0.733905 1.21303 7.3952 6.0276 -158115 -154105 82.8386 -1128.29 2980.85 -2134.08 -7.41488 
187 1 -4.38169e-07 -1.48783e-06 7.39472 6.02981 -156126 -156097 80.3213 -26.5088 -0.0418033 -0.294266 -7.41486 
340 1 2.29778 8.55041 7.41132 6.01582 -160270 -151520 2601.24 -20146.2 23055.8 -4257.78 -7.41567 
341 1 2.98251 7.3088 7.40821 6.01622 -178432 -133190 -927.919 -18289.6 14098.5 -9942.83 -7.41529 
342 1 2.25037 6.09477 7.40416 6.01922 -158827 -153218 820.597 -8746.17 16396 -4739.64 -7.41527 
343 1 2.93442 4.85285 7.40202 6.01997 -171310 -140796 142.176 -8507.52 10550.8 -9260.84 -7.41514 
344 1 2.20137 3.63932 7.39892 6.02244 -157630 -154633 77.0915 -582.333 9470.79 -5090.73 -7.41502 
345 1 2.88502 2.39724 7.39801 6.02454 -163693 -148513 334.979 -2302.62 5783.6 -8375.48 -7.415 
346 1 2.15137 1.18404 7.39615 6.02536 -156453 -155633 6.48795 3564.15 2634.1 -5343.52 -7.41491 
499 1 5.13098 8.49507 7.415 6.0132 -192954 -118216 300.034 -20756.8 15290.5 -16652.9 -7.41563 
500 1 4.39994 7.28037 7.41018 6.01194 -169664 -141937 -19.4659 -7051.16 18481.6 -7579.13 -7.41545 
501 1 5.08404 6.03842 7.40826 6.01742 -183040 -128853 1327.12 -9324.92 12566.3 -15819 -7.41545 
502 1 4.35185 4.82435 7.40416 6.01684 -165092 -146883 -712.436 2995.37 11672.6 -8757.89 -7.41516 
503 1 5.03555 3.58226 7.40332 6.02169 -172403 -139758 1275.16 -1243.93 8603.52 -14692.5 -7.41526 
504 1 4.30246 2.36869 7.40026 6.02058 -160423 -151636 -526.202 9216.41 4802.14 -9758.34 -7.41503 
505 1 4.98608 1.12662 7.40071 6.02237 -161273 -150816 543.687 2749.93 3493.93 -13252.8 -7.41512 
657 1 7.27811 9.68295 7.42315 6.00689 -208845 -101859 2900.37 -21267.8 16244.7 -22918 -7.41611 
658 1 6.54835 8.46745 7.41784 6.00418 -182742 -128221 -2117.02 -3776.29 19787.2 -9414.98 -7.41561 
659 1 7.23255 7.22548 7.4162 6.0122 -196657 -114797 3721.86 -8051.8 14393.2 -22014.5 -7.41591 
660 1 6.50143 6.01073 7.41136 6.01009 -175094 -136197 -2577.66 8352.78 13181.4 -11357.7 -7.41532 
661 1 7.18523 4.76865 7.41063 6.018 -183599 -128431 3258.13 1914.42 11320.6 -20746.1 -7.41568 
662 1 6.45296 3.55454 7.40662 6.0155 -167340 -144233 -1939.79 16673.9 6397.82 -13079.6 -7.41517 
663 1 7.13665 2.31248 7.40704 6.01943 -169647 -142374 1872.17 7911.95 7028.53 -19095.2 -7.41545 
664 1 6.40353 1.09886 7.40414 6.0182 -159501 -152291 -611.684 20701.9 -206.035 -14583.2 -7.41516 
816 1 8.69543 9.6564 7.42661 5.99632 -197119 -112571 -5648.14 799.789 20361.6 -10352.4 -7.4157 
817 1 9.37977 8.41443 7.42524 6.00504 -211602 -99534.9 7497.36 -5115.06 15982.6 -27606.6 -7.4165 
818 1 8.64989 7.19888 7.41994 6.00296 -187016 -123268 -5765.94 14892.2 14016.9 -12942.9 -7.41543 
819 1 9.33383 5.95682 7.4193 6.01192 -196506 -115233 6523.71 6762.13 13850.9 -26276 -7.41623 
820 1 8.60259 4.74203 7.41464 6.01025 -176701 -134191 -4551.21 25432.7 7399.07 -15297.5 -7.41531 
821 1 9.28641 3.50002 7.41501 6.01666 -180452 -131600 4374.69 14854.5 10462.9 -24512.9 -7.41593 
822 1 8.55407 2.28585 7.41128 6.01482 -166024 -145260 -2389.07 31683.6 838.834 -17407.5 -7.41531 
823 1 9.23806 1.04403 7.4128 6.01164 -163486 -148280 1498.53 18697.5 5898.09 -22312 -7.41566 
975 1 11.5256 9.60558 7.43487 5.99764 -226874 -83601.5 12675.8 -756.302 17295.9 -32413.8 -7.41722 
976 1 10.7971 8.38913 7.4293 5.99594 -200103 -108574 -10372.3 22363.2 14259.6 -13645 -7.41548 
977 1 11.4812 7.14714 7.42872 6.00534 -210557 -100859 11169.5 12940.5 16127 -31091.3 -7.41691 
978 1 10.7512 5.93154 7.42366 6.00378 -187691 -121968 -8535.67 35023.3 7860.27 -16511.7 -7.41539 
979 1 11.4352 4.6896 7.42393 6.01204 -192902 -119059 8228.16 23154.3 13697.3 -29297.1 -7.41654 
980 1 10.7038 3.47475 7.41966 6.01053 -174858 -135661 -5475.99 43548.4 1408.75 -19126.7 -7.41543 
981 1 11.3879 2.23301 7.42098 6.00786 -174008 -137753 4274.5 29204.4 9998.83 -27037.3 -7.41617 
982 1 10.6555 1.01877 7.4177 6.01242 -161532 -149380 -1673.08 47511.7 -4732.12 -21494.4 -7.4156 
1134 1 12.9428 9.58172 7.43894 5.98927 -213684 -93282.6 -16337.8 30115.3 14018.2 -13623.8 -7.41545 
1135 1 13.6272 8.33982 7.43835 5.99864 -224686 -86152.9 17143.1 20081.9 18083.6 -35050.4 -7.41769 
1136 1 12.8985 7.12335 7.43307 5.99755 -199739 -108373 -13912.1 44978.2 7879.08 -16875.3 -7.4154 
1137 1 13.5827 5.88152 7.43319 6.00595 -206106 -105554 13457.9 32335.2 16638.5 -33297.9 -7.41727 
1138 1 12.8525 4.66589 7.42861 6.00643 -185251 -124144 -9976.71 55836.9 1582.6 -19878.7 -7.41549 
1139 1 13.5368 3.42424 7.42969 6.00467 -186069 -125705 8467.99 40648.5 13866.5 -31060.6 -7.4168 
1140 1 12.8053 2.20934 7.42601 6.00951 -170108 -140086 -4997.39 62147.6 -4526.16 -22633.1 -7.41571 
1141 1 13.49 0.968007 7.42815 5.99878 -164991 -146249 2685.3 44381.8 9850.77 -28360.1 -7.41634 
1293 1 15.7718 9.53501 7.44774 5.99214 -238309 -71917.6 24249.6 27582.8 19652.5 -38050.2 -7.41854 
1294 1 15.0444 8.31763 7.44238 5.99171 -211988 -94369.7 -20547.9 54732.2 7569.78 -16548.3 -7.41532 
1295 1 15.729 7.07594 7.44228 5.99985 -219369 -91860.4 19941.2 41960.1 19193.3 -36404.9 -7.41807 
1296 1 15 5.85947 7.43756 6.00085 -196381 -111504 -15836.3 67948.3 1468.13 -19828.2 -7.41546 
1297 1 15.6846 4.61795 7.43834 6.00018 -198768 -112853 14034.9 52565 17383.8 -34261.6 -7.41753 
1298 1 14.9542 3.40229 7.43448 6.00737 -180020 -129115 -9770.8 76713.4 -4569.28 -22860.3 -7.41573 
1299 1 15.6391 2.16108 7.43629 5.99495 -176716 -134467 7028.75 58708.2 14226.9 -31650.6 -7.41697 
1300 1 14.9075 0.946106 7.43335 6.00267 -163048 -146902 -2908.19 80553.4 -10176.4 -25665.2 -7.41612 
1452 1 17.189 9.51446 7.4512 5.98654 -223700 -80376.9 -28183.3 63987.1 7038.26 -15679.4 -7.41517 
1453 1 17.874 8.27296 7.4508 5.99404 -232245 -78651.1 27425.6 51484 21275.7 -38544.9 -7.41893 
1454 1 17.1462 7.05561 7.44606 5.9957 -207592 -98509.1 -22857.9 79379.3 1171.39 -19135.4 -7.41535 
1455 1 17.8312 5.81427 7.44648 5.99565 -211533 -99917.7 20786.7 64379.7 20438.2 -36557.3 -7.41834 
1456 1 17.1019 4.59779 7.44258 6.00486 -190551 -117213 -15872.1 90622 -4754.02 -22348.3 -7.41567 
1457 1 17.7871 3.35672 7.44402 5.99188 -189276 -122005 12744.4 72999.2 18187.8 -34101 -7.41768 
1458 1 17.0565 2.14102 7.44104 5.99945 -172619 -136176 -7773.47 97001.5 -10385.4 -25329.5 -7.41611 
1459 1 17.7422 0.900348 7.44351 5.98558 -165957 -144543 3863.53 76651 14635.4 -31216.2 -7.41703 
1611 1 20.0177 9.47257 7.45852 5.98875 -243632 -66482.2 35570.6 60495.3 22826.8 -39696.5 -7.41982 
1612 1 19.2912 8.25433 7.45381 5.99126 -218497 -85813.8 -30734.6 89738.2 779.004 -17949 -7.41516 
1613 1 19.9766 7.01321 7.45382 5.99167 -223563 -87537.1 28424.2 75611 22938.6 -37907.9 -7.41918 
1614 1 19.2484 5.79589 7.44995 6.00086 -201182 -105082 -23050.9 103403 -4989.27 -21257.6 -7.41552 
1615 1 19.934 4.55501 7.45098 5.98764 -201663 -109640 19586.5 86655.1 21616.5 -35658.7 -7.41846 
1616 1 19.2044 3.33853 7.44806 5.99694 -183001 -124797 -13944.4 112332 -10602.8 -24332.2 -7.41601 
1617 1 19.8904 2.09801 7.45018 5.98221 -178239 -132328 9608.35 92897.1 18893.7 -32987.5 -7.4177 
1618 1 19.1596 0.882242 7.44816 5.98948 -164148 -144732 -4023.96 116042 -15696 -27202.7 -7.41661 
1770 1 21.4348 9.4556 7.46066 5.98761 -228035 -74051.9 -39096.4 98599.3 356.788 -16409.5 -7.41491 
1771 1 22.1207 8.21474 7.46025 5.98804 -234270 -76260.5 36590.5 85755.3 24829 -38330.6 -7.42003 
1772 1 21.3938 6.99658 7.45641 5.9962 -211133 -93340.1 -30969 114575 -5209.58 -19736.3 -7.4153 
1773 1 22.0797 5.75593 7.457 5.98349 -213173 -97816.5 27225.1 99198.1 24425.9 -36320.6 -7.41926 
1774 1 21.3513 4.53864 7.45416 5.99514 -193155 -113265 -21128.7 126065 -10754.9 -22835.8 -7.41582 
1775 1 22.0375 3.2983 7.45589 5.97973 -190504 -120198 16436.8 108052 22567.2 -33902.7 -7.41843 
1776 1 21.3077 2.08179 7.45404 5.98651 -174156 -133510 -10171.5 132424 -15928.4 -25721.3 -7.41647 
1777 1 21.9945 0.841879 7.4568 5.97338 -166617 -143047 4808.85 111652 19398.9 -31121.5 -7.4176 
1929 1 24.2636 9.41872 7.46576 5.98394 -243128 -66471 44921.6 94445.8 26098.5 -37903.5 -7.42087 
1930 1 23.5379 8.19975 7.46193 5.99208 -219888 -82570.4 -39254 123816 -5376.66 -17922.9 -7.41502 
1931 1 24.2243 6.95938 7.46208 5.98013 -223373 -87089.6 35299.9 110199 26572.7 -36139.5 -7.42007 
1932 1 23.497 5.74129 7.45928 5.99221 -202480 -102190 -28972.8 137799 -10800.7 -20986.6 -7.41557 
1933 1 24.1836 4.50118 7.4606 5.97612 -201857 -108730 23999 121569 25584.1 -33995.1 -7.41919 
1934 1 23.4548 3.28391 7.45887 5.98436 -184151 -122342 -17290.4 146805 -16000.4 -23836.2 -7.41625 
1935 1 24.1419 2.04416 7.46132 5.97084 -178791 -130994 11584.8 127875 23202.3 -31504.8 -7.41828 
1936 1 23.4119 0.827607 7.46051 5.97663 -164957 -142715 -4823.31 150360 -20618.7 -26498.1 -7.41703 
2088 1 25.6808 9.40527 7.46661 5.98877 -226924 -73088.3 -47552.9 130967 -5473.28 -15945.4 -7.41472 
2089 1 26.3678 8.1652 7.46635 5.97756 -231804 -77832.7 43467.8 119306 28059.7 -35220.1 -7.42086 
2090 1 25.6415 6.94635 7.4635 5.98934 -210631 -92100.4 -37114.3 147246 -10726.4 -18916.5 -7.41527 
2091 1 26.3287 5.7065 7.4644 5.97275 -211740 -98354.8 31942.4 133115 27916.7 -33346.2 -7.41994 
2092 1 25.6009 4.48848 7.46271 5.98297 -193261 -111718 -25021.4 158852 -15892.9 -21687.7 -7.41596 
2093 1 26.2883 3.24893 7.4648 5.96917 -190060 -119663 19054.9 142096 26341.3 -31154.4 -7.41898 
2094 1 25.5593 2.03166 7.46417 5.97429 -174817 -131720 -11868.9 165174 -20632.8 -24264.9 -7.41676 
2095 1 26.2472 0.792527 7.46723 5.9631 -167125 -141490 5372.67 145683 23503.3 -28682.6 -7.41801 
2248 1 27.7849 8.15365 7.46702 5.98716 -217196 -83460.6 -45229.6 154252 -10536.3 -16743.1 -7.41495 
2250 1 27.7458 5.69535 7.46573 5.98154 -201021 -102164 -33019.8 168377 -15612.1 -19395.8 -7.41563 
2252 1 27.7056 3.23807 7.46684 5.97277 -183801 -121402 -19501.4 177392 -20410.5 -21864.1 -7.41644 
2254 1 27.6646 0.781815 7.46997 5.96518 -165624 -140832 -5256.08 180838 -24592.9 -24162 -7.41735 
2247 1 28.5102 9.37321 7.46999 5.97577 -238266 -70443.4 51441.8 126340 28928.9 -33702.7 -7.42161 
2249 1 28.4726 6.91408 7.46753 5.97026 -220073 -89461.9 39950.1 142455 29579.7 -32074.8 -7.42068 
2251 1 28.4337 4.45604 7.46745 5.96634 -200131 -109533 26879.4 154017 28803.5 -30170 -7.41968 
2253 1 28.3939 1.9991 7.46963 5.96133 -178626 -130204 12772.9 160367 26696.2 -28012.6 -7.41866 
2406 1 29.9273 9.36297 7.47005 5.98565 -221932 -76522.9 -53063.5 158856 -10245.3 -14566.3 -7.41462 
2407 1 30.6156 8.12373 7.47022 5.96857 -226391 -82443.2 47770 149425 30621.9 -30320.9 -7.42139 
2408 1 29.8898 6.90433 7.46821 5.97935 -207385 -94081.7 -40990.5 175247 -15178.8 -17062.7 -7.41528 
2409 1 30.5781 5.66528 7.46956 5.96389 -208420 -100928 34768.6 163427 30612.8 -28674 -7.42038 
2410 1 29.8509 4.44665 7.46879 5.97198 -191692 -112225 -27394.5 186882 -19972.9 -19398.1 -7.41608 
2411 1 30.5396 3.20789 7.47127 5.95957 -188842 -120192 20517.4 172488 29244.6 -26811.3 -7.41932 
2412 1 29.8112 1.98995 7.47163 5.96361 -174843 -130721 -12828 193154 -24306.2 -21567.6 -7.41699 
2413 1 30.5002 0.751545 7.47492 5.95446 -167819 -139931 5542.81 176064 26694 -24759.5 -7.41827 
2565 1 32.7577 9.3352 7.47272 5.96765 -230362 -77336.3 55225.7 154016 31112.8 -28224.4 -7.42206 
2566 1 32.0328 8.1152 7.47041 5.97789 -211828 -87652.2 -48710.1 179513 -14619.9 -14771.6 -7.41493 
2567 1 32.7216 6.87645 7.47142 5.96229 -214642 -94040.8 42501.6 170287 31818.6 -26796.2 -7.42105 
2568 1 31.9953 5.6572 7.47035 5.97182 -197865 -104469 -35280.2 193642 -19351 -16949.4 -7.4157 
2569 1 32.6843 4.41866 7.47248 5.95823 -197233 -111712 28342.8 181938 31176.5 -25196 -7.41998 
2570 1 31.9568 3.20011 7.47265 5.96283 -182791 -121767 -20664 202636 -23769.3 -18980.9 -7.41659 
2571 1 32.6462 1.96187 7.47568 5.95271 -178219 -129975 13249.4 188313 29292.9 -23439 -7.41889 
2572 1 31.9176 0.743926 7.47686 5.9557 -166522 -139241 -5385.14 206013 -27560.6 -20866.2 -7.41758 
2724 1 34.1748 9.32773 7.47256 5.97713 -214006 -82881.5 -56030.3 181374 -13962.8 -12585.7 -7.41459 
2725 1 34.8643 8.08929 7.47328 5.96147 -218468 -88980.4 49926.4 174653 32485.1 -24659.2 -7.42169 
2726 1 34.1388 6.86949 7.47181 5.97087 -202045 -98263.9 -42959.9 197707 -18579.8 -14583.2 -7.41532 
2727 1 34.8283 5.63121 7.47359 5.95696 -203322 -104849 36053.9 188705 32537.5 -23282.3 -7.42062 
2728 1 34.1015 4.41209 7.4734 5.96267 -188918 -114124 -28519.8 209296 -23019.8 -16463.6 -7.41618 
2729 1 34.7912 3.17404 7.47612 5.95174 -186565 -121425 21058 197778 31325.3 -21785 -7.41951 
2730 1 34.0634 1.95553 7.47708 5.95491 -174545 -130312 -13202 215521 -26985.3 -18212.3 -7.41714 
2731 1 34.7535 0.717785 7.48041 5.94721 -168318 -138464 5417.97 201370 29016.7 -20182.3 -7.41842 
2883 1 37.0062 9.30358 7.47534 5.96136 -220104 -85865.7 56951.9 176618 32681.6 -22366.3 -7.4223 
2884 1 36.2815 8.08329 7.47341 5.97018 -204006 -93839.1 -50303.4 199224 -17693 -12347.9 -7.41496 
2885 1 36.9715 6.84529 7.47487 5.95621 -207363 -99786 43516.9 192888 33382.8 -21173 -7.42124 
2886 1 36.2455 5.62566 7.47419 5.963 -192905 -108108 -36218.4 213265 -22097.4 -14061.6 -7.41577 
2887 1 36.9356 4.38783 7.47656 5.95086 -193021 -114572 28794.7 204536 32829.7 -19896.8 -7.42012 
2888 1 36.2085 3.1688 7.47712 5.95476 -180609 -122788 -21065.8 222193 -26171.4 -15669.5 -7.4167 
2889 1 36.8988 1.9312 7.48016 5.94619 -177004 -129915 13237.1 210907 31126.6 -18545.4 -7.41901 
2890 1 36.1708 0.712709 7.48174 5.94832 -167045 -137623 -5309.61 225528 -29629.4 -17160.1 -7.41772 
3042 1 38.4234 9.29837 7.47531 5.97013 -203935 -91204.8 -57237.1 198477 -16721.1 -10275.4 -7.41462 
3043 1 39.114 8.06067 7.47649 5.95616 -209226 -96714.6 50650.1 194633 33771 -18951.5 -7.42183 
3044 1 38.3887 6.8406 7.47527 5.96374 -194998 -103894 -43642.6 214663 -21040.4 -11809.2 -7.41538 
3045 1 39.0792 5.603 7.47729 5.95056 -197300 -109633 36340 208625 33851.3 -17858.6 -7.42073 
3046 1 38.3528 4.38352 7.4773 5.95511 -184925 -117000 -28817.9 226143 -25161.6 -13267.1 -7.41627 
3047 1 39.0434 3.14609 7.48001 5.94563 -183768 -123107 21022 217715 32758.8 -16720.5 -7.4196 
3048 1 38.3161 1.92713 7.48115 5.94815 -173472 -130247 -13197.2 232345 -28813.6 -14628.9 -7.41725 
3049 1 39.007 0.689933 7.48425 5.94199 -168695 -136967 5130.68 221332 30645.4 -15542.4 -7.41848 
3201 1 41.2559 9.27712 7.47856 5.95674 -208753 -95543.5 57411.2 194080 33758.4 -16678.6 -7.4224 
3202 1 40.5312 8.05668 7.47677 5.964 -194999 -101473 -50724.8 213671 -19882.1 -9728.73 -7.41501 
3203 1 41.2222 6.81934 7.47848 5.95072 -199330 -106480 43621.1 210273 34436.3 -15736.5 -7.42131 
3204 1 40.4964 5.59946 7.47787 5.95586 -187095 -112874 -36353.3 227589 -23995.7 -11026.2 -7.41585 
3205 1 41.1874 4.36222 7.48023 5.94524 -188384 -118163 28668.3 221859 33947.4 -14775.9 -7.42018 
3206 1 40.4606 3.14285 7.48079 5.9485 -178004 -124550 -21013.5 236441 -27778.3 -12254.4 -7.41679 
3207 1 41.1518 1.90578 7.48357 5.94157 -175732 -130239 12963.6 228270 32386.5 -13799.7 -7.41905 
3208 1 40.4243 0.686846 7.48515 5.94291 -167539 -136287 -5117.34 239803 -30971.3 -13394.2 -7.41782 
3360 1 42.6731 9.27366 7.47878 5.96463 -192746 -100704 -57433.3 210594 -18651 -7831.09 -7.41467 
3361 1 43.3647 8.0366 7.48022 5.95115 -199012 -105251 50596.3 209589 34628.6 -13576.7 -7.42188 
3362 1 42.6394 6.81639 7.47898 5.95692 -187141 -110524 -43609 226604 -22709.2 -8960.07 -7.41545 
3363 1 43.3308 5.57937 7.48099 5.94533 -190489 -114999 36109 223523 34726.4 -12763.2 -7.42076 
3364 1 42.6046 4.35965 7.48089 5.94922 -180404 -120499 -28664.7 238003 -26564.2 -10047 -7.41634 
3365 1 43.296 3.12273 7.48333 5.94119 -180445 -125223 20705.2 232605 33727.5 -11955.2 -7.41963 
3366 1 42.569 1.90344 7.4843 5.94318 -172241 -130619 -12987.1 244193 -29968.4 -11068.7 -7.41733 
3367 1 43.2606 0.666671 7.48691 5.93856 -168796 -135719 4785.52 236315 31765.1 -11152.2 -7.41851 
3519 1 45.5068 9.25457 7.48252 5.95191 -196622 -105750 57244.1 206799 34468.2 -11405.6 -7.42242 
3520 1 44.7819 8.0341 7.48068 5.95783 -184966 -109896 -50552 223437 -21332.6 -7074.42 -7.41507 
3521 1 45.4738 6.79732 7.48239 5.94566 -190520 -113689 43304 222877 35127.4 -10716.5 -7.42132 
3522 1 44.7481 5.57732 7.4816 5.95026 -180444 -118291 -36093.6 237215 -25207.3 -8011.76 -7.41591 
3523 1 45.4398 4.34056 7.48368 5.94111 -183061 -122164 28294.7 234451 34690.5 -10048.6 -7.42019 
3524 1 44.7133 3.12097 7.48396 5.94382 -174761 -126763 -20740.3 246052 -28762.8 -8909.37 -7.41685 
3525 1 45.405 1.88431 7.48625 5.93838 -173908 -130841 12596.5 240929 33239.8 -9403.18 -7.41906 
3526 1 44.6779 0.665057 7.4875 5.93916 -167671 -135225 -4867.63 249530 -31762.3 -9743.81 -7.41788 
3678 1 46.924 9.25239 7.48295 5.95882 -180810 -110835 -57168.5 218349 -19891.5 -5368.86 -7.41472 
3680 1 46.8911 6.79563 7.48297 5.95114 -178507 -117749 -43267.7 234231 -23739.5 -6150.44 -7.4155 
3682 1 46.857 4.33924 7.48429 5.94477 -175232 -124686 -28324.2 245560 -27390.5 -6915.6 -7.41639 
3684 1 46.8223 1.88321 7.48678 5.93969 -170514 -131502 -12692.7 251827 -30616.4 -7640.09 -7.41738 
3679 1 47.6164 8.01586 7.48442 5.94631 -188398 -114151 50227.7 220106 35179.5 -8653.98 -7.42188 
3681 1 47.5832 5.55907 7.48474 5.94132 -183353 -120893 35692.7 233978 35296.5 -8104.68 -7.42076 
3683 1 47.5491 3.10271 7.48624 5.93813 -176850 -127814 20305 243114 34372.4 -7590.65 -7.41962 
3685 1 47.5144 0.646759 7.48872 5.93654 -168759 -134890 4441.92 246985 32522.3 -7108.75 -7.41851 
3837 1 49.7588 9.23479 7.487 5.94729 -184065 -116247 56866.2 215344 34908.2 -6579.02 -7.42242 
3838 1 49.0337 8.0144 7.48499 5.95213 -174488 -118803 -50168.6 229194 -22187.2 -4460.54 -7.41512 
3839 1 49.7263 6.77806 7.48648 5.94184 -181432 -121266 42874.4 231368 35563.5 -6135.29 -7.42131 
3840 1 49.0005 5.55805 7.48534 5.94562 -173416 -124211 -35707.4 242902 -25882.8 -5085.16 -7.41596 
3841 1 49.6928 4.32166 7.48696 5.93817 -177447 -126582 27874.9 242964 35173.6 -5732.68 -7.42018 
3842 1 48.9663 3.10197 7.48676 5.9405 -171241 -129551 -20399.1 251775 -29278.1 -5691.49 -7.4169 
3843 1 49.6586 1.86561 7.48838 5.93633 -171890 -131963 12228.4 249594 33806.6 -5374.19 -7.41906 
3844 1 48.9317 0.64615 7.48909 5.93677 -167647 -134714 -4596.48 255428 -32151.8 -6255.09 -7.41792 
3996 1 51.1761 9.23343 7.48755 5.95335 -168340 -121301 -56786.4 222295 -20571 -2935.71 -7.41477 
3997 1 51.8692 7.99732 7.48884 5.9427 -177333 -123286 49820.9 226719 35507.3 -4139.09 -7.42186 
3998 1 51.1436 6.77719 7.48709 5.94655 -169476 -125325 -42869.5 238124 -24266.6 -3413.85 -7.41555 
3999 1 51.8363 5.54098 7.48842 5.93852 -175727 -126980 35280.6 240624 35651.6 -3835.68 -7.42074 
4000 1 51.1101 4.32115 7.4875 5.94127 -169639 -129209 -27957 249510 -27777.8 -3892.84 -7.41643 
4001 1 51.8025 3.08489 7.48879 5.93619 -172768 -130805 19927.2 249850 34788.7 -3581.85 -7.41961 
4002 1 51.0758 1.86529 7.48876 5.93744 -168510 -132886 -12383.9 255865 -30890.9 -4349.45 -7.41741 
4003 1 51.7682 0.629055 7.4899 5.9357 -168247 -134553 4124.93 253909 33017.8 -3376.42 -7.4185 
4155 1 54.0119 9.21666 7.49168 5.94388 -171284 -126883 56514.3 220122 35141.3 -2104.14 -7.4224 
4156 1 53.2865 7.99647 7.48943 5.94774 -163465 -127998 -49795.5 231346 -22563.2 -1896.1 -7.41516 
4157 1 53.9796 6.76045 7.49055 5.93922 -171993 -129035 42500.2 236176 35812.7 -1895.44 -7.4213 
4158 1 53.2536 5.54055 7.48898 5.9421 -165840 -130506 -35344.9 245087 -26141.2 -2238.65 -7.41599 
4159 1 53.9463 4.30442 7.48998 5.93633 -171504 -131342 27512.5 247879 35467.9 -1734.48 -7.42017 
4160 1 53.2198 3.08474 7.48921 5.93811 -167181 -132765 -20073.7 254067 -29439.7 -2577.71 -7.41693 
4161 1 53.9123 1.84856 7.49004 5.93536 -169480 -133589 11902 254639 34162.5 -1628.71 -7.41905 
4162 1 53.1855 0.629022 7.4901 5.93556 -167154 -134751 -4323.89 257849 -32247.6 -2889.21 -7.41794 
4314 1 55.4293 9.21571 7.49222 5.9492 -155619 -132285 -56469.9 222629 -20788.4 -526.133 -7.4148 
4315 1 56.1229 7.9799 7.4932 5.94027 -166140 -132759 49511.3 229726 35662.2 101.657 -7.42185 
4316 1 55.397 6.75997 7.4911 5.94321 -160081 -133373 -42544.1 238579 -24389.9 -724.137 -7.41558 
4317 1 56.09 5.52401 7.49188 5.93684 -167978 -133581 34960.4 243729 35842.8 174.069 -7.42073 
4318 1 55.3636 4.30429 7.49043 5.93879 -163757 -134333 -27643.4 250044 -27822.2 -934.492 -7.41646 
4319 1 56.0564 3.06821 7.49098 5.93528 -168514 -134326 19616.1 253122 35029.2 191.452 -7.4196 
4320 1 55.3296 1.84863 7.49029 5.93611 -166120 -134836 -12096.4 256550 -30881.9 -1135.2 -7.41743 
4321 1 56.0222 0.612488 7.49058 5.93499 -167559 -134925 3838.26 257334 33307.2 151.011 -7.41849 
4473 1 58.2662 9.19914 7.4962 5.9417 -158150 -138157 56287 221250 35203.1 2178.05 -7.42239 
4474 1 57.5403 7.97924 7.49371 5.94461 -152243 -137894 -49533.5 229965 -22539.2 654.214 -7.41518 
4475 1 58.2338 6.74345 7.49435 5.93771 -162238 -137397 42247.5 237497 35909.7 2157.86 -7.42129 
4476 1 57.5074 5.52376 7.49233 5.93977 -158041 -137391 -35071.9 243881 -26058.5 584.19 -7.41601 
4477 1 58.2004 4.28779 7.49265 5.93557 -165197 -136665 27243.8 249374 35608.1 2091.34 -7.42016 
4478 1 57.4736 3.06823 7.49127 5.93661 -162899 -136596 -19798.5 253033 -29318.2 507.469 -7.41694 
4479 1 58.1663 1.83214 7.49127 5.93465 -166756 -135840 11628.3 256333 34342.3 1964.47 -7.41903 
4480 1 57.4395 0.612623 7.49063 5.93526 -166436 -135455 -4054.06 257005 -32112.9 446.15 -7.41796 
4632 1 59.6837 9.19816 7.4966 5.94631 -142370 -144030 -56285.2 219391 -20598.3 1897.94 -7.41481 
4633 1 60.3775 7.96257 7.49718 5.93897 -154514 -142970 49339.3 229195 35664.3 4239.28 -7.42184 
4634 1 59.6512 6.74295 7.49476 5.94106 -150257 -142195 -42334.7 235547 -24162.9 1979.15 -7.41559 
4635 1 60.3445 5.50712 7.49492 5.93623 -159752 -140747 34756.6 243466 35888.4 4085.07 -7.42072 
4636 1 59.6177 4.28763 7.49295 5.93742 -157384 -140026 -27407.5 247268 -27573.8 2040.78 -7.41647 
4637 1 60.3106 3.05162 7.49271 5.93463 -163834 -138416 19381.9 253087 35110.4 3876.5 -7.41959 
4638 1 59.5836 1.83217 7.49136 5.93557 -163348 -137427 -11836.5 253993 -30633.5 2102.02 -7.41745 
4639 1 60.2762 0.596033 7.49077 5.93487 -166418 -135879 3578.5 257531 33406.4 3603.81 -7.41847 
4791 1 62.5215 9.18117 7.50013 5.94063 -144816 -150350 56187.3 218904 35101 6446.68 -7.42239 
4792 1 61.795 7.96168 7.49748 5.94268 -140549 -148717 -49397.2 225091 -22144.4 3247.5 -7.41519 
4793 1 62.4887 6.72602 7.49758 5.93716 -152195 -146552 42116.2 235425 35858.4 6193.41 -7.42128 
4794 1 61.7619 5.50665 7.49517 5.93857 -149797 -145167 -34895.3 239292 -25661.5 3462.59 -7.41602 
4795 1 62.4549 4.27073 7.49477 5.93495 -158642 -142772 27067.5 247601 35594 5900.04 -7.42015 
4796 1 61.7279 3.05141 7.49281 5.93619 -158212 -141210 -19573.9 248714 -28937.1 3663.47 -7.41695 
4797 1 62.4205 1.81531 7.49197 5.93464 -163768 -138750 11403 254828 34343.2 5544.82 -7.41902 
4798 1 61.6935 0.595935 7.49066 5.93567 -165299 -136811 -3783.17 252929 -31767.4 3869.64 -7.41797 
4950 1 63.9391 9.17976 7.50022 5.94463 -128926 -156947 -56207.6 212582 -20004.7 4381.04 -7.4148 
4951 1 64.6331 7.94428 7.50036 5.93844 -142610 -154143 49266.7 225282 35504.9 8443.11 -7.42184 
4952 1 63.9062 6.72509 7.49772 5.94005 -140126 -152007 -42221.6 229083 -23588.5 4765.5 -7.41559 
4953 1 64.5995 5.4893 7.49723 5.93565 -151232 -148841 34642.3 239880 35774.4 8054.08 -7.42071 
4954 1 63.8723 4.27015 7.49482 5.93715 -150779 -146662 -27234.3 241102 -27033.6 5124.46 -7.41647 
4955 1 64.5651 3.0341 7.49379 5.93476 -158849 -143364 19207.4 249772 35013.4 7614.21 -7.41957 
4956 1 63.8379 1.81491 7.49186 5.93603 -160356 -140832 -11594.7 248069 -30145.1 5474.76 -7.41745 
4957 1 64.5303 0.578669 7.49041 5.93582 -165008 -137597 3337.56 254461 33290.9 7106.36 -7.41845 
5109 1 66.7778 9.16172 7.50295 5.94018 -131254 -163429 56122.7 213073 34814.9 10865.7 -7.42238 
5110 1 66.0507 7.94275 7.50028 5.94192 -128464 -160495 -49325.5 216636 -21355.3 5935.1 -7.41517 
5111 1 66.7444 6.70712 7.49983 5.9368 -141821 -156567 42042.7 229925 35631.4 10362.3 -7.42127 
5112 1 66.017 5.48819 7.49716 5.93849 -141126 -153761 -34771.7 231157 -24927.4 6472.68 -7.41601 
5113 1 66.71 4.25223 7.49603 5.93528 -151673 -149608 26942.8 242404 35391.9 9828.11 -7.42013 
5114 1 65.9825 3.03326 7.49363 5.93682 -153130 -146559 -19373.1 240866 -28274 6988.97 -7.41695 
5115 1 66.6749 1.79704 7.49196 5.93576 -160329 -142400 11206.9 249891 34123.8 9232.9 -7.41899 
5116 1 65.9476 0.57793 7.49009 5.93631 -163851 -138882 -3499.45 245310 -31188.7 7500.27 -7.41797 
5268 1 68.1955 9.15945 7.50253 5.94425 -115189 -170765 -56113.8 202025 -18956.4 6948.14 -7.41479 
5269 1 68.8896 7.924 7.5022 5.93846 -130722 -166050 49169.3 217805 35145.4 12853 -7.42181 
5270 1 68.162 6.70534 7.49952 5.94026 -129598 -162593 -42116.1 218895 -22617 7686.52 -7.41557 
5271 1 68.8552 5.46949 7.4984 5.93629 -142569 -157610 34535.4 232724 35452.7 12206.3 -7.42068 
5272 1 68.1274 4.25079 7.49572 5.93805 -143706 -154010 -27065.7 231225 -26154.5 8393.23 -7.41646 
5273 1 68.82 3.01462 7.49393 5.9361 -153597 -148922 19047.9 242915 34680.7 11515 -7.41954 
5274 1 68.0923 1.79579 7.49157 5.93692 -156873 -144878 -11341.9 238470 -29372.3 9081.83 -7.41745 
5275 1 68.7844 0.559344 7.48933 5.93799 -163303 -139890 3106.3 247859 32894.4 10752.5 -7.41842 
5427 1 71.0352 9.13975 7.50398 5.94071 -118003 -177262 55879.9 203539 34298.3 15555.6 -7.42233 
5428 1 70.3073 7.9214 7.50153 5.94253 -116436 -173120 -49160.5 204294 -20095.3 8735.34 -7.41516 
5429 1 71.0009 6.68569 7.50052 5.93786 -131601 -167218 41875 220751 35169.6 14772.3 -7.42123 
5430 1 70.2727 5.46731 7.49783 5.9397 -132342 -163096 -34593.3 219173 -23782.3 9659.03 -7.416 
5431 1 70.9655 4.23121 7.49601 5.93697 -144694 -157092 26777.4 233542 34930.1 13967.8 -7.42009 
5432 1 70.2374 3.0127 7.49337 5.93802 -147806 -152570 -19134.7 229167 -27259.1 10552.5 -7.41694 
5433 1 70.9295 1.77626 7.49096 5.93818 -156812 -146580 11002 241293 33601.3 13104.7 -7.41895 
5434 1 70.2017 0.557528 7.48872 5.93819 -162146 -141494 -3187.59 233865 -30311.8 11427.3 -7.41797 
5586 1 72.453 9.13617 7.5028 5.94535 -101695 -185191 -55748.5 187488 -17348.1 9578.36 -7.41477 
5587 1 73.147 7.90064 7.50201 5.94008 -119044 -178413 48801.4 206489 34518.4 17550.8 -7.42174 
5588 1 72.4185 6.68261 7.49956 5.94191 -119173 -173786 -41834.4 204672 -21147.5 10747 -7.41555 
5589 1 73.1115 5.44661 7.49783 5.93845 -133961 -166787 34270.9 221736 34840.1 16608.9 -7.42062 
5590 1 72.383 4.22847 7.49516 5.93977 -136573 -161819 -26787.8 217316 -24840.2 11875.4 -7.41644 
5591 1 73.0752 2.99205 7.49269 5.93892 -148270 -154891 18815.4 232164 34014.8 15629.4 -7.41948 
5592 1 72.3469 1.7737 7.49015 5.93915 -153300 -149379 -11029.6 224799 -28224.5 12972.2 -7.41743 
5593 1 73.0385 0.536941 7.48725 5.94157 -161327 -142634 2869.11 237326 32106.9 14577.2 -7.41835 
5746 1 74.5647 7.8965 7.5005 5.94474 -104518 -185934 -48613.1 187763 -18234.3 11607.6 -7.41513 
5748 1 74.5291 5.44288 7.49654 5.94221 -123562 -172649 -34164.4 202886 -22102.3 13002.1 -7.41597 
5750 1 74.4927 2.98859 7.49155 5.94079 -142364 -158781 -18754.4 213149 -25774.9 14353.3 -7.41691 
5752 1 74.4559 0.533574 7.48623 5.94153 -160125 -144426 -2831.17 218021 -29025.7 15664 -7.41794 
5745 1 75.2935 9.11415 7.50244 5.94304 -105368 -191015 55091.6 190040 33481.7 20560.5 -7.42221 
5747 1 75.258 6.66063 7.49897 5.94065 -121749 -177925 41348.7 207478 34381.5 19455.2 -7.42113 
5749 1 75.2215 4.20653 7.49412 5.94033 -137831 -164629 26406.2 220531 34098.6 18335.7 -7.41999 
5751 1 75.1843 1.75181 7.48854 5.94222 -153100 -151000 10721.8 228481 32650.3 17161.5 -7.41886 
5904 1 76.7114 9.10879 7.50026 5.94827 -88929 -199520 -54683.5 168613 -15022 12180.1 -7.41476 
5905 1 77.4051 7.87307 7.49902 5.94367 -108521 -190419 47764 190881 33532.7 22515.3 -7.42158 
5906 1 76.6757 6.65575 7.4971 5.94531 -109208 -184924 -41068.4 185954 -19028.2 13872.6 -7.41553 
5907 1 77.3683 5.41948 7.49485 5.94252 -126121 -175818 33574.2 206299 33819.4 21230 -7.42048 
5908 1 76.639 4.20199 7.49252 5.94324 -129655 -169768 -26209.9 198787 -22946 15510.7 -7.41641 
5909 1 77.3307 2.96523 7.4895 5.94358 -143315 -160882 18362.1 216913 32878.3 19911.6 -7.41935 
5910 1 76.6017 1.74745 7.48714 5.94312 -149593 -154041 -10586.2 206463 -26563.7 17095.6 -7.41739 
5911 1 77.2926 0.510262 7.48377 5.94691 -159450 -145582 2604.97 222184 30777.5 18521.4 -7.41824 
6063 1 79.5527 9.08377 7.49763 5.94759 -94566.2 -203965 53199.7 172019 32285.8 25776.3 -7.42195 
6064 1 78.8229 7.86688 7.49645 5.94892 -93880.3 -198356 -47229.4 166572 -15596.9 14418.4 -7.41513 
6065 1 79.5158 6.63072 7.49445 5.9456 -113277 -188033 40051.5 189514 33151.4 24307.8 -7.42091 
6066 1 78.786 5.4137 7.49263 5.94653 -115651 -181986 -33179.1 181806 -19718.5 16375.1 -7.41594 
6067 1 79.4778 4.17697 7.48973 5.94576 -131926 -171921 25570 202668 32754.2 22821.3 -7.41981 
6068 1 78.7482 2.9597 7.4876 5.94552 -137424 -165010 -18076 192173 -23658.6 18266.7 -7.41686 
6069 1 79.4391 1.72247 7.48416 5.94823 -149931 -155421 10262 210719 31109.7 21283.1 -7.41871 
6070 1 78.71 0.504818 7.48218 5.94677 -158324 -147525 -2424.92 197157 -27172.9 20085 -7.41787 
6222 1 80.9706 9.07609 7.49429 5.9526 -78024.1 -212764 -52299.1 145042 -11786.3 14563.7 -7.41478 
6223 1 81.6638 7.84007 7.49261 5.94966 -99735.4 -201087 45496.8 170391 32085.1 27537.2 -7.42126 
6224 1 80.9335 6.62352 7.4915 5.94968 -100616 -195219 -39368.8 162319 -16072.9 16868.5 -7.41551 
6225 1 81.6255 5.38686 7.48882 5.9489 -119485 -183839 32056.2 185808 32250 25867.9 -7.42022 