(written by TR)

16856	atoms
2	atom types
0	112.735482	xlo xhi
0	195.263582	ylo yhi
0	18.4	zlo zhi


Masses

1	12
2	12

Atoms

1 1 1 0 0.69556779 194.02793460 7.50000000 0 0 0
2 1 1 0 0.66881518 191.57208031 7.50000000 0 0 0
3 1 1 0 0.64206258 189.11622602 7.50000000 0 0 0
4 1 1 0 0.61530997 186.66037173 7.50000000 0 0 0
5 1 1 0 0.58855736 184.20451744 7.50000000 0 0 0
6 1 1 0 0.56180476 181.74866315 7.50000000 0 0 0
7 1 1 0 0.53505215 179.29280886 7.50000000 0 0 0
8 1 1 0 0.50829954 176.83695457 7.50000000 0 0 0
9 1 1 0 0.48154694 174.38110028 7.50000000 0 0 0
10 1 1 0 0.45479433 171.92524599 7.50000000 0 0 0
11 1 1 0 0.42804172 169.46939170 7.50000000 0 0 0
12 1 1 0 0.40128912 167.01353740 7.50000000 0 0 0
13 1 1 0 0.37453651 164.55768311 7.50000000 0 0 0
14 1 1 0 0.34778390 162.10182882 7.50000000 0 0 0
15 1 1 0 0.32103130 159.64597453 7.50000000 0 0 0
16 1 1 0 0.29427869 157.19012024 7.50000000 0 0 0
17 1 1 0 0.26752608 154.73426595 7.50000000 0 0 0
18 1 1 0 0.24077348 152.27841166 7.50000000 0 0 0
19 1 1 0 0.21402087 149.82255737 7.50000000 0 0 0
20 1 1 0 0.18726826 147.36670308 7.50000000 0 0 0
21 1 1 0 0.16051566 144.91084879 7.50000000 0 0 0
22 1 1 0 0.13376305 142.45499450 7.50000000 0 0 0
23 1 1 0 0.10701044 139.99914020 7.50000000 0 0 0
24 1 1 0 0.08025784 137.54328591 7.50000000 0 0 0
25 1 1 0 0.05350523 135.08743162 7.50000000 0 0 0
26 1 1 0 0.02675262 132.63157733 7.50000000 0 0 0
27 1 1 0 0.00000002 130.17572304 7.50000000 0 0 0
28 1 1 0 2.83577630 195.23269331 7.50000000 0 0 0
29 1 1 0 2.11345593 194.01248898 7.50000000 0 0 0
30 1 1 0 2.80902369 192.77683902 7.50000000 0 0 0
31 1 1 0 2.08670332 191.55663469 7.50000000 0 0 0
32 1 1 0 2.78227108 190.32098473 7.50000000 0 0 0
33 1 1 0 2.05995071 189.10078040 7.50000000 0 0 0
34 1 1 0 2.75551848 187.86513044 7.50000000 0 0 0
35 1 1 0 2.03319811 186.64492611 7.50000000 0 0 0
36 1 1 0 2.72876587 185.40927615 7.50000000 0 0 0
37 1 1 0 2.00644550 184.18907182 7.50000000 0 0 0
38 1 1 0 2.70201326 182.95342186 7.50000000 0 0 0
39 1 1 0 1.97969289 181.73321753 7.50000000 0 0 0
40 1 1 0 2.67526066 180.49756757 7.50000000 0 0 0
41 1 1 0 1.95294029 179.27736323 7.50000000 0 0 0
42 1 1 0 2.64850805 178.04171328 7.50000000 0 0 0
43 1 1 0 1.92618768 176.82150894 7.50000000 0 0 0
44 1 1 0 2.62175544 175.58585899 7.50000000 0 0 0
45 1 1 0 1.89943507 174.36565465 7.50000000 0 0 0
46 1 1 0 2.59500284 173.13000469 7.50000000 0 0 0
47 1 1 0 1.87268247 171.90980036 7.50000000 0 0 0
48 1 1 0 2.56825023 170.67415040 7.50000000 0 0 0
49 1 1 0 1.84592986 169.45394607 7.50000000 0 0 0
50 1 1 0 2.54149762 168.21829611 7.50000000 0 0 0
51 1 1 0 1.81917725 166.99809178 7.50000000 0 0 0
52 1 1 0 2.51474502 165.76244182 7.50000000 0 0 0
53 1 1 0 1.79242465 164.54223749 7.50000000 0 0 0
54 1 1 0 2.48799241 163.30658753 7.50000000 0 0 0
55 1 1 0 1.76567204 162.08638320 7.50000000 0 0 0
56 1 1 0 2.46123980 160.85073324 7.50000000 0 0 0
57 1 1 0 1.73891943 159.63052891 7.50000000 0 0 0
58 1 1 0 2.43448720 158.39487895 7.50000000 0 0 0
59 1 1 0 1.71216683 157.17467462 7.50000000 0 0 0
60 1 1 0 2.40773459 155.93902466 7.50000000 0 0 0
61 1 1 0 1.68541422 154.71882033 7.50000000 0 0 0
62 1 1 0 2.38098198 153.48317037 7.50000000 0 0 0
63 1 1 0 1.65866161 152.26296603 7.50000000 0 0 0
64 1 1 0 2.35422938 151.02731608 7.50000000 0 0 0
65 1 1 0 1.63190901 149.80711174 7.50000000 0 0 0
66 1 1 0 2.32747677 148.57146179 7.50000000 0 0 0
67 1 1 0 1.60515640 147.35125745 7.50000000 0 0 0
68 1 1 0 2.30072416 146.11560750 7.50000000 0 0 0
69 1 1 0 1.57840379 144.89540316 7.50000000 0 0 0
70 1 1 0 2.27397156 143.65975320 7.50000000 0 0 0
71 1 1 0 1.55165119 142.43954887 7.50000000 0 0 0
72 1 1 0 2.24721895 141.20389891 7.50000000 0 0 0
73 1 1 0 1.52489858 139.98369458 7.50000000 0 0 0
74 1 1 0 2.22046634 138.74804462 7.50000000 0 0 0
75 1 1 0 1.49814597 137.52784029 7.50000000 0 0 0
76 1 1 0 2.19371374 136.29219033 7.50000000 0 0 0
77 1 1 0 1.47139337 135.07198600 7.50000000 0 0 0
78 1 1 0 2.16696113 133.83633604 7.50000000 0 0 0
79 1 1 0 1.44464076 132.61613171 7.50000000 0 0 0
80 1 1 0 2.14020852 131.38048175 7.50000000 0 0 0
81 1 1 0 1.41788815 130.16027742 7.50000000 0 0 0
82 1 1 0 2.11345592 128.92462746 7.50000000 0 0 0
83 1 1 0 1.39113555 127.70442313 7.50000000 0 0 0
84 1 1 0 2.08670331 126.46877317 7.50000000 0 0 0
85 1 1 0 1.36438294 125.24856883 7.50000000 0 0 0
86 1 1 0 2.05995070 124.01291888 7.50000000 0 0 0
87 1 1 0 1.33763033 122.79271454 7.50000000 0 0 0
88 1 1 0 2.03319810 121.55706459 7.50000000 0 0 0
89 1 1 0 1.31087773 120.33686025 7.50000000 0 0 0
90 1 1 0 2.00644549 119.10121030 7.50000000 0 0 0
91 1 1 0 1.28412512 117.88100596 7.50000000 0 0 0
92 1 1 0 1.97969288 116.64535600 7.50000000 0 0 0
93 1 1 0 1.25737251 115.42515167 7.50000000 0 0 0
94 1 1 0 1.95294028 114.18950171 7.50000000 0 0 0
95 1 1 0 1.23061991 112.96929738 7.50000000 0 0 0
96 1 1 0 1.92618767 111.73364742 7.50000000 0 0 0
97 1 1 0 1.20386730 110.51344309 7.50000000 0 0 0
98 1 1 0 1.89943506 109.27779313 7.50000000 0 0 0
99 1 1 0 1.17711469 108.05758880 7.50000000 0 0 0
100 1 1 0 1.87268246 106.82193884 7.50000000 0 0 0
101 1 1 0 1.15036209 105.60173451 7.50000000 0 0 0
102 1 1 0 1.84592985 104.36608455 7.50000000 0 0 0
103 1 1 0 1.12360948 103.14588022 7.50000000 0 0 0
104 1 1 0 1.81917724 101.91023026 7.50000000 0 0 0
105 1 1 0 1.09685687 100.69002593 7.50000000 0 0 0
106 1 1 0 1.79242464 99.45437597 7.50000000 0 0 0
107 1 1 0 1.07010427 98.23417164 7.50000000 0 0 0
108 1 1 0 1.76567203 96.99852168 7.50000000 0 0 0
109 1 1 0 1.04335166 95.77831734 7.50000000 0 0 0
110 1 1 0 1.73891942 94.54266739 7.50000000 0 0 0
111 1 1 0 1.01659905 93.32246305 7.50000000 0 0 0
112 1 1 0 1.71216682 92.08681310 7.50000000 0 0 0
113 1 1 0 0.98984645 90.86660876 7.50000000 0 0 0
114 1 1 0 1.68541421 89.63095880 7.50000000 0 0 0
115 1 1 0 0.96309384 88.41075447 7.50000000 0 0 0
116 1 1 0 1.65866160 87.17510451 7.50000000 0 0 0
117 1 1 0 0.93634123 85.95490018 7.50000000 0 0 0
118 1 1 0 1.63190900 84.71925022 7.50000000 0 0 0
119 1 1 0 0.90958863 83.49904589 7.50000000 0 0 0
120 1 1 0 1.60515639 82.26339593 7.50000000 0 0 0
121 1 1 0 0.88283602 81.04319160 7.50000000 0 0 0
122 1 1 0 1.57840378 79.80754164 7.50000000 0 0 0
123 1 1 0 0.85608341 78.58733731 7.50000000 0 0 0
124 1 1 0 1.55165118 77.35168735 7.50000000 0 0 0
125 1 1 0 0.82933081 76.13148302 7.50000000 0 0 0
126 1 1 0 1.52489857 74.89583306 7.50000000 0 0 0
127 1 1 0 0.80257820 73.67562873 7.50000000 0 0 0
128 1 1 0 1.49814596 72.43997877 7.50000000 0 0 0
129 1 1 0 0.77582559 71.21977444 7.50000000 0 0 0
130 1 1 0 1.47139336 69.98412448 7.50000000 0 0 0
131 1 1 0 0.74907299 68.76392014 7.50000000 0 0 0
132 1 1 0 1.44464075 67.52827019 7.50000000 0 0 0
133 1 1 0 0.72232038 66.30806585 7.50000000 0 0 0
134 1 1 0 1.41788814 65.07241590 7.50000000 0 0 0
135 1 1 0 0.69556777 63.85221156 7.50000000 0 0 0
136 1 1 0 1.39113554 62.61656161 7.50000000 0 0 0
137 1 1 0 0.66881517 61.39635727 7.50000000 0 0 0
138 1 1 0 1.36438293 60.16070731 7.50000000 0 0 0
139 1 1 0 0.64206256 58.94050298 7.50000000 0 0 0
140 1 1 0 1.33763032 57.70485302 7.50000000 0 0 0
141 1 1 0 0.61530995 56.48464869 7.50000000 0 0 0
142 1 1 0 1.31087772 55.24899873 7.50000000 0 0 0
143 1 1 0 0.58855735 54.02879440 7.50000000 0 0 0
144 1 1 0 1.28412511 52.79314444 7.50000000 0 0 0
145 1 1 0 0.56180474 51.57294011 7.50000000 0 0 0
146 1 1 0 1.25737250 50.33729015 7.50000000 0 0 0
147 1 1 0 0.53505213 49.11708582 7.50000000 0 0 0
148 1 1 0 1.23061990 47.88143586 7.50000000 0 0 0
149 1 1 0 0.50829953 46.66123153 7.50000000 0 0 0
150 1 1 0 1.20386729 45.42558157 7.50000000 0 0 0
151 1 1 0 0.48154692 44.20537724 7.50000000 0 0 0
152 1 1 0 1.17711468 42.96972728 7.50000000 0 0 0
153 1 1 0 0.45479431 41.74952294 7.50000000 0 0 0
154 1 1 0 1.15036208 40.51387299 7.50000000 0 0 0
155 1 1 0 0.42804171 39.29366865 7.50000000 0 0 0
156 1 1 0 1.12360947 38.05801870 7.50000000 0 0 0
157 1 1 0 0.40128910 36.83781436 7.50000000 0 0 0
158 1 1 0 1.09685686 35.60216441 7.50000000 0 0 0
159 1 1 0 0.37453649 34.38196007 7.50000000 0 0 0
160 1 1 0 1.07010426 33.14631011 7.50000000 0 0 0
161 1 1 0 0.34778389 31.92610578 7.50000000 0 0 0
162 1 1 0 1.04335165 30.69045582 7.50000000 0 0 0
163 1 1 0 0.32103128 29.47025149 7.50000000 0 0 0
164 1 1 0 1.01659904 28.23460153 7.50000000 0 0 0
165 1 1 0 0.29427867 27.01439720 7.50000000 0 0 0
166 1 1 0 0.98984644 25.77874724 7.50000000 0 0 0
167 1 1 0 0.26752607 24.55854291 7.50000000 0 0 0
168 1 1 0 0.96309383 23.32289295 7.50000000 0 0 0
169 1 1 0 0.24077346 22.10268862 7.50000000 0 0 0
170 1 1 0 0.93634122 20.86703866 7.50000000 0 0 0
171 1 1 0 0.21402085 19.64683433 7.50000000 0 0 0
172 1 1 0 0.90958862 18.41118437 7.50000000 0 0 0
173 1 1 0 0.18726825 17.19098004 7.50000000 0 0 0
174 1 1 0 0.88283601 15.95533008 7.50000000 0 0 0
175 1 1 0 0.16051564 14.73512575 7.50000000 0 0 0
176 1 1 0 0.85608340 13.49947579 7.50000000 0 0 0
177 1 1 0 0.13376303 12.27927145 7.50000000 0 0 0
178 1 1 0 0.82933080 11.04362150 7.50000000 0 0 0
179 1 1 0 0.10701043 9.82341716 7.50000000 0 0 0
180 1 1 0 0.80257819 8.58776721 7.50000000 0 0 0
181 1 1 0 0.08025782 7.36756287 7.50000000 0 0 0
182 1 1 0 0.77582558 6.13191291 7.50000000 0 0 0
183 1 1 0 0.05350521 4.91170858 7.50000000 0 0 0
184 1 1 0 0.74907298 3.67605862 7.50000000 0 0 0
185 1 1 0 0.02675261 2.45585429 7.50000000 0 0 0
186 1 1 0 0.72232037 1.22020433 7.50000000 0 0 0
187 1 1 0 0.00000000 0.00000000 7.50000000 0 0 0
188 1 1 0 4.25366443 195.21724769 7.50000000 0 0 0
189 1 1 0 4.94923220 193.98159773 7.50000000 0 0 0
190 1 1 0 4.22691183 192.76139340 7.50000000 0 0 0
191 1 1 0 4.92247959 191.52574344 7.50000000 0 0 0
192 1 1 0 4.20015922 190.30553911 7.50000000 0 0 0
193 1 1 0 4.89572698 189.06988915 7.50000000 0 0 0
194 1 1 0 4.17340661 187.84968482 7.50000000 0 0 0
195 1 1 0 4.86897438 186.61403486 7.50000000 0 0 0
196 1 1 0 4.14665401 185.39383052 7.50000000 0 0 0
197 1 1 0 4.84222177 184.15818057 7.50000000 0 0 0
198 1 1 0 4.11990140 182.93797623 7.50000000 0 0 0
199 1 1 0 4.81546916 181.70232628 7.50000000 0 0 0
200 1 1 0 4.09314879 180.48212194 7.50000000 0 0 0
201 1 1 0 4.78871656 179.24647198 7.50000000 0 0 0
202 1 1 0 4.06639619 178.02626765 7.50000000 0 0 0
203 1 1 0 4.76196395 176.79061769 7.50000000 0 0 0
204 1 1 0 4.03964358 175.57041336 7.50000000 0 0 0
205 1 1 0 4.73521134 174.33476340 7.50000000 0 0 0
206 1 1 0 4.01289097 173.11455907 7.50000000 0 0 0
207 1 1 0 4.70845874 171.87890911 7.50000000 0 0 0
208 1 1 0 3.98613837 170.65870478 7.50000000 0 0 0
209 1 1 0 4.68170613 169.42305482 7.50000000 0 0 0
210 1 1 0 3.95938576 168.20285049 7.50000000 0 0 0
211 1 1 0 4.65495352 166.96720053 7.50000000 0 0 0
212 1 1 0 3.93263315 165.74699620 7.50000000 0 0 0
213 1 1 0 4.62820092 164.51134624 7.50000000 0 0 0
214 1 1 0 3.90588055 163.29114191 7.50000000 0 0 0
215 1 1 0 4.60144831 162.05549195 7.50000000 0 0 0
216 1 1 0 3.87912794 160.83528762 7.50000000 0 0 0
217 1 1 0 4.57469570 159.59963766 7.50000000 0 0 0
218 1 1 0 3.85237533 158.37943332 7.50000000 0 0 0
219 1 1 0 4.54794310 157.14378337 7.50000000 0 0 0
220 1 1 0 3.82562273 155.92357903 7.50000000 0 0 0
221 1 1 0 4.52119049 154.68792908 7.50000000 0 0 0
222 1 1 0 3.79887012 153.46772474 7.50000000 0 0 0
223 1 1 0 4.49443788 152.23207479 7.50000000 0 0 0
224 1 1 0 3.77211751 151.01187045 7.50000000 0 0 0
225 1 1 0 4.46768528 149.77622049 7.50000000 0 0 0
226 1 1 0 3.74536491 148.55601616 7.50000000 0 0 0
227 1 1 0 4.44093267 147.32036620 7.50000000 0 0 0
228 1 1 0 3.71861230 146.10016187 7.50000000 0 0 0
229 1 1 0 4.41418006 144.86451191 7.50000000 0 0 0
230 1 1 0 3.69185969 143.64430758 7.50000000 0 0 0
231 1 1 0 4.38742746 142.40865762 7.50000000 0 0 0
232 1 1 0 3.66510709 141.18845329 7.50000000 0 0 0
233 1 1 0 4.36067485 139.95280333 7.50000000 0 0 0
234 1 1 0 3.63835448 138.73259900 7.50000000 0 0 0
235 1 1 0 4.33392224 137.49694904 7.50000000 0 0 0
236 1 1 0 3.61160187 136.27674471 7.50000000 0 0 0
237 1 1 0 4.30716964 135.04109475 7.50000000 0 0 0
238 1 1 0 3.58484927 133.82089042 7.50000000 0 0 0
239 1 1 0 4.28041703 132.58524046 7.50000000 0 0 0
240 1 1 0 3.55809666 131.36503613 7.50000000 0 0 0
241 1 1 0 4.25366442 130.12938617 7.50000000 0 0 0
242 1 1 0 3.53134405 128.90918183 7.50000000 0 0 0
243 1 1 0 4.22691182 127.67353188 7.50000000 0 0 0
244 1 1 0 3.50459145 126.45332754 7.50000000 0 0 0
245 1 1 0 4.20015921 125.21767759 7.50000000 0 0 0
246 1 1 0 3.47783884 123.99747325 7.50000000 0 0 0
247 1 1 0 4.17340660 122.76182329 7.50000000 0 0 0
248 1 1 0 3.45108623 121.54161896 7.50000000 0 0 0
249 1 1 0 4.14665400 120.30596900 7.50000000 0 0 0
250 1 1 0 3.42433363 119.08576467 7.50000000 0 0 0
251 1 1 0 4.11990139 117.85011471 7.50000000 0 0 0
252 1 1 0 3.39758102 116.62991038 7.50000000 0 0 0
253 1 1 0 4.09314878 115.39426042 7.50000000 0 0 0
254 1 1 0 3.37082841 114.17405609 7.50000000 0 0 0
255 1 1 0 4.06639618 112.93840613 7.50000000 0 0 0
256 1 1 0 3.34407581 111.71820180 7.50000000 0 0 0
257 1 1 0 4.03964357 110.48255184 7.50000000 0 0 0
258 1 1 0 3.31732320 109.26234751 7.50000000 0 0 0
259 1 1 0 4.01289096 108.02669755 7.50000000 0 0 0
260 1 1 0 3.29057059 106.80649322 7.50000000 0 0 0
261 1 1 0 3.98613836 105.57084326 7.50000000 0 0 0
262 1 1 0 3.26381799 104.35063893 7.50000000 0 0 0
263 1 1 0 3.95938575 103.11498897 7.50000000 0 0 0
264 1 1 0 3.23706538 101.89478463 7.50000000 0 0 0
265 1 1 0 3.93263314 100.65913468 7.50000000 0 0 0
266 1 1 0 3.21031277 99.43893034 7.50000000 0 0 0
267 1 1 0 3.90588054 98.20328039 7.50000000 0 0 0
268 1 1 0 3.18356017 96.98307605 7.50000000 0 0 0
269 1 1 0 3.87912793 95.74742610 7.50000000 0 0 0
270 1 1 0 3.15680756 94.52722176 7.50000000 0 0 0
271 1 1 0 3.85237532 93.29157180 7.50000000 0 0 0
272 1 1 0 3.13005495 92.07136747 7.50000000 0 0 0
273 1 1 0 3.82562272 90.83571751 7.50000000 0 0 0
274 1 1 0 3.10330235 89.61551318 7.50000000 0 0 0
275 1 1 0 3.79887011 88.37986322 7.50000000 0 0 0
276 1 1 0 3.07654974 87.15965889 7.50000000 0 0 0
277 1 1 0 3.77211750 85.92400893 7.50000000 0 0 0
278 1 1 0 3.04979713 84.70380460 7.50000000 0 0 0
279 1 1 0 3.74536490 83.46815464 7.50000000 0 0 0
280 1 1 0 3.02304453 82.24795031 7.50000000 0 0 0
281 1 1 0 3.71861229 81.01230035 7.50000000 0 0 0
282 1 1 0 2.99629192 79.79209602 7.50000000 0 0 0
283 1 1 0 3.69185968 78.55644606 7.50000000 0 0 0
284 1 1 0 2.96953931 77.33624173 7.50000000 0 0 0
285 1 1 0 3.66510708 76.10059177 7.50000000 0 0 0
286 1 1 0 2.94278671 74.88038743 7.50000000 0 0 0
287 1 1 0 3.63835447 73.64473748 7.50000000 0 0 0
288 1 1 0 2.91603410 72.42453314 7.50000000 0 0 0
289 1 1 0 3.61160186 71.18888319 7.50000000 0 0 0
290 1 1 0 2.88928149 69.96867885 7.50000000 0 0 0
291 1 1 0 3.58484926 68.73302890 7.50000000 0 0 0
292 1 1 0 2.86252889 67.51282456 7.50000000 0 0 0
293 1 1 0 3.55809665 66.27717460 7.50000000 0 0 0
294 1 1 0 2.83577628 65.05697027 7.50000000 0 0 0
295 1 1 0 3.53134404 63.82132031 7.50000000 0 0 0
296 1 1 0 2.80902367 62.60111598 7.50000000 0 0 0
297 1 1 0 3.50459144 61.36546602 7.50000000 0 0 0
298 1 1 0 2.78227107 60.14526169 7.50000000 0 0 0
299 1 1 0 3.47783883 58.90961173 7.50000000 0 0 0
300 1 1 0 2.75551846 57.68940740 7.50000000 0 0 0
301 1 1 0 3.45108622 56.45375744 7.50000000 0 0 0
302 1 1 0 2.72876585 55.23355311 7.50000000 0 0 0
303 1 1 0 3.42433362 53.99790315 7.50000000 0 0 0
304 1 1 0 2.70201325 52.77769882 7.50000000 0 0 0
305 1 1 0 3.39758101 51.54204886 7.50000000 0 0 0
306 1 1 0 2.67526064 50.32184453 7.50000000 0 0 0
307 1 1 0 3.37082840 49.08619457 7.50000000 0 0 0
308 1 1 0 2.64850803 47.86599024 7.50000000 0 0 0
309 1 1 0 3.34407580 46.63034028 7.50000000 0 0 0
310 1 1 0 2.62175543 45.41013594 7.50000000 0 0 0
311 1 1 0 3.31732319 44.17448599 7.50000000 0 0 0
312 1 1 0 2.59500282 42.95428165 7.50000000 0 0 0
313 1 1 0 3.29057058 41.71863170 7.50000000 0 0 0
314 1 1 0 2.56825021 40.49842736 7.50000000 0 0 0
315 1 1 0 3.26381798 39.26277740 7.50000000 0 0 0
316 1 1 0 2.54149761 38.04257307 7.50000000 0 0 0
317 1 1 0 3.23706537 36.80692311 7.50000000 0 0 0
318 1 1 0 2.51474500 35.58671878 7.50000000 0 0 0
319 1 1 0 3.21031276 34.35106882 7.50000000 0 0 0
320 1 1 0 2.48799239 33.13086449 7.50000000 0 0 0
321 1 1 0 3.18356016 31.89521453 7.50000000 0 0 0
322 1 1 0 2.46123979 30.67501020 7.50000000 0 0 0
323 1 1 0 3.15680755 29.43936024 7.50000000 0 0 0
324 1 1 0 2.43448718 28.21915591 7.50000000 0 0 0
325 1 1 0 3.13005494 26.98350595 7.50000000 0 0 0
326 1 1 0 2.40773457 25.76330162 7.50000000 0 0 0
327 1 1 0 3.10330234 24.52765166 7.50000000 0 0 0
328 1 1 0 2.38098197 23.30744733 7.50000000 0 0 0
329 1 1 0 3.07654973 22.07179737 7.50000000 0 0 0
330 1 1 0 2.35422936 20.85159304 7.50000000 0 0 0
331 1 1 0 3.04979713 19.61594308 7.50000000 0 0 0
332 1 1 0 2.32747675 18.39573874 7.50000000 0 0 0
333 1 1 0 3.02304452 17.16008879 7.50000000 0 0 0
334 1 1 0 2.30072415 15.93988445 7.50000000 0 0 0
335 1 1 0 2.99629191 14.70423450 7.50000000 0 0 0
336 1 1 0 2.27397154 13.48403016 7.50000000 0 0 0
337 1 1 0 2.96953931 12.24838021 7.50000000 0 0 0
338 1 1 0 2.24721893 11.02817587 7.50000000 0 0 0
339 1 1 0 2.94278670 9.79252591 7.50000000 0 0 0
340 1 1 0 2.22046633 8.57232158 7.50000000 0 0 0
341 1 1 0 2.91603409 7.33667162 7.50000000 0 0 0
342 1 1 0 2.19371372 6.11646729 7.50000000 0 0 0
343 1 1 0 2.88928149 4.88081733 7.50000000 0 0 0
344 1 1 0 2.16696111 3.66061300 7.50000000 0 0 0
345 1 1 0 2.86252888 2.42496304 7.50000000 0 0 0
346 1 1 0 2.14020851 1.20475871 7.50000000 0 0 0
347 1 1 0 7.08944070 195.18635644 7.50000000 0 0 0
348 1 1 0 6.36712033 193.96615211 7.50000000 0 0 0
349 1 1 0 7.06268810 192.73050215 7.50000000 0 0 0
350 1 1 0 6.34036773 191.51029781 7.50000000 0 0 0
351 1 1 0 7.03593549 190.27464786 7.50000000 0 0 0
352 1 1 0 6.31361512 189.05444352 7.50000000 0 0 0
353 1 1 0 7.00918288 187.81879357 7.50000000 0 0 0
354 1 1 0 6.28686251 186.59858923 7.50000000 0 0 0
355 1 1 0 6.98243028 185.36293928 7.50000000 0 0 0
356 1 1 0 6.26010991 184.14273494 7.50000000 0 0 0
357 1 1 0 6.95567767 182.90708498 7.50000000 0 0 0
358 1 1 0 6.23335730 181.68688065 7.50000000 0 0 0
359 1 1 0 6.92892506 180.45123069 7.50000000 0 0 0
360 1 1 0 6.20660469 179.23102636 7.50000000 0 0 0
361 1 1 0 6.90217246 177.99537640 7.50000000 0 0 0
362 1 1 0 6.17985209 176.77517207 7.50000000 0 0 0
363 1 1 0 6.87541985 175.53952211 7.50000000 0 0 0
364 1 1 0 6.15309948 174.31931778 7.50000000 0 0 0
365 1 1 0 6.84866724 173.08366782 7.50000000 0 0 0
366 1 1 0 6.12634687 171.86346349 7.50000000 0 0 0
367 1 1 0 6.82191464 170.62781353 7.50000000 0 0 0
368 1 1 0 6.09959427 169.40760920 7.50000000 0 0 0
369 1 1 0 6.79516203 168.17195924 7.50000000 0 0 0
370 1 1 0 6.07284166 166.95175491 7.50000000 0 0 0
371 1 1 0 6.76840942 165.71610495 7.50000000 0 0 0
372 1 1 0 6.04608905 164.49590062 7.50000000 0 0 0
373 1 1 0 6.74165682 163.26025066 7.50000000 0 0 0
374 1 1 0 6.01933645 162.04004632 7.50000000 0 0 0
375 1 1 0 6.71490421 160.80439637 7.50000000 0 0 0
376 1 1 0 5.99258384 159.58419203 7.50000000 0 0 0
377 1 1 0 6.68815160 158.34854208 7.50000000 0 0 0
378 1 1 0 5.96583123 157.12833774 7.50000000 0 0 0
379 1 1 0 6.66139900 155.89268778 7.50000000 0 0 0
380 1 1 0 5.93907863 154.67248345 7.50000000 0 0 0
381 1 1 0 6.63464639 153.43683349 7.50000000 0 0 0
382 1 1 0 5.91232602 152.21662916 7.50000000 0 0 0
383 1 1 0 6.60789378 150.98097920 7.50000000 0 0 0
384 1 1 0 5.88557341 149.76077487 7.50000000 0 0 0
385 1 1 0 6.58114118 148.52512491 7.50000000 0 0 0
386 1 1 0 5.85882081 147.30492058 7.50000000 0 0 0
387 1 1 0 6.55438857 146.06927062 7.50000000 0 0 0
388 1 1 0 5.83206820 144.84906629 7.50000000 0 0 0
389 1 1 0 6.52763596 143.61341633 7.50000000 0 0 0
390 1 1 0 5.80531559 142.39321200 7.50000000 0 0 0
391 1 1 0 6.50088336 141.15756204 7.50000000 0 0 0
392 1 1 0 5.77856299 139.93735771 7.50000000 0 0 0
393 1 1 0 6.47413075 138.70170775 7.50000000 0 0 0
394 1 1 0 5.75181038 137.48150342 7.50000000 0 0 0
395 1 1 0 6.44737814 136.24585346 7.50000000 0 0 0
396 1 1 0 5.72505777 135.02564912 7.50000000 0 0 0
397 1 1 0 6.42062554 133.78999917 7.50000000 0 0 0
398 1 1 0 5.69830517 132.56979483 7.50000000 0 0 0
399 1 1 0 6.39387293 131.33414488 7.50000000 0 0 0
400 1 1 0 5.67155256 130.11394054 7.50000000 0 0 0
401 1 1 0 6.36712032 128.87829058 7.50000000 0 0 0
402 1 1 0 5.64479995 127.65808625 7.50000000 0 0 0
403 1 1 0 6.34036772 126.42243629 7.50000000 0 0 0
404 1 1 0 5.61804735 125.20223196 7.50000000 0 0 0
405 1 1 0 6.31361511 123.96658200 7.50000000 0 0 0
406 1 1 0 5.59129474 122.74637767 7.50000000 0 0 0
407 1 1 0 6.28686250 121.51072771 7.50000000 0 0 0
408 1 1 0 5.56454213 120.29052338 7.50000000 0 0 0
409 1 1 0 6.26010990 119.05487342 7.50000000 0 0 0
410 1 1 0 5.53778953 117.83466909 7.50000000 0 0 0
411 1 1 0 6.23335729 116.59901913 7.50000000 0 0 0
412 1 1 0 5.51103692 115.37881480 7.50000000 0 0 0
413 1 1 0 6.20660468 114.14316484 7.50000000 0 0 0
414 1 1 0 5.48428431 112.92296051 7.50000000 0 0 0
415 1 1 0 6.17985208 111.68731055 7.50000000 0 0 0
416 1 1 0 5.45753171 110.46710622 7.50000000 0 0 0
417 1 1 0 6.15309947 109.23145626 7.50000000 0 0 0
418 1 1 0 5.43077910 108.01125192 7.50000000 0 0 0
419 1 1 0 6.12634686 106.77560197 7.50000000 0 0 0
420 1 1 0 5.40402649 105.55539763 7.50000000 0 0 0
421 1 1 0 6.09959426 104.31974768 7.50000000 0 0 0
422 1 1 0 5.37727389 103.09954334 7.50000000 0 0 0
423 1 1 0 6.07284165 101.86389339 7.50000000 0 0 0
424 1 1 0 5.35052128 100.64368905 7.50000000 0 0 0
425 1 1 0 6.04608905 99.40803909 7.50000000 0 0 0
426 1 1 0 5.32376867 98.18783476 7.50000000 0 0 0
427 1 1 0 6.01933644 96.95218480 7.50000000 0 0 0
428 1 1 0 5.29701607 95.73198047 7.50000000 0 0 0
429 1 1 0 5.99258383 94.49633051 7.50000000 0 0 0
430 1 1 0 5.27026346 93.27612618 7.50000000 0 0 0
431 1 1 0 5.96583123 92.04047622 7.50000000 0 0 0
432 1 1 0 5.24351085 90.82027189 7.50000000 0 0 0
433 1 1 0 5.93907862 89.58462193 7.50000000 0 0 0
434 1 1 0 5.21675825 88.36441760 7.50000000 0 0 0
435 1 1 0 5.91232601 87.12876764 7.50000000 0 0 0
436 1 1 0 5.19000564 85.90856331 7.50000000 0 0 0
437 1 1 0 5.88557341 84.67291335 7.50000000 0 0 0
438 1 1 0 5.16325303 83.45270902 7.50000000 0 0 0
439 1 1 0 5.85882080 82.21705906 7.50000000 0 0 0
440 1 1 0 5.13650043 80.99685473 7.50000000 0 0 0
441 1 1 0 5.83206819 79.76120477 7.50000000 0 0 0
442 1 1 0 5.10974782 78.54100043 7.50000000 0 0 0
443 1 1 0 5.80531559 77.30535048 7.50000000 0 0 0
444 1 1 0 5.08299521 76.08514614 7.50000000 0 0 0
445 1 1 0 5.77856298 74.84949619 7.50000000 0 0 0
446 1 1 0 5.05624261 73.62929185 7.50000000 0 0 0
447 1 1 0 5.75181037 72.39364189 7.50000000 0 0 0
448 1 1 0 5.02949000 71.17343756 7.50000000 0 0 0
449 1 1 0 5.72505777 69.93778760 7.50000000 0 0 0
450 1 1 0 5.00273739 68.71758327 7.50000000 0 0 0
451 1 1 0 5.69830516 67.48193331 7.50000000 0 0 0
452 1 1 0 4.97598479 66.26172898 7.50000000 0 0 0
453 1 1 0 5.67155255 65.02607902 7.50000000 0 0 0
454 1 1 0 4.94923218 63.80587469 7.50000000 0 0 0
455 1 1 0 5.64479995 62.57022473 7.50000000 0 0 0
456 1 1 0 4.92247957 61.35002040 7.50000000 0 0 0
457 1 1 0 5.61804734 60.11437044 7.50000000 0 0 0
458 1 1 0 4.89572697 58.89416611 7.50000000 0 0 0
459 1 1 0 5.59129473 57.65851615 7.50000000 0 0 0
460 1 1 0 4.86897436 56.43831182 7.50000000 0 0 0
461 1 1 0 5.56454213 55.20266186 7.50000000 0 0 0
462 1 1 0 4.84222175 53.98245753 7.50000000 0 0 0
463 1 1 0 5.53778952 52.74680757 7.50000000 0 0 0
464 1 1 0 4.81546915 51.52660323 7.50000000 0 0 0
465 1 1 0 5.51103691 50.29095328 7.50000000 0 0 0
466 1 1 0 4.78871654 49.07074894 7.50000000 0 0 0
467 1 1 0 5.48428431 47.83509899 7.50000000 0 0 0
468 1 1 0 4.76196393 46.61489465 7.50000000 0 0 0
469 1 1 0 5.45753170 45.37924470 7.50000000 0 0 0
470 1 1 0 4.73521133 44.15904036 7.50000000 0 0 0
471 1 1 0 5.43077909 42.92339040 7.50000000 0 0 0
472 1 1 0 4.70845872 41.70318607 7.50000000 0 0 0
473 1 1 0 5.40402649 40.46753611 7.50000000 0 0 0
474 1 1 0 4.68170611 39.24733178 7.50000000 0 0 0
475 1 1 0 5.37727388 38.01168182 7.50000000 0 0 0
476 1 1 0 4.65495351 36.79147749 7.50000000 0 0 0
477 1 1 0 5.35052127 35.55582753 7.50000000 0 0 0
478 1 1 0 4.62820090 34.33562320 7.50000000 0 0 0
479 1 1 0 5.32376867 33.09997324 7.50000000 0 0 0
480 1 1 0 4.60144829 31.87976891 7.50000000 0 0 0
481 1 1 0 5.29701606 30.64411895 7.50000000 0 0 0
482 1 1 0 4.57469569 29.42391462 7.50000000 0 0 0
483 1 1 0 5.27026345 28.18826466 7.50000000 0 0 0
484 1 1 0 4.54794308 26.96806033 7.50000000 0 0 0
485 1 1 0 5.24351085 25.73241037 7.50000000 0 0 0
486 1 1 0 4.52119047 24.51220603 7.50000000 0 0 0
487 1 1 0 5.21675824 23.27655608 7.50000000 0 0 0
488 1 1 0 4.49443787 22.05635174 7.50000000 0 0 0
489 1 1 0 5.19000563 20.82070179 7.50000000 0 0 0
490 1 1 0 4.46768526 19.60049745 7.50000000 0 0 0
491 1 1 0 5.16325303 18.36484750 7.50000000 0 0 0
492 1 1 0 4.44093265 17.14464316 7.50000000 0 0 0
493 1 1 0 5.13650042 15.90899320 7.50000000 0 0 0
494 1 1 0 4.41418005 14.68878887 7.50000000 0 0 0
495 1 1 0 5.10974781 13.45313891 7.50000000 0 0 0
496 1 1 0 4.38742744 12.23293458 7.50000000 0 0 0
497 1 1 0 5.08299521 10.99728462 7.50000000 0 0 0
498 1 1 0 4.36067483 9.77708029 7.50000000 0 0 0
499 1 1 0 5.05624260 8.54143033 7.50000000 0 0 0
500 1 1 0 4.33392223 7.32122600 7.50000000 0 0 0
501 1 1 0 5.02948999 6.08557604 7.50000000 0 0 0
502 1 1 0 4.30716962 4.86537171 7.50000000 0 0 0
503 1 1 0 5.00273739 3.62972175 7.50000000 0 0 0
504 1 1 0 4.28041701 2.40951742 7.50000000 0 0 0
505 1 1 0 4.97598478 1.17386746 7.50000000 0 0 0
506 1 1 0 8.50732884 195.17091081 7.50000000 0 0 0
507 1 1 0 9.20289660 193.93526086 7.50000000 0 0 0
508 1 1 0 8.48057623 192.71505652 7.50000000 0 0 0
509 1 1 0 9.17614400 191.47940657 7.50000000 0 0 0
510 1 1 0 8.45382363 190.25920223 7.50000000 0 0 0
511 1 1 0 9.14939139 189.02355227 7.50000000 0 0 0
512 1 1 0 8.42707102 187.80334794 7.50000000 0 0 0
513 1 1 0 9.12263878 186.56769798 7.50000000 0 0 0
514 1 1 0 8.40031841 185.34749365 7.50000000 0 0 0
515 1 1 0 9.09588618 184.11184369 7.50000000 0 0 0
516 1 1 0 8.37356581 182.89163936 7.50000000 0 0 0
517 1 1 0 9.06913357 181.65598940 7.50000000 0 0 0
518 1 1 0 8.34681320 180.43578507 7.50000000 0 0 0
519 1 1 0 9.04238096 179.20013511 7.50000000 0 0 0
520 1 1 0 8.32006059 177.97993078 7.50000000 0 0 0
521 1 1 0 9.01562836 176.74428082 7.50000000 0 0 0
522 1 1 0 8.29330799 175.52407649 7.50000000 0 0 0
523 1 1 0 8.98887575 174.28842653 7.50000000 0 0 0
524 1 1 0 8.26655538 173.06822220 7.50000000 0 0 0
525 1 1 0 8.96212315 171.83257224 7.50000000 0 0 0
526 1 1 0 8.23980277 170.61236791 7.50000000 0 0 0
527 1 1 0 8.93537054 169.37671795 7.50000000 0 0 0
528 1 1 0 8.21305017 168.15651361 7.50000000 0 0 0
529 1 1 0 8.90861793 166.92086366 7.50000000 0 0 0
530 1 1 0 8.18629756 165.70065932 7.50000000 0 0 0
531 1 1 0 8.88186533 164.46500937 7.50000000 0 0 0
532 1 1 0 8.15954495 163.24480503 7.50000000 0 0 0
533 1 1 0 8.85511272 162.00915507 7.50000000 0 0 0
534 1 1 0 8.13279235 160.78895074 7.50000000 0 0 0
535 1 1 0 8.82836011 159.55330078 7.50000000 0 0 0
536 1 1 0 8.10603974 158.33309645 7.50000000 0 0 0
537 1 1 0 8.80160751 157.09744649 7.50000000 0 0 0
538 1 1 0 8.07928713 155.87724216 7.50000000 0 0 0
539 1 1 0 8.77485490 154.64159220 7.50000000 0 0 0
540 1 1 0 8.05253453 153.42138787 7.50000000 0 0 0
541 1 1 0 8.74810229 152.18573791 7.50000000 0 0 0
542 1 1 0 8.02578192 150.96553358 7.50000000 0 0 0
543 1 1 0 8.72134969 149.72988362 7.50000000 0 0 0
544 1 1 0 7.99902931 148.50967929 7.50000000 0 0 0
545 1 1 0 8.69459708 147.27402933 7.50000000 0 0 0
546 1 1 0 7.97227671 146.05382500 7.50000000 0 0 0
547 1 1 0 8.66784447 144.81817504 7.50000000 0 0 0
548 1 1 0 7.94552410 143.59797071 7.50000000 0 0 0
549 1 1 0 8.64109187 142.36232075 7.50000000 0 0 0
550 1 1 0 7.91877149 141.14211641 7.50000000 0 0 0
551 1 1 0 8.61433926 139.90646646 7.50000000 0 0 0
552 1 1 0 7.89201889 138.68626212 7.50000000 0 0 0
553 1 1 0 8.58758665 137.45061217 7.50000000 0 0 0
554 1 1 0 7.86526628 136.23040783 7.50000000 0 0 0
555 1 1 0 8.56083405 134.99475788 7.50000000 0 0 0
556 1 1 0 7.83851367 133.77455354 7.50000000 0 0 0
557 1 1 0 8.53408144 132.53890358 7.50000000 0 0 0
558 1 1 0 7.81176107 131.31869925 7.50000000 0 0 0
559 1 1 0 8.50732883 130.08304929 7.50000000 0 0 0
560 1 1 0 7.78500846 128.86284496 7.50000000 0 0 0
561 1 1 0 8.48057623 127.62719500 7.50000000 0 0 0
562 1 1 0 7.75825585 126.40699067 7.50000000 0 0 0
563 1 1 0 8.45382362 125.17134071 7.50000000 0 0 0
564 1 1 0 7.73150325 123.95113638 7.50000000 0 0 0
565 1 1 0 8.42707101 122.71548642 7.50000000 0 0 0
566 1 1 0 7.70475064 121.49528209 7.50000000 0 0 0
567 1 1 0 8.40031841 120.25963213 7.50000000 0 0 0
568 1 1 0 7.67799803 119.03942780 7.50000000 0 0 0
569 1 1 0 8.37356580 117.80377784 7.50000000 0 0 0
570 1 1 0 7.65124543 116.58357351 7.50000000 0 0 0
571 1 1 0 8.34681319 115.34792355 7.50000000 0 0 0
572 1 1 0 7.62449282 114.12771922 7.50000000 0 0 0
573 1 1 0 8.32006059 112.89206926 7.50000000 0 0 0
574 1 1 0 7.59774021 111.67186492 7.50000000 0 0 0
575 1 1 0 8.29330798 110.43621497 7.50000000 0 0 0
576 1 1 0 7.57098761 109.21601063 7.50000000 0 0 0
577 1 1 0 8.26655537 107.98036068 7.50000000 0 0 0
578 1 1 0 7.54423500 106.76015634 7.50000000 0 0 0
579 1 1 0 8.23980277 105.52450638 7.50000000 0 0 0
580 1 1 0 7.51748239 104.30430205 7.50000000 0 0 0
581 1 1 0 8.21305016 103.06865209 7.50000000 0 0 0
582 1 1 0 7.49072979 101.84844776 7.50000000 0 0 0
583 1 1 0 8.18629755 100.61279780 7.50000000 0 0 0
584 1 1 0 7.46397718 99.39259347 7.50000000 0 0 0
585 1 1 0 8.15954495 98.15694351 7.50000000 0 0 0
586 1 1 0 7.43722457 96.93673918 7.50000000 0 0 0
587 1 1 0 8.13279234 95.70108922 7.50000000 0 0 0
588 1 1 0 7.41047197 94.48088489 7.50000000 0 0 0
589 1 1 0 8.10603973 93.24523493 7.50000000 0 0 0
590 1 1 0 7.38371936 92.02503060 7.50000000 0 0 0
591 1 1 0 8.07928713 90.78938064 7.50000000 0 0 0
592 1 1 0 7.35696675 89.56917631 7.50000000 0 0 0
593 1 1 0 8.05253452 88.33352635 7.50000000 0 0 0