ITEM: TIMESTEP
62
ITEM: NUMBER OF ATOMS
1736
ITEM: BOX BOUNDS pp pp pp
0.0000000000000000e+00 3.6179139200000002e+01
0.0000000000000000e+00 6.2664107199999997e+01
0.0000000000000000e+00 1.5000000000000000e+01
ITEM: ATOMS id type x y z c_csym c_2[1] c_2[2] c_2[3] c_2[4] c_2[5] c_2[6] c_3 
53 1 0.352092 9.81675 2.92574 6.0132 -145036 -153204 31409.8 -41291.2 42258.7 -5811.05 -7.41745 
54 1 1.01811 8.56484 2.91434 6.00996 -171665 -129472 -20422 -33808.3 19092.9 -6477.81 -7.41389 
55 1 0.26701 7.36249 2.90378 6.0187 -144796 -155503 12765.2 -23908.7 31224.6 -4651.97 -7.41549 
56 1 0.931755 6.11 2.89445 6.01608 -163611 -136289 -7250.83 -16928.6 15180.4 -6169.32 -7.41398 
57 1 0.179337 4.90834 2.88633 6.02404 -144879 -154456 3751.4 -9885.91 17758.7 -3027.5 -7.41432 
58 1 0.843222 3.65545 2.88041 6.02309 -156369 -142251 -785.71 -5813.73 8568.56 -4733.9 -7.41384 
59 1 0.0900216 2.45419 2.87577 6.02829 -146413 -151806 1464.17 -2247.18 6928.77 -1517.25 -7.41379 
60 1 0.753511 1.20111 2.87348 6.02882 -151026 -146910 1373.18 -1154.04 2424.52 -2669.39 -7.4137 
61 1 7.16165e-06 5.46316e-06 2.87235 6.03107 -148945 -148973 1548.31 30.0272 0.203947 0.0268059 -7.41366 
105 1 3.18457 9.7165 2.92887 6.00885 -195636 -106105 -19713.4 -43426.9 17181.1 -18975.8 -7.41436 
106 1 2.43516 8.51319 2.91667 6.00888 -163911 -137216 14547.6 -28927.4 36249.9 -7390.7 -7.41617 
107 1 3.09994 7.26053 2.90806 6.01146 -182170 -118753 -5517.93 -24495.7 16974.5 -17967.4 -7.4145 
108 1 2.34875 6.05818 2.89685 6.01618 -156702 -143922 3088.1 -11580.6 23407.2 -7579.59 -7.41472 
109 1 3.01269 4.80521 2.89103 6.01791 -168518 -130958 758.915 -9704.79 11996 -14976 -7.41429 
110 1 2.26017 3.60356 2.88277 6.02258 -151699 -147291 -223.599 -526.253 10636.8 -6706 -7.41397 
111 1 2.92369 2.35044 2.88044 6.02502 -157545 -141122 2006.7 -2073.68 5419.7 -11004.8 -7.41399 
112 1 2.17044 1.14918 2.87577 6.02641 -149409 -148779 552.412 3844.29 1515.35 -5696.18 -7.41374 
156 1 4.60154 9.66556 2.93349 5.99728 -187552 -114482 8357.4 -33002 38009.4 -6041.52 -7.41651 
157 1 5.26638 8.41269 2.92647 6.0069 -203200 -97636.4 4950.42 -30031.2 16497.8 -29898.9 -7.41571 
158 1 4.51688 7.20935 2.91348 6.00518 -174390 -127751 -3669.4 -11883.8 28295.5 -9918.75 -7.41499 
159 1 5.18094 5.95626 2.90826 6.01284 -185608 -114525 9404.74 -11163.9 15447 -27323.9 -7.41538 
160 1 4.42961 4.7539 2.89681 6.01412 -162764 -137653 -6632.31 3702.24 15437.4 -11528.4 -7.41415 
161 1 5.0932 3.50072 2.89459 6.01987 -169440 -130500 7323.15 481.257 10157.7 -22688.8 -7.41481 
162 1 4.3406 2.29903 2.88627 6.02005 -154507 -144588 -3847.02 11242 3927.43 -11948.3 -7.41389 
163 1 5.00411 1.04591 2.88749 6.02164 -155403 -144223 2160.64 4519.48 3497.52 -17659.4 -7.41429 
207 1 7.4309 9.56707 2.94602 5.99784 -219861 -77596.4 24889.5 -33801.6 12058.3 -37735.1 -7.41762 
208 1 6.68326 8.36257 2.93345 5.99604 -194389 -107754 -18903.9 -11899.8 29660.4 -7827.51 -7.41485 
209 1 7.34755 7.10942 2.92953 6.00604 -202508 -95402.2 27674.8 -10569.2 16461.9 -37836.4 -7.41723 
210 1 6.5978 5.90605 2.91653 6.00485 -178629 -122909 -20081.1 9765.46 19078 -13470.6 -7.41409 
211 1 7.26156 4.65283 2.91475 6.01452 -184348 -115132 21291.9 6754.21 14799 -34797.8 -7.41638 
212 1 6.51005 3.45041 2.90357 6.01216 -165160 -135451 -13834.1 22742.3 6787.7 -17024.8 -7.41393 
213 1 7.17367 2.19728 2.90485 6.01517 -166696 -134165 10025.7 14884.1 9457.63 -29852.9 -7.41542 
214 1 6.42099 0.995493 2.8968 6.01501 -153946 -146024 -4043.05 26894.1 -3937.12 -19445.2 -7.41422 
258 1 8.84774 9.51813 2.95247 5.99267 -210173 -88952.5 -42668.2 -13825 26212 -1919 -7.41413 
260 1 8.76437 7.06062 2.93826 5.99914 -193984 -106323 -41996.3 14716.5 19136.5 -10892 -7.41356 
262 1 8.67836 4.60412 2.92521 6.00696 -178485 -122778 -31658 35511.8 8099.93 -17923.2 -7.41363 
264 1 8.59049 2.14855 2.91642 6.00986 -163876 -137502 -15317.1 45528.4 -3632.77 -23139.3 -7.41422 
874 2 0.398705 8.61511 6.48525 6.01449 -138212 -161282 21292 33160.4 37536.2 4583.16 -7.41638 
875 2 0.485133 6.16119 6.50541 6.01993 -140564 -159278 7322.23 17055.7 24727.3 2547 -7.41481 
876 2 0.573707 3.70721 6.51956 6.02496 -143489 -155308 2006.97 6103.4 12239.6 809.39 -7.41399 
877 2 0.663443 1.25311 6.52652 6.02884 -146966 -150933 1373.26 1253.09 3524.37 -765.112 -7.4137 
878 2 7.46044e-06 2.56001e-06 6.52765 6.03107 -148962 -148866 1548.36 2.31285 -0.202137 -0.0965519 -7.41366 
921 2 2.48318 9.91787 6.47047 6.00606 -113015 -185005 27674.6 40911.8 40998.8 4662.07 -7.41723 
922 2 1.8159 8.66688 6.48347 6.00485 -145341 -156202 -20080.6 29035.1 21205.6 -9786.53 -7.41409 
923 2 2.56782 7.46495 6.49174 6.01284 -122653 -177562 9403.84 25038 31387.8 284.83 -7.41538 
924 2 1.90222 6.2131 6.50319 6.01422 -147172 -153321 -6632.81 12759.3 17702.8 -7605.34 -7.41415 
925 2 2.6551 5.01166 6.50897 6.01797 -131983 -167548 758.463 11443 18967.2 -2901.09 -7.41429 
926 2 1.9907 3.75915 6.51723 6.02252 -147944 -151015 -223.438 1653.98 11126 -5859.03 -7.41397 
927 2 2.74411 2.55797 6.51959 6.02305 -140764 -157856 -786.123 3198.03 8384.23 -5053.64 -7.41384 
928 2 2.08039 1.30505 6.52422 6.02828 -148549 -149726 1464.16 -3451.67 4778.36 -5242.43 -7.41379 
929 2 2.8339 0.103925 6.52307 6.02625 -148914 -149492 718.685 304.898 907.077 -7480.79 -7.4138 
972 2 3.90058 9.96915 6.46655 5.996 -119245 -183069 -18903.5 31653.7 21609.2 -21771.9 -7.41486 
973 2 4.65243 8.76716 6.47353 6.00688 -98066.7 -202879 4949.05 30624.2 34142.3 661.93 -7.41571 
974 2 3.98506 7.5164 6.48652 6.00523 -129227 -172955 -3668.98 14231.1 22737.9 -19545.4 -7.41499 
975 2 4.73784 6.31488 6.49194 6.01148 -113511 -187488 -5517.99 15170 24048.2 -5717.09 -7.4145 
976 2 4.07218 5.06316 6.50315 6.01621 -137130 -163529 3088.91 -310.822 18268.2 -16482 -7.41471 
977 2 4.82555 3.86191 6.50555 6.01616 -128459 -171357 -7250.81 3443.55 12932.2 -10062.6 -7.41398 
978 2 4.16109 2.60947 6.51367 6.02406 -143503 -155876 3751.76 -9068.57 11501.5 -13866.4 -7.41432 
979 2 4.91461 1.40828 6.51254 6.01907 -142249 -157074 -3549.05 -3037.12 3782.11 -13525.6 -7.41396 
980 2 4.25082 0.155398 6.51722 6.0222 -148811 -150015 669.264 -12553 4512.27 -12412.8 -7.414 
1023 2 6.73923 10.0674 6.45453 6.00214 -72960.5 -228066 -9158.06 33571.7 31337.6 4609.33 -7.41553 
1024 2 6.06986 8.81782 6.46651 5.99729 -104257 -197881 8356.89 15112.5 24237.6 -29895.6 -7.41652 
1025 2 6.82246 7.61616 6.47113 6.00886 -91077.5 -210831 -19712.8 17089.9 25025.7 -5391.73 -7.41436 
1026 2 6.15507 6.3655 6.48333 6.00892 -118901 -182376 14547.2 -2990.2 24526.5 -27697.5 -7.41617 
1027 2 6.90833 5.16412 6.48566 6.00996 -110869 -190369 -20421.9 1473.12 15156.2 -13296.1 -7.41389 
1028 2 6.24261 3.91247 6.49622 6.01871 -132052 -168234 12766.4 -16646.7 19641.2 -24715.5 -7.41549 
1029 2 6.99611 2.71117 6.49527 6.01072 -130611 -170309 -13597 -9554.61 5365.89 -19218.1 -7.41403 
1030 2 6.33155 1.45879 6.50309 6.01683 -143503 -156367 5741.2 -24573.9 12475.9 -21835.8 -7.41478 
1031 2 7.08487 0.257358 6.49858 6.01176 -149152 -151988 -2499.2 -15166.2 -2702.31 -24464.6 -7.41458 
1074 2 8.15689 10.1171 6.44739 5.99245 -78732.9 -219241 29563.5 16790.8 19959.6 -35634.3 -7.41857 
1075 2 8.90908 8.91522 6.45087 6.01001 -72087.2 -228069 -42620.8 17781.6 21485.5 -1545.44 -7.41372 
1076 2 8.23988 7.66562 6.46141 6.00315 -96820.7 -201198 35612.8 -4735.05 26321.8 -35463.1 -7.41832 
1077 2 8.99281 6.46399 6.46355 6.00757 -92933.4 -207859 -41969.7 -1907.41 13947.5 -12304.7 -7.41337 
1078 2 8.32553 5.21329 6.47426 6.01322 -115431 -182973 31408.3 -24398.6 26163.1 -33690.5 -7.41745 
1080 2 8.41312 2.76013 6.48313 6.01107 -133187 -166242 19558.3 -38467.3 21310.3 -30766.3 -7.4163 
1082 2 8.50175 0.306181 6.48645 6.01055 -149253 -151476 2958.88 -45882 13638.9 -27225.7 -7.41516 
259 1 9.5125 8.26507 2.95046 5.99824 -211481 -79144 53818.7 -9880.2 13715.2 -41783.1 -7.41967 
261 1 9.42852 5.8075 2.93733 6.00795 -195904 -98938.4 44758.7 14394.8 17298 -42079.4 -7.41868 
263 1 9.34224 3.35106 2.92656 6.00911 -179073 -120479 27380.9 29236.6 15261.6 -39229.3 -7.41731 
265 1 9.25454 0.895748 2.92065 6.00332 -160257 -141799 6354.8 33607 10328.9 -34226.2 -7.41587 
309 1 11.6762 9.4229 2.96697 5.99528 -206955 -72248.7 81804.2 -11333 7445.45 -37245.2 -7.42222 
310 1 10.9293 8.2176 2.95743 6.00002 -201509 -93585.6 -69805.5 14741.6 15394.5 -5617.5 -7.41258 
311 1 11.5942 6.9648 2.95764 6.00299 -196954 -87626.1 73443.7 19324.2 16630.6 -40835.1 -7.42135 
312 1 10.8453 5.76052 2.94678 6.0063 -187872 -110760 -57255.3 44287.1 6755.07 -14189.5 -7.41285 
313 1 11.5098 4.50771 2.94822 6.00524 -185428 -107642 53111.3 42770.4 19336.1 -41127.9 -7.41977 
314 1 10.759 3.30439 2.93799 6.00989 -174230 -127117 -35221.1 63163.9 -4533.27 -21231.6 -7.41378 
315 1 11.4234 2.05174 2.94149 5.99693 -170684 -129141 24837.7 54453.3 17512.7 -38150 -7.41782 
316 1 10.6714 0.849132 2.93336 6.00643 -159094 -142453 -7982.69 69515.4 -15271.6 -26866.7 -7.41518 
360 1 13.0932 9.37631 2.97095 6.0059 -196418 -91026.8 -96496.5 8371.45 9674.36 -957.761 -7.41145 
361 1 13.7592 8.1241 2.97232 6.00345 -184086 -86972.3 99955.1 18605.2 12786.3 -31274.4 -7.4238 
362 1 13.0111 6.91922 2.96409 6.01028 -186874 -105084 -85582.5 44542.2 3753.4 -8375.49 -7.41179 
363 1 13.6765 5.66688 2.96563 6.00273 -180214 -101364 81268.7 50027.8 20742.4 -34139.9 -7.42231 
364 1 12.9266 4.4629 2.957 6.01351 -177774 -119597 -61882.7 72834.9 -6208.69 -14907 -7.41289 
365 1 13.5916 3.21057 2.95959 5.99397 -173767 -119036 50333.7 70920.5 22955.8 -33854.2 -7.42013 
366 1 12.8402 2.00734 2.95211 6.00383 -167137 -133332 -28439.8 88143 -17057.5 -20465.9 -7.41465 
367 1 13.5053 0.755231 2.95616 5.98914 -161947 -137506 11696.3 78403.3 21509.2 -30474.3 -7.41762 
411 1 15.9241 9.28426 2.98041 6.00958 -159134 -100447 118084 11599.8 6645.05 -16439.5 -7.42548 
412 1 15.1762 8.07925 2.97509 6.01723 -173113 -111023 -108899 35201.9 918.099 -3181.94 -7.41081 
413 1 15.8428 6.82761 2.97659 6.0036 -162195 -106515 104477 47919.3 19131.9 -20226.8 -7.42435 
414 1 15.0934 5.62331 2.97032 6.01489 -170055 -120515 -88516.2 70615.3 -7148.52 -7275.45 -7.41184 
415 1 15.7593 4.37149 2.97192 5.99266 -165396 -116999 76336 77532.3 25707.3 -22116.9 -7.42227 
416 1 15.0084 3.16785 2.96613 6.00305 -166919 -129343 -54578 95159.5 -17655.1 -10912.2 -7.41368 
417 1 15.6741 1.91602 2.96837 5.98814 -164276 -129344 35919.4 94080.6 27374.7 -21325.5 -7.41956 
418 1 14.9222 0.712857 2.96413 5.99384 -160579 -137544 -11356.6 104951 -26581.7 -14065.3 -7.41618 
462 1 17.3413 9.23935 2.97988 6.02471 -148679 -130098 -121685 18607.3 -490.136 -96.0929 -7.41022 
463 1 18.0094 7.98859 2.98109 6.00644 -135008 -124788 117606 36785.9 15222.8 -2883.22 -7.42548 
464 1 17.2599 6.78438 2.9771 6.01592 -150996 -132922 -107670 56683.1 -6246 -805.395 -7.41098 
465 1 17.927 5.53322 2.97753 5.99397 -145878 -126432 96007.5 71789.8 25436.9 -5603.08 -7.42377 
466 1 17.1763 4.32951 2.97369 6.00276 -155724 -135138 -78676.9 88054.2 -15825.1 -1521.21 -7.41261 
467 1 17.8426 3.07808 2.97406 5.98752 -155621 -130699 59843.5 96885.7 30189.5 -7024.34 -7.42121 
468 1 17.0909 1.87475 2.97143 5.9933 -159384 -136531 -36413.5 106482 -25248 -2074.48 -7.41507 
469 1 17.757 0.623222 2.97205 5.98757 -159359 -135675 12991.8 107857 30089.9 -6734.38 -7.41819 
1079 2 9.07886 4.01177 6.47376 6.00342 -115909 -185266 -31597.3 -18501.9 4547.87 -20991.6 -7.41373 
1081 2 9.16642 1.55852 6.47939 6.00147 -139065 -163120 -14401.4 -29472.7 -3809.61 -28080.2 -7.41462 
1125 2 10.9974 10.2124 6.4351 6.01135 -64527.9 -230526 -69884.5 19333.4 15088.9 3466.18 -7.41272 
1126 2 10.3267 8.96356 6.44191 6.00048 -78344.4 -211084 62879.4 -3338.5 21686.5 -37176.1 -7.42082 
1127 2 11.079 7.7615 6.44381 6.01062 -81687.5 -214443 -69594.5 -4251.26 10291.9 -7782.34 -7.41243 
1128 2 10.4102 6.51163 6.45222 6.0076 -98740.6 -192191 58141.1 -28845.6 27613.3 -36943.4 -7.41999 
1129 2 11.1631 5.30973 6.45244 6.00105 -103803 -194178 -57340.7 -27229.4 1917.07 -17542.8 -7.41294 
1130 2 10.496 4.05886 6.46101 6.00357 -120379 -174136 42780.5 -50375 27733.8 -34897.9 -7.41854 
1131 2 11.2491 2.85695 6.45864 5.99512 -128339 -172496 -35093.3 -44872.6 -6744.01 -25754.5 -7.41415 
1132 2 10.5834 1.60528 6.46621 6.00342 -141185 -157853 19531.8 -64624 23303 -31409.1 -7.41685 
1133 2 11.3362 0.403136 6.4609 5.99357 -151496 -150821 -6232.92 -54467.8 -13277.3 -32718.1 -7.41586 
1176 2 12.4151 10.26 6.42809 5.99908 -71159.3 -206177 89285.1 2880.66 11507.2 -32420.3 -7.42312 
1177 2 13.1663 9.0573 6.42968 6.01589 -83361.9 -205400 -96324.8 -2821.02 5983.18 -2607.73 -7.41138 
1178 2 12.4965 7.8079 6.43438 6.00525 -89002.4 -189692 86667 -27137.9 22838.1 -33031.5 -7.42261 
1179 2 13.2485 6.60542 6.43543 6.00501 -100277 -190881 -85695.2 -31773.1 -563.628 -11136.5 -7.41185 
1180 2 12.5803 5.35511 6.44133 5.99806 -110640 -173791 71145.1 -55741.2 28876.6 -31752.4 -7.42117 
1181 2 13.3329 4.15273 6.44075 5.99565 -121873 -173954 -62175.1 -56850.4 -9470.63 -18503.7 -7.41317 
1182 2 12.6661 2.90164 6.44676 5.99507 -133199 -159591 44180 -77804.5 29591.7 -28947.6 -7.41913 
1183 2 13.4188 1.69919 6.44388 5.98982 -143887 -155932 -28055.9 -73136.1 -17082.9 -25021.3 -7.41518 
1184 2 12.7531 0.447501 6.4492 5.99687 -152619 -146364 9137.39 -89338.2 25446.6 -25120.9 -7.41684 
1227 2 15.2541 10.3524 6.42205 6.02096 -99712.7 -182106 -114974 4331.86 2200.68 881.383 -7.41056 
1228 2 14.5839 9.10307 6.42296 6.00683 -91650.2 -173972 109655 -17888.9 13447.5 -23048.9 -7.42472 
1229 2 15.3346 7.89982 6.42472 6.0129 -109022 -174592 -108958 -28907 -1607.05 -4900.28 -7.41084 
1230 2 14.6659 6.6497 6.42732 5.99845 -109221 -162331 97470.9 -51789.7 24567.3 -21865.1 -7.42359 
1231 2 15.4174 5.44669 6.42859 6.0016 -123968 -164871 -88780.5 -61004 -9699.31 -9821.62 -7.41198 
1232 2 14.75 4.1959 6.43193 5.99178 -129756 -153081 71410.6 -81071.1 30499.6 -19551.1 -7.42156 
1233 2 15.5021 2.99302 6.43174 5.99322 -141218 -153772 -54746.9 -84759.1 -18809.9 -14236 -7.41398 
1234 2 14.8357 1.74172 6.43512 5.99004 -148223 -145278 33354.2 -99816.5 31131.8 -16871.6 -7.41895 
1235 2 15.588 0.538803 6.43293 5.98851 -156075 -141751 -10642.2 -96192.6 -25124.2 -18304.1 -7.41664 
1278 2 16.6717 10.3983 6.41793 6.01217 -108217 -148553 122297 -1906.19 1956.11 -9768.57 -7.42588 
1279 2 17.4208 9.19418 6.4201 6.02276 -129910 -148803 -121692 -17598.3 -1054.2 -854.557 -7.41022 
1280 2 16.752 7.94388 6.41983 6.00459 -119044 -141739 115654 -38039.5 16737.2 -7933.31 -7.42528 
1281 2 17.5021 6.74008 6.42271 6.01168 -136412 -146991 -107728 -54556.6 -6932.45 -2584.89 -7.411 
1282 2 16.8346 5.48925 6.42344 5.99349 -134172 -138422 94478.7 -72671.3 26738.5 -5503.79 -7.42357 
1283 2 17.5858 4.28581 6.42586 5.99955 -146239 -144062 -78763.4 -85352.4 -16357.9 -4024.17 -7.41268 
1284 2 16.9191 3.03458 6.42686 5.98825 -148798 -137457 58890.8 -98074.5 31362.3 -3540.91 -7.42103 
1285 2 17.671 1.83138 6.42789 5.99132 -155457 -140172 -36384.7 -103879 -25213.7 -5456.02 -7.41518 
1286 2 17.0049 0.579923 6.42878 5.98901 -157901 -137138 12601.6 -109807 30838 -2552.47 -7.41804 
461 1 18.0896 10.444 2.98275 6.01708 -127568 -127577 124529 -44.0585 0.300497 -0.246185 -7.42608 
512 1 19.507 10.3983 2.97988 6.02473 -118570 -160253 -121685 -1309.18 328.183 -376.194 -7.41022 
513 1 20.1767 9.14852 2.98042 6.00958 -105088 -154602 118084 19584.9 10914.5 13975 -7.42548 
514 1 19.4267 7.94477 2.97811 6.01672 -124437 -156797 -115025 34403.8 -3147.51 2880.77 -7.41058 
515 1 20.0951 6.69437 2.9771 5.99836 -120028 -147259 104677 55343.6 23123.1 12083.8 -7.42431 
516 1 19.3442 5.49095 2.97487 6.0038 -135125 -151919 -93856.4 68541.8 -11210.6 5565.49 -7.41179 
517 1 20.0113 4.24 2.9732 5.99069 -137522 -142811 76712.4 85851.5 30123.1 9734.43 -7.42218 
518 1 19.2596 3.03684 2.97209 5.9943 -147706 -145958 -58115.7 93429.8 -20716.4 8001.3 -7.41389 
519 1 19.926 1.78551 2.97034 5.98855 -152129 -139937 35877.4 104854 31823.2 7820.19 -7.41941 
520 1 19.1738 0.582431 2.97101 5.98865 -157538 -139091 -11678.4 104853 -27523.5 10346.5 -7.41668 
563 1 22.3448 10.3065 2.97659 6.00363 -78938.9 -189953 104476 209.638 7950.78 26682.5 -7.42435 
564 1 21.5942 9.10335 2.97509 6.01722 -96021.7 -188199 -108898 9194.59 2296.39 2385.79 -7.41081 
565 1 22.2639 7.85375 2.97233 6.00346 -95228.4 -175857 99954.5 32840 20691 26711.3 -7.4238 
566 1 21.5124 6.65085 2.97095 6.00592 -110057 -177329 -96496.6 41396.7 -4007.65 8857.09 -7.41145 
567 1 22.1806 5.40046 2.96697 5.9953 -115795 -163375 81804.6 64111.4 28532.4 25070.4 -7.42222 
568 1 21.4285 4.19771 2.96681 5.99624 -128639 -164578 -70199.8 68962.1 -13054.6 14466.4 -7.41297 
569 1 22.0953 2.94665 2.96251 5.99145 -137036 -152885 50911.4 88047.3 31058.7 22381.7 -7.41995 
570 1 21.3429 1.74392 2.9643 5.98975 -147272 -150709 -31954.7 86437.5 -20914.4 19578.1 -7.41525 
571 1 22.0089 0.492369 2.96035 5.99275 -154365 -143196 10737.8 100144 28406.3 19193.2 -7.41734 
614 1 23.7625 10.2596 2.97032 6.01488 -71656.8 -218895 -88516.1 -13821 9875.51 -2553.57 -7.41184 
615 1 24.4333 9.01072 2.96563 6.00274 -77853.8 -203836 81268.5 9246.64 19195.1 35033.4 -7.42231 
616 1 23.6814 7.80833 2.96409 6.01024 -86988.5 -205014 -85581.8 13054.2 5377.55 7438.21 -7.41179 
617 1 24.3503 6.5585 2.95764 6.003 -98336.6 -186144 73443.5 37865.7 27049.3 34820.2 -7.42135 
618 1 23.5978 5.35627 2.95743 6.00005 -107710 -187243 -69805.8 39277.5 -2831.39 16140.4 -7.41258 
619 1 24.2651 4.10552 2.95046 5.99824 -120930 -169719 53819 62403.5 29328.1 32769.2 -7.41967 
620 1 23.5123 2.90329 2.95247 5.9927 -131110 -168037 -42669.3 59298.1 -11444.1 23659.4 -7.41413 
621 1 24.1784 1.6518 2.94602 5.99782 -142517 -155053 24891.6 78649.7 26650.4 29310.1 -7.41762 
622 1 23.4257 0.449386 2.95065 5.98988 -152891 -148435 -7714.8 69833.2 -17595.8 30168.6 -7.41623 
665 1 26.6029 10.1654 2.9596 5.99399 -71337.8 -221564 50334.1 -11673.3 17840.7 36807 -7.42012 
666 1 25.8509 8.96329 2.957 6.01349 -71078.5 -226409 -61883.1 -11287.9 16014.3 2076.63 -7.41289 
667 1 26.5205 7.71389 2.94822 6.00526 -90190 -202947 53112 12453.6 25950.4 37309.1 -7.41977 
668 1 25.7677 6.51206 2.94678 6.00627 -91661.9 -206968 -57255.1 11143.8 8912.01 12944.2 -7.41285 
669 1 26.4354 5.26159 2.93733 6.00796 -110868 -183978 44759.3 34965.2 27793.3 36020.4 -7.41868 
670 1 25.6823 4.05985 2.93826 5.99915 -115462 -184854 -41996.6 30465.2 -134.376 22018 -7.41356 
671 1 26.3484 2.80845 2.92953 6.00605 -131460 -166523 27676.1 51772.5 24536.5 33174.7 -7.41723 
672 1 25.5953 1.60658 2.93345 5.996 -139716 -162561 -18904.1 43368.6 -8050.38 29599.9 -7.41486 
673 1 26.2604 0.35447 2.92647 6.00691 -150061 -150779 4950.66 60824.3 17643.8 29236.5 -7.41571 
1330 2 18.8381 9.23891 6.41793 6.0122 -140056 -116710 122297 -16473.1 7481.95 6578.67 -7.42588 
1331 2 19.5866 8.03425 6.42205 6.02096 -157660 -124015 -114974 -37717.1 -1863.37 1465.52 -7.41056 
1332 2 18.9193 6.78306 6.42097 6.0006 -147516 -118367 108201 -53464.8 20375.2 9827.17 -7.42471 
1333 2 19.6692 5.57897 6.42574 6.01121 -159212 -128963 -93700 -73596.3 -9899.76 3333.84 -7.41171 
1334 2 19.0028 4.32749 6.42489 5.99052 -156102 -124080 79206.9 -84051.2 27638.5 11935.9 -7.42255 
1335 2 19.7539 3.12392 6.42903 5.99932 -161253 -133277 -58011.1 -98863.8 -20129.2 5007.01 -7.41372 
1336 2 19.0879 1.87232 6.42791 5.98676 -160597 -131549 37181.1 -101865 29829.5 12006.9 -7.41973 
1337 2 19.8398 0.669111 6.4305 5.99155 -159941 -136827 -12033.7 -109469 -28315.6 6412.46 -7.41643 
1381 2 21.6704 9.33025 6.42472 6.01295 -183191 -100324 -108958 -13830.3 5047.27 1058.98 -7.41084 
1382 2 21.0037 8.07849 6.42296 6.00682 -168738 -96709.4 109655 -26678.5 13236.7 23171.7 -7.42472 
1383 2 21.7521 6.87373 6.42968 6.01592 -177368 -111356 -96325.4 -51364.3 -732.486 6485.03 -7.41138 
1384 2 21.0862 5.62178 6.42809 5.99913 -169892 -107319 89284.9 -59981.4 22323.4 26175.7 -7.42312 
1385 2 21.8363 4.41778 6.4351 6.01138 -172330 -122563 -69885.4 -81483.7 -10545.9 11333.8 -7.41272 
1386 2 21.1708 3.16577 6.43289 5.99103 -168705 -121299 55509.6 -82666.6 25750.9 26477.9 -7.42075 
1387 2 21.9222 1.96242 6.43882 5.99964 -165684 -133268 -32167.7 -98281.7 -20974.8 15559 -7.4148 
1388 2 21.2567 0.710553 6.43565 5.98782 -161508 -136173 12630.3 -91430 25149.1 23943.6 -7.41798 
1432 2 23.0874 9.37615 6.42732 5.99846 -193833 -77750 97470.3 2860.82 6652.23 32209.1 -7.42359 
1433 2 23.8345 8.1708 6.43543 6.00501 -195874 -95376 -85695 -23197 9925.97 5080.44 -7.41185 
1434 2 23.1691 6.91832 6.43438 6.00522 -188004 -90745.5 86666.4 -30082.5 17186.8 36294.1 -7.42261 
1435 2 23.918 5.71392 6.44381 6.01057 -185166 -111123 -69594 -55188.2 1593.07 12804.3 -7.41243 
1436 2 23.2531 4.46139 6.44191 6.00049 -180778 -108591 62879.8 -55897.6 21351.9 37369 -7.42082 
1437 2 24.0038 3.25787 6.45087 6.01001 -173786 -126403 -42621.6 -76417.4 -9404.48 19378.3 -7.41372 
1438 2 23.339 2.00549 6.44739 5.99246 -169692 -128453 29564 -69267.1 20879.3 35103.5 -7.41857 
1439 2 24.0909 0.802645 6.45453 6.00213 -160145 -140859 -9159.23 -83930.9 -19659.8 24834.7 -7.41554 
1483 2 25.9164 9.47022 6.44075 5.99569 -210286 -85602.8 -62176.4 6088.2 20758.8 1051.04 -7.41317 
1484 2 25.2513 8.21733 6.44133 5.99805 -206240 -78225.4 71144.7 468.334 13059.6 40884.3 -7.42117 
1485 2 25.9993 7.01261 6.45244 6.00103 -195326 -102808 -57341.1 -25357.7 14233.4 10432.1 -7.41294 
1486 2 25.3348 5.75966 6.45222 6.00757 -193866 -97194 58141.6 -26219.1 18186.2 42385.1 -7.41999 
1487 2 26.0848 4.556 6.46355 6.00754 -180839 -119875 -41970.4 -48729.1 3683.57 18229.8 -7.41337 
1488 2 25.4206 3.30313 6.46141 6.00319 -179212 -118795 35614.1 -42956.5 17550.8 40526.2 -7.41832 
1489 2 26.1721 2.10033 6.47113 6.00883 -166068 -135704 -19713.1 -60346.4 -7842.59 24367.6 -7.41436 
1490 2 25.5078 0.847732 6.46651 5.99725 -161272 -140695 8359.29 -48095.3 13772.7 35938.5 -7.41651 
716 1 28.0206 10.1163 2.95211 6.00382 -65469.1 -235071 -28441.7 -29484.8 26251.6 -4539.12 -7.41465 
717 1 28.6906 8.86709 2.94149 5.9969 -92509.9 -207425 24839.9 -9228.39 24282.8 34241.1 -7.41782 
718 1 27.938 7.6654 2.93799 6.00983 -84234.7 -217153 -35221.8 -11307.8 20654.3 6690.7 -7.41377 
719 1 28.6059 6.41508 2.92656 6.00912 -109942 -189642 27382 10816.8 26343.2 32832.4 -7.41731 
720 1 27.8527 5.21362 2.92521 6.00696 -105928 -195346 -31657.8 6176.88 11472.2 15976.6 -7.41363 
721 1 28.5189 3.96227 2.91475 6.0145 -126771 -172812 21293.1 26619.1 22737.1 30216.1 -7.41638 
722 1 27.7655 2.76083 2.91653 6.00486 -128379 -173221 -20080.9 19059 2127.45 23257.7 -7.41409 
723 1 28.4304 1.50869 2.90826 6.01283 -142038 -158086 9404.51 36401.9 15939.9 27039.6 -7.41538 
724 1 27.6772 0.307052 2.91348 6.00519 -149681 -152436 -3668.85 26078.4 -5557.45 29464.3 -7.41499 
767 1 30.8602 10.019 2.9391 5.99357 -103788 -198658 -6233.35 -26984.9 21697 27856.7 -7.41586 
768 1 30.1081 8.8171 2.93336 6.00646 -86519.4 -215207 -7983.43 -27576.2 30903.2 206.882 -7.41518 
769 1 30.7761 7.56678 2.92065 6.00334 -117383 -184851 6354.25 -8829.8 24476 26057.9 -7.41587 
770 1 30.0232 6.3653 2.91642 6.00992 -104705 -196836 -15317.6 -11459.6 21855.9 8423.31 -7.41422 
771 1 30.6894 5.11393 2.90485 6.01518 -129445 -171480 10025.2 6664.81 21124.6 23116.9 -7.41542 
772 1 29.936 3.91266 2.90357 6.01222 -123222 -177463 -13834.3 1309.18 11350.2 14391.6 -7.41393 
773 1 30.6008 2.66047 2.89459 6.0199 -139842 -160042 7322.63 16623.2 14570.2 20141.4 -7.41482 
774 1 29.8474 1.45919 2.89681 6.01417 -140722 -159677 -6632.54 8947.4 2264.98 19133.8 -7.41415 
775 1 30.5114 0.206455 2.89103 6.01796 -148841 -150674 757.676 21112.8 6971.53 17876.4 -7.41429 
818 1 32.2777 9.96809 2.93379 6.00344 -97759.8 -201314 19530.9 -39393.6 38853.2 -4477.24 -7.41685 
819 1 32.9457 8.7176 2.92061 6.00149 -131430 -170764 -14401.5 -25235 22412.9 17339 -7.41462 
820 1 32.1934 7.51582 2.91355 6.01055 -111235 -189670 2957.41 -23831.3 30397.5 1799.63 -7.41517 
821 1 32.8596 6.26435 2.90142 6.01178 -138070 -163102 -2499.26 -8790.85 19835.3 14572.1 -7.41458 
822 1 32.1065 5.06298 2.8968 6.01506 -124673 -175319 -4043.14 -10063 18807.8 6312.83 -7.41422 
823 1 32.7713 3.81072 2.88749 6.02163 -143053 -156549 2160.62 2582.86 13544.1 11858.1 -7.41429 
824 1 32.0178 2.60954 2.88627 6.02006 -137326 -161854 -3847.2 -1356.9 8383.64 9375.25 -7.41389 
825 1 32.6818 1.35676 2.88044 6.02503 -147020 -151730 2006.42 8166.09 6820.6 10195.7 -7.41399 
826 1 31.9283 0.155579 2.88277 6.02257 -148938 -150187 -223.585 2173.02 489.23 12564.8 -7.41397 
860 1 35.114 9.8684 2.92624 6.0034 -151825 -149396 -31597.8 -39404.7 20453.2 6556.66 -7.41373 
861 1 34.3629 8.66604 2.91687 6.01103 -124633 -174742 19557.7 -33395.8 37300 -3072.84 -7.4163 
862 1 35.029 7.41439 2.90473 6.0107 -152039 -148895 -13597.6 -22038.5 19326.3 4961.71 -7.41402 
863 1 34.2767 6.21268 2.89691 6.01682 -131828 -168046 5740.43 -17774.7 25148.2 112.774 -7.41478 
864 1 34.9415 4.96032 2.88746 6.01907 -150684 -148725 -3548.77 -7975.18 13604.8 3486.94 -7.41397 
865 1 34.1883 3.75902 2.88278 6.02212 -138872 -160052 669.555 -6810.66 13005.6 2298.17 -7.414 
866 1 34.8522 2.50619 2.87693 6.02628 -149603 -148748 718.822 -51.451 6932.1 2954.93 -7.4138 
867 1 34.0987 1.30506 2.87577 6.02644 -145567 -152574 552.527 -1599.99 4175.49 4160.4 -7.41374 
868 1 34.7622 0.0520008 2.87348 6.02886 -148916 -149036 1373.17 2421.74 1099.31 3434.33 -7.4137 
1534 2 27.3332 9.51837 6.44676 5.99508 -220347 -72499 44181.1 27325.1 10273.2 40100.6 -7.41913 
1535 2 28.0804 8.31351 6.45864 5.99509 -200377 -100384 -35094.7 3471.06 25675.7 7036.54 -7.41415 
1536 2 27.4161 7.06036 6.46101 6.00356 -204296 -90306.7 42782.3 1798.42 16354.7 41467.8 -7.41855 
1537 2 28.1654 5.85663 6.47376 6.00338 -184038 -117155 -31597.4 -20578.3 15905.1 14434.8 -7.41373 
1538 2 27.5015 4.60346 6.47426 6.01317 -187078 -111211 31410.4 -17222 16096.2 39502.5 -7.41745 
1539 2 28.2527 3.40072 6.48566 6.00993 -169252 -132009 -20421.5 -35121.5 3936.97 19773.6 -7.41389 
1540 2 27.5889 2.14769 6.48334 6.00889 -168972 -132234 14548.8 -26151 11724.5 35088.3 -7.41617 
1541 2 28.3414 0.945646 6.49194 6.01153 -155729 -145092 -5518.15 -39680.3 -7071.93 23684.1 -7.4145 
1585 2 30.1619 9.61585 6.4609 5.99357 -198232 -104092 -6233.25 27621.3 34973.4 4860.71 -7.41586 
1586 2 29.4973 8.36281 6.46621 6.00343 -209567 -89450.9 19531.5 25038.6 15549.5 35886.1 -7.41685 
1587 2 30.2462 7.15908 6.47939 6.00148 -182666 -119569 -14401.9 4428.98 26223.3 10741.3 -7.41462 
1588 2 29.5822 5.9059 6.48313 6.01102 -191195 -108247 19558 4795.14 15989.8 33838.5 -7.4163 
1589 2 30.3331 4.70322 6.49527 6.01072 -168652 -132254 -13597.1 -12363.9 13960.9 14256.2 -7.41403 
1590 2 29.6695 3.45002 6.49622 6.01868 -173551 -126764 12766.1 -7464.15 11584.1 29367.3 -7.41549 
1591 2 30.4219 2.24809 6.50555 6.0162 -157697 -142179 -7251.35 -20307.8 2248.21 16230.6 -7.41398 
1592 2 29.7582 0.995029 6.50315 6.01618 -157113 -143490 3088.43 -11376 5139.91 24061.3 -7.41472 
1636 2 31.5788 9.66623 6.46664 6.00643 -206890 -94762.4 -7982.93 41908 15631.6 26659 -7.41518 
1637 2 32.3276 8.46253 6.47935 6.00331 -175512 -126553 6353.89 24777.8 34805.4 8167.75 -7.41587 
1638 2 31.6631 7.20963 6.48645 6.01051 -190615 -110156 2958.57 21992.2 16758.2 25425.1 -7.41516 
1639 2 32.4138 6.00699 6.49858 6.01178 -164408 -136782 -2499.27 6431.21 22537.4 9892.63 -7.41458 
1640 2 31.75 4.75388 6.50309 6.01677 -174328 -125515 5741.57 6662.94 12672.9 21722.7 -7.41478 
1641 2 32.5022 3.55203 6.51254 6.01909 -156001 -143406 -3549.1 -4917.85 9822.61 10038.4 -7.41396 
1642 2 31.8387 2.29887 6.51367 6.02408 -160613 -138768 3751.69 -946.763 6258.34 16893.3 -7.41432 
1643 2 32.5918 1.09748 6.51959 6.02301 -150805 -147768 -786.365 -9060.84 184.765 9786.95 -7.41384 
1687 2 34.4101 9.76614 6.47344 6.00909 -160397 -139204 27381.7 39840.8 41604.8 6398.21 -7.41731 
1688 2 33.7446 8.51385 6.48358 6.00989 -183568 -117890 -15317.5 34216.8 18222.9 14716.1 -7.41422 
1689 2 34.4952 7.31121 6.49515 6.01522 -155142 -145778 10024.5 21451.7 30582.1 6736.42 -7.41542 
1690 2 33.8308 6.05848 6.5032 6.01501 -171327 -128746 -4043.25 16935.5 14871.1 13132.8 -7.41422 
1691 2 34.5829 4.85664 6.51251 6.02168 -150850 -148678 2160.5 7159.44 17041.5 5800.58 -7.41429 
1692 2 33.9192 3.60362 6.51722 6.0222 -160565 -138242 669.796 5765.31 8493.77 10114.1 -7.414 
1693 2 34.6722 2.40226 6.52307 6.02628 -149054 -149314 718.884 -374.078 6025.03 4526.25 -7.4138 
1694 2 34.0088 1.14914 6.52422 6.02828 -152397 -145843 1464.11 1233.07 2150.61 6759.25 -7.41379 
1733 2 35.8273 9.81774 6.47479 6.0069 -167527 -133712 -31658.5 42002.1 19572.1 1946.34 -7.41363 
1734 2 35.9123 7.36307 6.49643 6.01222 -162629 -138005 -13835.1 24270 18137.9 2633.84 -7.41393 
1735 2 35.9999 4.90858 6.51373 6.02009 -156766 -142300 -3846.9 10034.3 12310.9 2572.46 -7.41389 
1736 2 36.0891 2.45425 6.52423 6.02644 -152285 -145917 552.512 2210.21 5690.37 1535.84 -7.41374 
44 1 1.41679 20.8423 2.9799 6.02274 -159322 -119399 -121692 -702.739 -1267.19 -485.604 -7.41022 
45 1 0.66941 19.6373 2.98207 6.01218 -136835 -119971 122297 -18380.1 9437.24 3190.42 -7.42588 
46 1 1.33842 18.3867 2.97795 6.02096 -165155 -116578 -114973 -33452.9 337.208 -2346.4 -7.41056 
47 1 0.591549 17.1816 2.97704 6.00682 -137826 -127737 109655 -44444.2 26685 -122.498 -7.42472 
48 1 1.2607 15.931 2.97032 6.0159 -172375 -116349 -96324.5 -54223.2 5250.18 -3877.2 -7.41138 
49 1 0.513603 14.7262 2.96562 6.00526 -141072 -137594 86666.1 -56981.9 40026.1 -3262.88 -7.42261 
50 1 1.18218 13.4754 2.95619 6.01067 -177550 -118662 -69594.6 -59698 11886.3 -5021.6 -7.41243 
51 1 0.434153 12.2713 2.94778 6.00761 -143959 -146948 58140.6 -54769.7 45800.6 -5441.79 -7.41999 
52 1 1.10158 11.02 2.93645 6.00758 -177399 -123238 -41970.5 -50848.7 17630.5 -5924.61 -7.41337 
96 1 2.83398 20.7964 2.98017 6.00465 -168947 -91849.5 115654 -9259.17 1498.36 18461.6 -7.42528 
97 1 3.50144 19.5448 2.97729 6.01167 -191537 -91798.4 -107728 -22790.7 -5704.52 -4711.49 -7.41101 
98 1 2.75562 18.339 2.97903 6.00059 -172009 -93990.4 108202 -39318.4 18697.7 12732.2 -7.42471 
99 1 3.42345 17.0875 2.97426 6.01119 -200275 -87885.6 -93700.9 -49877.3 -2062.1 -10240.5 -7.41171 
100 1 2.67788 15.8818 2.97191 5.99909 -174894 -102328 89285.5 -56969.9 33831.3 6244.14 -7.42312 