ITEM: TIMESTEP
0
ITEM: NUMBER OF ATOMS
1736
ITEM: BOX BOUNDS pp pp pp
0.0000000000000000e+00 3.6179139200000002e+01
0.0000000000000000e+00 6.2664107199999997e+01
0.0000000000000000e+00 1.5000000000000000e+01
ITEM: ATOMS id type x y z c_csym c_2[1] c_2[2] c_2[3] c_2[4] c_2[5] c_2[6] c_3 
53 1 0.333 9.818 3 6.02172 -138912 -128875 -43391.1 31913.8 65769.7 -2775.94 -7.41605 
54 1 1 8.567 3 6.02492 -135103 -151827 -132111 -3454.46 35784.8 -10328.5 -7.41145 
55 1 0.25 7.364 3 6.0215 -140903 -138292 -96306.4 -19311.4 55075.2 -2856.64 -7.41384 
56 1 0.917 6.112 3 6.02221 -166370 -115814 -140902 -22550.5 30774.4 -10541 -7.41139 
57 1 0.167 4.909 3 6.0253 -142282 -171856 -134580 198.342 35420.7 -2301.78 -7.41182 
58 1 0.834 3.658 3 6.02228 -152857 -138216 -151396 11438.4 19162.8 -8418.82 -7.41094 
59 1 0.083 2.455 3 6.02156 -124092 -113191 -154790 -5694.31 15307.6 -1524.48 -7.41074 
60 1 0.75 1.203 3 6.02299 -144512 -123712 -158718 -20576.3 6145.02 -5254.27 -7.41065 
61 1 0 0 3 6.02855 -144224 -155151 -160240 -4294.41 -6.16313 3.25675 -7.41062 
105 1 3.168 9.722 3 6.02678 -183696 -148881 -111497 -3913.99 32677.7 -27632.3 -7.41353 
106 1 2.418 8.519 3 6.02063 -107748 -157865 -76127.1 -3598.41 59827.8 -8150.41 -7.41488 
107 1 3.084 7.267 3 6.02042 -128959 -136163 -119555 -10067.3 34242.9 -29049.3 -7.41215 
108 1 2.334 6.064 3 6.02688 -154332 -171236 -119785 6452.36 43388.8 -10884.7 -7.41276 
109 1 3.001 4.813 3 6.02798 -168787 -155484 -133574 -4780.4 26580.5 -26643 -7.41181 
110 1 2.251 3.61 3 6.02192 -140381 -134454 -146330 -12793.3 22441.9 -11843.5 -7.41122 
111 1 2.918 2.358 3 6.02088 -139815 -106503 -146520 -9747.49 13814.4 -21601 -7.41129 
112 1 2.167 1.155 3 6.02226 -140054 -142876 -156467 15635 4549.85 -12141.1 -7.41073 
156 1 4.585 9.674 3 6.02913 -161932 -175644 -63430.1 6532.31 58055.8 -7895.12 -7.41594 
157 1 5.252 8.423 3 6.022 -168419 -126143 -81577.3 12321.9 32806 -42928.6 -7.4146 
158 1 4.502 7.219 3 6.02069 -107399 -163801 -106521 40689.7 47860.8 -15392.8 -7.41262 
159 1 5.168 5.968 3 6.02293 -129039 -175514 -97164.8 6596.84 32339 -43790.1 -7.41394 
160 1 4.418 4.765 3 6.02196 -144637 -136832 -135326 -6924.11 29112.8 -20747.2 -7.41191 
161 1 5.085 3.513 3 6.02192 -153361 -127545 -117501 -23589.5 23202.4 -39964.3 -7.41281 
162 1 4.335 2.31 3 6.02621 -150267 -171364 -147331 10307.8 9456.98 -23998 -7.41107 
163 1 5.002 1.059 3 6.02279 -144418 -146446 -135068 7678.26 9706.78 -33571.8 -7.41179 
207 1 7.419 9.578 3 6.02317 -167336 -137008 -32290.6 16632.2 24592.8 -47982.3 -7.41679 
208 1 6.669 8.374 3 6.02075 -147975 -148562 -100521 27588.8 45645.5 -13403.7 -7.41333 
209 1 7.336 7.123 3 6.02913 -171326 -165975 -46178.4 -4219.08 32215.6 -53355.1 -7.41677 
210 1 6.586 5.92 3 6.02413 -103503 -182196 -127224 13460.2 32289.7 -23851.3 -7.41197 
211 1 7.253 4.669 3 6.02057 -144675 -120929 -70549.6 23031.1 29969.9 -54291.6 -7.41506 
212 1 6.502 3.465 3 6.02072 -135214 -129528 -137752 46599.3 13685.8 -32016.6 -7.41115 
213 1 7.169 2.214 3 6.02683 -159648 -170480 -98495.8 -7376.64 20471.6 -50228.8 -7.4138 
214 1 6.419 1.011 3 6.02122 -143910 -133066 -132744 -8803.44 -3997.77 -38156.6 -7.41202 
258 1 8.836 9.53 3 6.02059 -139855 -127814 -105217 8911.24 36995.8 -5829.47 -7.41313 
260 1 8.753 7.075 3 6.02913 -155821 -177183 -125852 14463.6 29438.9 -19568.2 -7.41253 
262 1 8.67 4.62 3 6.02075 -143708 -151530 -132145 31387.8 14625.6 -31839.5 -7.41135 
264 1 8.586 2.166 3 6.02197 -137316 -127256 -122493 10757 -2293.81 -41932.5 -7.41232 
874 2 0.417 8.615 6.4 6.02646 -157989 -169004 -70878.8 2558.44 62005.6 1118.36 -7.41528 
875 2 0.5 6.161 6.4 6.02223 -141320 -134831 -117301 20026.1 46257.6 -159.046 -7.41256 
876 2 0.584 3.706 6.4 6.02169 -136146 -143989 -146608 -9968.18 25512.8 -1189.4 -7.41166 
877 2 0.667 1.251 6.4 6.02491 -141104 -128067 -158649 -15606.5 7666.38 -2754.46 -7.4103 
878 2 0 0 6.4 6.02853 -143901 -155349 -160222 1183.59 6.09652 -13.7814 -7.41063 
921 2 2.501 9.915 6.4 6.022 -154495 -142752 -46068 25553.4 62295.5 -1058.75 -7.41631 
922 2 1.834 8.663 6.4 6.022 -174967 -115640 -127042 22370 36867.9 -15911.8 -7.41209 
923 2 2.584 7.46 6.4 6.02701 -155460 -175486 -97240.5 7251.11 54030.9 -6160.31 -7.41394 
924 2 1.917 6.209 6.4 6.02072 -155484 -105667 -135330 -30008.1 32457.9 -14958.5 -7.4114 
925 2 2.668 5.005 6.4 6.0205 -129936 -124563 -133427 -19767 36353.1 -9648.29 -7.41174 
926 2 2.001 3.754 6.4 6.02758 -160897 -153644 -146464 1015.15 21460 -13487.9 -7.41172 
927 2 2.751 2.551 6.4 6.02672 -141935 -131413 -151350 27722.9 16930.6 -12432.9 -7.41096 
928 2 2.084 1.299 6.4 6.02243 -148300 -122294 -154771 17766 8929.05 -12555.9 -7.41075 
929 2 2.834 0.096 6.4 6.02648 -149755 -160736 -154105 7662.32 345.073 -16097.7 -7.4108 
972 2 3.918 9.963 6.4 6.0244 -176072 -124129 -100801 -14088.4 34418.5 -32925.8 -7.41308 
973 2 4.668 8.759 6.4 6.01942 -145552 -150917 -81104.7 -2867.07 53672 -6928.46 -7.41439 
974 2 4.001 7.508 6.4 6.02199 -166050 -139507 -106324 -10182 37358.1 -33690.5 -7.41356 
975 2 4.752 6.305 6.4 6.02199 -141167 -162085 -120000 1941.51 42201.4 -15192.3 -7.41282 
976 2 4.085 5.054 6.4 6.01942 -156125 -128048 -120004 -15193.5 31027.6 -32186.9 -7.41244 
977 2 4.835 3.85 6.4 6.02475 -143362 -143524 -140684 -3043.29 24389.3 -21534.7 -7.41103 
978 2 4.168 2.599 6.4 6.02931 -161660 -158342 -134524 -2817.38 19724.8 -29498.9 -7.41195 
979 2 4.918 1.396 6.4 6.02192 -93455.1 -137882 -144743 30919.6 6298.54 -26960.2 -7.41088 
980 2 4.251 0.144 6.4 6.02088 -134066 -109619 -145552 -2603.01 6484.58 -26617 -7.41128 
1023 2 6.752 10.059 6.4 6.02683 -156734 -181006 -76034.3 14112.6 44960.9 -1577.15 -7.41524 
1024 2 6.085 8.808 6.4 6.0205 -159109 -114903 -63428.1 -24449.1 35738.8 -46388.5 -7.41513 
1025 2 6.836 7.604 6.4 6.0205 -135223 -135654 -111638 -9727.64 40237.3 -14461.8 -7.4125 
1026 2 6.169 6.353 6.4 6.02683 -170198 -162134 -76208.5 1725.49 37029.6 -47671.8 -7.4153 
1027 2 6.919 5.15 6.4 6.02672 -144459 -145818 -132187 37747.9 26946.3 -25731 -7.41175 
1028 2 6.252 3.898 6.4 6.02188 -157071 -128323 -96377.8 15958.3 29926.1 -46275.9 -7.41393 
1029 2 7.002 2.695 6.4 6.02293 -110688 -196165 -134902 4730.69 9831.2 -35045.2 -7.41139 
1030 2 6.336 1.444 6.4 6.02294 -114926 -185975 -117460 -16553.1 18471.4 -42822.9 -7.41268 
1031 2 7.086 0.241 6.4 6.02143 -145766 -133424 -121788 33015.5 -6509.75 -43324.8 -7.41264 
1074 2 8.169 10.107 6.4 6.02199 -163146 -151691 -14853.1 -9098.35 26851.2 -49468 -7.41847 
1075 2 8.92 8.904 6.4 6.02319 -142705 -164708 -112573 4137.84 31639.5 -7962.18 -7.41319 
1076 2 8.253 7.653 6.4 6.01942 -160221 -139096 -22114.1 -13472.4 35382.6 -54036.7 -7.41759 
1077 2 9.003 6.449 6.4 6.02451 -142887 -152484 -129913 785.997 23225 -22589.1 -7.4117 
1078 2 8.336 5.198 6.4 6.02688 -169566 -166551 -42980.8 -909.414 35321.6 -55559.7 -7.41694 
1080 2 8.42 2.743 6.4 6.02042 -112699 -154554 -71780.2 2198.05 28438.1 -53859.5 -7.41489 
1082 2 8.503 0.289 6.4 6.02762 -158577 -172397 -100060 -11754.6 17201.6 -49237.2 -7.41348 
259 1 9.503 8.278 3 6.02557 -161651 -137739 9793.5 -19252.5 25354 -52238.9 -7.41942 
261 1 9.42 5.824 3 6.022 -159726 -140794 -13720.5 8866.9 30952 -57991.6 -7.4178 
263 1 9.337 3.369 3 6.02218 -152744 -156074 -46573.1 6165.13 28049.5 -58776.6 -7.4169 
265 1 9.253 0.914 3 6.02269 -148571 -141802 -82581.3 -27027.3 18811.6 -54389.7 -7.41434 
309 1 11.671 9.433 3 6.02059 -149761 -121256 59155.2 -5909.76 14174.9 -42539.1 -7.42214 
310 1 10.92 8.23 3 6.02218 -145746 -157992 -132713 28371 21908.7 -11101.2 -7.41189 
311 1 11.587 6.979 3 6.02317 -157856 -145143 41897 17057.4 26267.5 -50486.2 -7.4208 
312 1 10.837 5.775 3 6.022 -144091 -147159 -133922 30127.8 11497.3 -24191.2 -7.41153 
313 1 11.504 4.524 3 6.02913 -164696 -175540 9346.15 -6975.88 30407.7 -55075.7 -7.41974 
314 1 10.754 3.321 3 6.02798 -152581 -182206 -119347 15278.3 -2979.98 -35861.1 -7.41277 
315 1 11.421 2.07 3 6.0205 -141746 -131767 -32487.7 20043.7 27308.5 -54695.6 -7.41706 
316 1 10.67 0.866 3 6.02096 -140379 -129424 -90130 42671.4 -16891.7 -45100.2 -7.41368 
360 1 13.088 9.385 3 6.02568 -151485 -170870 -142984 10107.5 12925.2 -3418.74 -7.41128 
361 1 13.755 8.134 3 6.02303 -155327 -157089 85450 12968.6 18021.4 -35787.1 -7.42354 
362 1 13.004 6.931 3 6.02059 -133997 -122720 -141782 6664.67 6402.38 -14006.7 -7.41123 
363 1 13.671 5.679 3 6.02197 -108043 -142936 58988 -21598.9 28168.6 -41583.1 -7.42173 
364 1 12.921 4.476 3 6.02913 -155815 -175046 -124519 13599.3 -5244.58 -23894.6 -7.41243 
365 1 13.588 3.225 3 6.02475 -158330 -146447 17284.4 11482.9 31065 -44078 -7.4195 
366 1 12.838 2.021 3 6.01996 -146369 -149647 -91099.6 27270.4 -17952.5 -32387.2 -7.41388 
367 1 13.505 0.77 3 6.02202 -149958 -159743 -32270.2 5134.66 28303.4 -41767.2 -7.41753 
411 1 15.922 9.289 3 6.02683 -163029 -170319 111931 -443.38 8620.72 -17991.3 -7.42514 
412 1 15.172 8.086 3 6.02191 -140596 -131038 -150860 -12079.4 2094.41 -5496.6 -7.41115 
413 1 15.839 6.834 3 6.02196 -156583 -134965 93935.9 -19778.3 22854.5 -23002.8 -7.42427 
414 1 15.089 5.631 3 6.02293 -108625 -189328 -135132 17411.9 -6863.52 -11541.3 -7.4117 
415 1 15.755 4.38 3 6.02293 -125147 -192306 58206.6 8922.15 30581.2 -26435.6 -7.42185 
416 1 15.005 3.177 3 6.02188 -149325 -138639 -101977 -10287.4 -18502 -16974.9 -7.41357 
417 1 15.672 1.925 3 6.02278 -158457 -140801 8468.76 -24511.1 32403.8 -26906.2 -7.41944 
418 1 14.922 0.722 3 6.02736 -160971 -172985 -54005.5 5477.86 -27750.7 -21236.4 -7.41623 
462 1 17.339 9.241 3 6.02199 -131582 -109994 -157291 -4257.98 -286.454 -550.972 -7.41068 
463 1 18.006 7.989 3 6.02192 -153952 -137257 111762 -19100.9 16528 -2607.61 -7.42492 
464 1 17.256 6.786 3 6.02798 -150841 -166616 -145775 250.241 -6306.58 -1811.98 -7.41118 
465 1 17.923 5.535 3 6.02688 -166048 -171075 84524.1 -904.634 27408.8 -5780.57 -7.42374 
466 1 17.173 4.332 3 6.02042 -103846 -152996 -118009 -5487.82 -16830.3 -3040.34 -7.41248 
467 1 17.839 3.08 3 6.01892 -115038 -156754 40043.7 -10662.5 32772.3 -7558.88 -7.42116 
468 1 17.089 1.877 3 6.02705 -160330 -173103 -72387.4 2141.94 -26932.9 -4118.5 -7.41528 
469 1 17.756 0.626 3 6.02647 -162762 -172727 -14952.4 804.169 32721.7 -7728.22 -7.41834 
1079 2 9.086 3.995 6.4 6.01892 -100535 -165345 -129960 28071.3 9276.72 -35395.8 -7.41186 
1081 2 9.17 1.54 6.4 6.02705 -155386 -179822 -112289 15653 -5899.91 -46296.9 -7.41303 
1125 2 11.004 10.203 6.4 6.022 -145471 -141476 -121652 -267.49 20670.7 321.663 -7.41227 
1126 2 10.337 8.952 6.4 6.02683 -168586 -169121 30725.6 2989.4 26421 -50263.6 -7.42123 
1127 2 11.087 7.749 6.4 6.02557 -141824 -145216 -135141 34232 15984.7 -14351.1 -7.41164 
1128 2 10.42 6.497 6.4 6.02184 -150544 -122480 14622 5528.7 33256.7 -53781.8 -7.41958 
1129 2 11.171 5.294 6.4 6.02228 -141459 -166621 -132522 4809.19 5280.01 -27975 -7.41172 
1130 2 10.504 4.043 6.4 6.02413 -116090 -179668 -15293.2 -1845.54 33122.2 -54141.3 -7.41765 
1131 2 11.254 2.84 6.4 6.02191 -146467 -147713 -111863 35645.3 -7765.64 -39805.4 -7.41286 
1132 2 10.587 1.588 6.4 6.02243 -155033 -142319 -52668.6 12124.9 27093.4 -51282.9 -7.41608 
1133 2 11.337 0.385 6.4 6.02648 -156704 -180529 -76040.8 14374 -19389.7 -49135.8 -7.41474 
1176 2 12.421 10.252 6.4 6.02075 -156935 -140369 73327.3 -11797.6 13035.3 -39339.2 -7.42279 
1177 2 13.171 9.048 6.4 6.02317 -141516 -141268 -144391 -7005.93 8845.07 -5793.93 -7.41089 
1178 2 12.504 7.797 6.4 6.02218 -158175 -155381 64831.2 -12418.1 25200.6 -43090.2 -7.42253 
1179 2 13.255 6.594 6.4 6.02059 -131962 -123576 -140678 18260.3 1123.96 -17013.8 -7.41142 
1180 2 12.588 5.342 6.4 6.02192 -156342 -142346 39031.3 17781.8 31456 -44160.4 -7.42101 
1181 2 13.338 4.139 6.4 6.02913 -154306 -178796 -119890 14996.3 -10095.8 -27150.8 -7.41243 
1182 2 12.671 2.888 6.4 6.02913 -166400 -178087 189.735 -2867.88 31756.7 -42574.6 -7.41887 
1183 2 13.421 1.685 6.4 6.02192 -149040 -147303 -81965.9 30107.4 -21050.2 -35698.4 -7.41439 
1184 2 12.754 0.433 6.4 6.02088 -143524 -124646 -46428.7 -5850.58 27139.7 -38844.1 -7.41643 
1227 2 15.255 10.348 6.4 6.022 -141856 -128893 -153016 24494.2 3001.72 -238.892 -7.41085 
1228 2 14.588 9.096 6.4 6.02059 -146395 -120506 100144 6066.96 14039.7 -27700.3 -7.42427 
1229 2 15.339 7.893 6.4 6.02228 -139405 -151678 -150404 -6227.19 -906.123 -7263.31 -7.41095 
1230 2 14.672 6.642 6.4 6.02567 -163771 -175678 82235.9 191.798 25447.6 -27946.7 -7.42335 
1231 2 15.422 5.439 6.4 6.02191 -144291 -136743 -133170 28245.5 -10221.6 -13765.4 -7.41172 
1232 2 14.755 4.187 6.4 6.022 -158208 -140383 47088.8 18027.4 31359.6 -26766.3 -7.42149 
1233 2 15.505 2.984 6.4 6.02413 -107599 -176741 -97203.1 8746.64 -21077.9 -19301.2 -7.41357 
1234 2 14.838 1.733 6.4 6.02073 -147283 -130689 -882.529 -34313.3 32130.3 -24497.2 -7.41856 
1235 2 15.589 0.529 6.4 6.02096 -140230 -125908 -47026.6 -19411.8 -29208.4 -24176 -7.41631 
1278 2 16.672 10.396 6.4 6.02228 -152396 -154138 117908 -12760.6 1724.84 -10904.7 -7.42537 
1279 2 17.423 9.193 6.4 6.02059 -131308 -110264 -157212 7377.24 -915.465 -1226.12 -7.41068 
1280 2 16.756 7.941 6.4 6.02192 -153464 -137265 108829 19298.4 17478 -9939.11 -7.42488 
1281 2 17.506 6.738 6.4 6.02798 -152044 -164296 -145465 3724.31 -7166.12 -3182.38 -7.41133 
1282 2 16.839 5.487 6.4 6.02215 -157954 -139994 81700.2 -17102.5 27773.4 -7774.8 -7.42326 
1283 2 17.589 4.283 6.4 6.01817 -101031 -156969 -117112 -23298.8 -17632.4 -4740.19 -7.41239 
1284 2 16.923 3.032 6.4 6.02294 -121548 -191779 37487.5 -7607.89 32737.5 -5951.29 -7.42134 
1285 2 17.673 1.829 6.4 6.02677 -158201 -171999 -70891.6 3809.55 -27472.5 -6409.89 -7.41575 
1286 2 17.006 0.578 6.4 6.02182 -153336 -141105 -17162.1 -16140 32517.8 -4779.23 -7.41788 
461 1 18.09 10.444 3 6.02218 -151484 -150240 120859 11014.1 -77.5743 -15.5512 -7.42602 
512 1 19.507 10.396 3 6.02798 -148144 -161294 -157221 -5164.42 509.597 142.827 -7.41098 
513 1 20.174 9.145 3 6.0205 -141935 -122781 112062 26904.7 11223.9 16425.2 -7.42494 
514 1 19.423 7.941 3 6.02072 -130974 -118015 -152644 27247.2 -2994.64 3917.78 -7.41054 
515 1 20.09 6.69 3 6.02683 -164697 -171948 93807 -392.86 23830.4 15465.1 -7.42414 
516 1 19.34 5.487 3 6.02191 -143453 -134131 -133381 -24423.1 -11967.3 7309.36 -7.41186 
517 1 20.007 4.235 3 6.02192 -158373 -139150 58024.8 -18878.3 30973.1 13560.1 -7.42211 
518 1 19.257 3.032 3 6.02413 -106930 -177680 -95973.2 -4959.24 -22698 10311.9 -7.41342 
519 1 19.924 1.781 3 6.0223 -155989 -160750 8415.63 14676.5 32940.8 11795.9 -7.41941 
520 1 19.173 0.578 3 6.02143 -143322 -120512 -43925.9 -10435.5 -30553.7 12830.7 -7.41664 
563 1 22.341 10.3 3 6.02475 -157760 -140367 93924 15195.3 8526.07 31245.6 -7.42369 
564 1 21.591 9.096 3 6.01942 -137777 -136685 -150972 6432.6 3773.18 4595.41 -7.41081 
565 1 22.258 7.845 3 6.02208 -154587 -153646 85429.1 10879.4 21798.7 33527.8 -7.42403 
566 1 21.507 6.642 3 6.02199 -131412 -119939 -143149 -14869.5 -3554.78 13033.5 -7.41134 
567 1 22.174 5.39 3 6.02192 -156793 -142006 58765.4 -17911.1 29804.2 33651.2 -7.42196 
568 1 21.424 4.187 3 6.02913 -154322 -175721 -117899 -11541.1 -14290.1 20379.9 -7.41258 
569 1 22.091 2.936 3 6.02913 -167159 -177218 17583.1 1769.7 32150.4 31759.6 -7.41983 
570 1 21.341 1.733 3 6.02192 -149007 -144550 -75838.3 -27332.8 -24495.9 26851.9 -7.41489 
571 1 22.008 0.481 3 6.02088 -144572 -123404 -32885.3 3725.76 29573.7 28763 -7.41718 
614 1 23.758 10.252 3 6.02196 -145926 -133267 -134962 -29240.1 13389.3 -241.794 -7.41184 
615 1 24.425 9 3 6.02557 -158129 -137691 58791 -19953 22033.9 45199.3 -7.42231 
616 1 23.675 7.797 3 6.02798 -148765 -173643 -141672 -14899.8 8767.94 12630.8 -7.41178 
617 1 24.342 6.546 3 6.0205 -145961 -126875 42259.1 27343.3 30516.2 47929.9 -7.42107 
618 1 23.591 5.342 3 6.02072 -133013 -132415 -132731 15135.1 -1395.55 24573.8 -7.41144 
619 1 24.258 4.091 3 6.02413 -117925 -178143 9881.33 1389.06 32642.6 48084.4 -7.41913 
620 1 23.508 2.888 3 6.02192 -147109 -146010 -105218 -33580.9 -13445.5 34902.4 -7.41325 
621 1 24.175 1.636 3 6.02243 -156407 -143083 -32215.8 -12977.5 29195.9 45377 -7.41718 
622 1 23.425 0.433 3 6.02648 -158013 -179887 -63295.5 -12927.4 -23442.3 43276.9 -7.41544 
665 1 26.593 10.155 3 6.02059 -153579 -119860 17289.5 -7454.45 22510.1 48919.1 -7.41988 
666 1 25.842 8.952 3 6.02303 -144885 -160339 -124757 -1424.77 23235.3 7422.99 -7.41232 
667 1 26.509 7.701 3 6.02317 -161032 -142737 9534.84 16797 32492.9 53877.9 -7.41906 
668 1 25.759 6.497 3 6.02075 -139317 -150187 -133798 -3349.22 15143.2 22036.6 -7.41175 
669 1 26.426 5.246 3 6.02678 -167006 -168716 -13328.2 -792.726 34703.2 55799.6 -7.41886 
670 1 25.676 4.043 3 6.02063 -100970 -165268 -126195 -27541.6 2312.34 35215 -7.41208 
671 1 26.342 2.791 3 6.02042 -114435 -158108 -46384.7 -2051.05 30122.7 54551.5 -7.41609 
672 1 25.592 1.588 3 6.02705 -156676 -181133 -100599 -15374.8 -11255.1 46305.9 -7.41365 
673 1 26.259 0.337 3 6.02762 -159624 -174702 -81261.3 12074 20841.7 49876 -7.41458 
1330 2 18.84 9.241 6.4 6.02568 -160980 -172174 117814 406.261 8542.04 7054.91 -7.42534 
1331 2 19.59 8.038 6.4 6.02192 -140514 -129587 -152857 15399.1 -1478.34 2635.91 -7.41094 
1332 2 18.923 6.786 6.4 6.02578 -156324 -134216 99740.5 19732 22627.2 10683.7 -7.4246 
1333 2 19.673 5.583 6.4 6.02293 -107433 -184007 -134482 -11647.3 -10211.5 5685.86 -7.41226 
1334 2 19.007 4.332 6.4 6.01938 -115905 -159622 63574.7 -22087.3 30733.2 13609.6 -7.42183 
1335 2 19.757 3.128 6.4 6.022 -147586 -140622 -98406.4 -16821.2 -21418 8178.39 -7.41355 
1336 2 19.09 1.877 6.4 6.02798 -165485 -174326 13060.9 5835.67 33109.1 14324.5 -7.42003 
1337 2 19.84 0.674 6.4 6.02773 -158479 -173275 -47555.9 62.7296 -29769.8 10236 -7.41674 
1381 2 21.674 9.337 6.4 6.02683 -151717 -164901 -150386 -7321.49 6811.85 2812.97 -7.41105 
1382 2 21.007 8.086 6.4 6.02072 -145941 -124676 100199 -30467 16819.8 26070.5 -7.42404 
1383 2 21.758 6.882 6.4 6.02057 -129633 -123028 -144258 -36166.7 500.24 10604.8 -7.41114 
1384 2 21.091 5.631 6.4 6.02413 -114298 -176556 73180.8 4691.06 27679.9 30943 -7.42285 
1385 2 21.841 4.428 6.4 6.02913 -152564 -174283 -121844 -7878.35 -10533.9 17803.5 -7.41275 
1386 2 21.174 3.177 6.4 6.02075 -156058 -144481 30062.7 -9056.17 31849.4 33240.2 -7.42045 
1387 2 21.924 1.973 6.4 6.02371 -149849 -148453 -82941.5 -27542.2 -22064.6 23995.5 -7.41413 
1388 2 21.257 0.722 6.4 6.02221 -153895 -156219 -22290.6 -9327.12 30542.8 31504.3 -7.41797 
1432 2 23.091 9.385 6.4 6.02199 -147443 -121018 82466.9 5881.67 11461.4 36013.5 -7.42343 
1433 2 23.842 8.182 6.4 6.02208 -142270 -153505 -140916 -24605.9 14129.2 9620.69 -7.41186 
1434 2 23.175 6.931 6.4 6.01942 -153573 -144424 64631.7 -13769.9 24667.1 43482.4 -7.42228 
1435 2 23.925 5.727 6.4 6.0244 -146356 -145421 -134786 -31165.8 4252.61 21004.9 -7.4113 
1436 2 23.258 4.476 6.4 6.02913 -167715 -173878 30744.8 4484.09 30365.1 47989.5 -7.42077 
1437 2 24.008 3.273 6.4 6.022 -146501 -146333 -112855 3450.89 -8993.65 31463.6 -7.41282 
1438 2 23.341 2.021 6.4 6.02087 -146248 -128311 -14330.5 12073 29379.7 47953 -7.41806 
1439 2 24.092 0.818 6.4 6.02225 -149842 -160763 -75982.5 -23672.3 -21131.5 39728 -7.41477 
1483 2 25.926 9.481 6.4 6.0205 -134912 -128339 -119868 -41241.5 28458.5 4790.36 -7.41236 
1484 2 25.259 8.23 6.4 6.02798 -167120 -171795 39181.6 1976.63 22527.3 49224 -7.42146 
1485 2 26.009 7.027 6.4 6.02672 -146983 -143328 -132214 3153.98 21512 18557.8 -7.41176 
1486 2 25.342 5.775 6.4 6.02192 -160364 -139277 14525 22085.1 29880.9 55701 -7.41956 
1487 2 26.092 4.572 6.4 6.02567 -153395 -183353 -130030 -18609 8011.12 31299.6 -7.4118 
1488 2 25.425 3.321 6.4 6.02228 -153972 -161979 -22063.1 -8048.85 29138.8 57645 -7.41771 
1489 2 26.176 2.118 6.4 6.02057 -138599 -128877 -111673 -10762.2 -7523.64 42128.4 -7.41289 
1490 2 25.509 0.866 6.4 6.02269 -149297 -143587 -63698.7 27023.3 22233.9 54168.1 -7.41547 
716 1 28.01 10.107 3 6.02567 -155875 -183605 -90961 -13001.4 36955.1 759.82 -7.41396 
717 1 28.677 8.856 3 6.02228 -166038 -150764 -32481.9 12062.6 33600.5 51035.6 -7.41715 
718 1 27.926 7.653 3 6.02059 -136011 -132039 -119309 -22406.8 32508.4 15295.1 -7.41233 
719 1 28.593 6.401 3 6.02557 -161055 -134151 -46841.5 -18822.1 36953.7 53657.2 -7.41642 
720 1 27.843 5.198 3 6.02913 -152533 -179796 -131944 -21946.4 20341.1 28627.6 -7.41219 
721 1 28.51 3.947 3 6.022 -154053 -136098 -70412.2 17250.2 31984.4 53148.1 -7.41528 
722 1 27.76 2.743 3 6.02068 -103530 -167727 -127096 11538 4592.19 39863.3 -7.41145 
723 1 28.426 1.492 3 6.02293 -115713 -189725 -97404.8 17248.3 21776.3 49807.4 -7.41383 
724 1 27.676 0.289 3 6.02393 -153644 -171998 -106517 -17269.3 -10498.4 49172.6 -7.41374 
767 1 30.844 10.011 3 6.02913 -182212 -159683 -76099.3 -3325.66 32853.6 41346.7 -7.41475 
768 1 30.094 8.808 3 6.02192 -147229 -148999 -89742.7 -32482.7 47423.9 7911.97 -7.41404 
769 1 30.761 7.556 3 6.02059 -158184 -108918 -82255.3 -6473.68 37752.8 43467.1 -7.41452 
770 1 30.01 6.353 3 6.02218 -144562 -163408 -122672 -2696.97 37404.1 18962.6 -7.41238 
771 1 30.677 5.102 3 6.02317 -158832 -132855 -98597.1 18857.9 33356.6 42802.2 -7.41334 
772 1 29.927 3.898 3 6.02075 -141079 -146491 -137446 -3079.78 20953.8 27957.6 -7.41138 
773 1 30.594 2.647 3 6.02913 -158903 -163795 -117334 1916.66 23052.5 40099.2 -7.41307 
774 1 29.844 1.444 3 6.02413 -101005 -176873 -135562 -16466.6 3366.79 35502.1 -7.41164 
775 1 30.511 0.193 3 6.02032 -134473 -117715 -133377 35939.6 9827.42 36341.8 -7.41149 
818 1 32.261 9.963 3 6.02191 -152976 -144461 -52735.9 -28459.7 58012 2001.49 -7.41606 
819 1 32.928 8.711 3 6.02191 -174684 -118167 -112525 -22183.7 37168.7 28067.9 -7.41283 
820 1 32.178 7.508 3 6.02568 -154284 -181122 -100258 -10936.5 51227.2 9839.52 -7.41349 
821 1 32.845 6.257 3 6.02228 -163951 -139487 -121832 12886.5 34229.9 27344.2 -7.4124 
822 1 32.094 5.054 3 6.02059 -133517 -124322 -132866 -16882.8 34982.5 15619.8 -7.41172 
823 1 32.761 3.802 3 6.02557 -153909 -123715 -135338 -17020.3 24134.6 25059.2 -7.4118 
824 1 32.011 2.599 3 6.02913 -150434 -167124 -147357 -13918 16103.9 20228.2 -7.41156 
825 1 32.678 1.348 3 6.022 -147756 -128330 -146535 15155 11689.9 22759.6 -7.41088 
826 1 31.928 0.144 3 6.02155 -140849 -132434 -146455 2435.21 -915.707 25322.8 -7.41083 
860 1 35.095 9.866 3 6.02 -177019 -131378 -129892 -8612.91 35363.4 9758.31 -7.41191 
861 1 34.345 8.663 3 6.02688 -160314 -174208 -71774.7 -6515.93 60885 2269.38 -7.41527 
862 1 35.012 7.412 3 6.02891 -173127 -151271 -135004 -3552.51 35325.2 9022.07 -7.41161 
863 1 34.262 6.209 3 6.02221 -143120 -139907 -117148 -24520.2 46369 5499.41 -7.41272 
864 1 34.929 4.957 3 6.02156 -142981 -101444 -144582 -6337.32 26522.1 8069.56 -7.41128 
865 1 34.178 3.754 3 6.02218 -140882 -150498 -145507 7559.33 26323.4 7613.18 -7.41138 
866 1 34.845 2.503 3 6.0228 -141741 -126724 -154157 18162.4 14103.1 7831.25 -7.4105 
867 1 34.095 1.299 3 6.02244 -139864 -131072 -156394 7478.89 8234.18 10060.5 -7.41062 
868 1 34.762 0.048 3 6.02703 -143009 -154945 -158691 75.5254 1499.99 7993.14 -7.41098 
1534 2 27.343 9.53 6.4 6.01942 -161396 -139786 -317.142 -13620.9 20980.2 48918 -7.41876 
1535 2 28.093 8.326 6.4 6.02475 -149861 -149106 -111699 -32091.1 38236.7 13139 -7.41249 
1536 2 27.426 7.075 6.4 6.02931 -172842 -168323 -15323 1878.4 30353.1 55690.1 -7.41818 
1537 2 28.176 5.872 6.4 6.02192 -97018.6 -148772 -129919 1696.7 26198.5 25709.7 -7.41147 
1538 2 27.509 4.62 6.4 6.02059 -146915 -121262 -42893.5 9921.32 30416 58406.1 -7.41664 
1539 2 28.26 3.417 6.4 6.02303 -144452 -163576 -132039 -30787.6 8855.5 36177.6 -7.41174 
1540 2 27.593 2.166 6.4 6.02568 -159101 -177275 -76520.3 7690.91 22909.6 55845.9 -7.41481 
1541 2 28.343 0.963 6.4 6.02122 -145511 -136795 -119719 7327.34 -7946.87 44164.8 -7.41267 
1585 2 30.177 9.626 6.4 6.02672 -152992 -144540 -76028.8 8274.6 52246.7 7772.07 -7.4148 
1586 2 29.51 8.374 6.4 6.02188 -169431 -127262 -52653.2 20202.8 30719.4 49208.2 -7.41616 
1587 2 30.26 7.171 6.4 6.02293 -115404 -197268 -112509 -26057.4 42991 18026.7 -7.41258 
1588 2 29.594 5.92 6.4 6.02293 -127027 -182927 -71582.5 -6637.46 32459.5 51581.3 -7.41506 
1589 2 30.344 4.717 6.4 6.02196 -145392 -139734 -134730 3744.08 25478.1 26141.6 -7.41188 
1590 2 29.677 3.465 6.4 6.02191 -152709 -131769 -96488.8 24194.7 25103.3 49065.2 -7.41404 
1591 2 30.427 2.262 6.4 6.02621 -151570 -174872 -140908 -13139.4 6394.85 31821.3 -7.41135 
1592 2 29.76 1.011 6.4 6.02279 -145316 -151031 -119800 -6265.17 12411 42993.7 -7.41255 
1636 2 31.594 9.674 6.4 6.02688 -183980 -153604 -90096.7 2062.73 30637.3 37162 -7.41434 
1637 2 32.344 8.471 6.4 6.01892 -107475 -159737 -82436.4 41.9725 56600.3 10890.5 -7.41451 
1638 2 31.678 7.219 6.4 6.02042 -126911 -139453 -100120 10108.2 34050.8 39475.3 -7.41333 
1639 2 32.428 6.016 6.4 6.02688 -154727 -173443 -121934 -10426.4 40755.8 15984.2 -7.41259 
1640 2 31.761 4.765 6.4 6.02798 -168272 -159086 -117302 5173.92 27921.7 37446.7 -7.41267 
1641 2 32.511 3.562 6.4 6.02192 -141954 -137147 -144743 8921.42 20313.2 18898.8 -7.41112 
1642 2 31.844 2.31 6.4 6.02088 -140014 -110041 -134534 11099 15669.4 31786.2 -7.4119 
1643 2 32.595 1.107 6.4 6.02215 -141948 -142404 -151347 -18773.1 2256.47 20874.3 -7.41118 
1687 2 34.429 9.77 6.4 6.02268 -153669 -160642 -47228.7 -17988.5 64879.2 5121.67 -7.41622 
1688 2 33.762 8.519 6.4 6.02453 -132982 -156126 -122378 3383.4 35156.7 22857.6 -7.41186 
1689 2 34.512 7.316 6.4 6.02171 -147724 -138681 -98374.6 14967 53782.2 7490.78 -7.41377 
1690 2 33.845 6.064 6.4 6.022 -165956 -117436 -132821 22970.8 31033.6 22600.6 -7.41183 
1691 2 34.595 4.861 6.4 6.02664 -150788 -169620 -135178 -4420.27 33886.5 8351 -7.41196 
1692 2 33.928 3.61 6.4 6.02072 -144606 -108396 -145451 -27823 19793.8 18987.9 -7.41093 
1693 2 34.679 2.406 6.4 6.02071 -128066 -116628 -154114 -30965.7 13717.8 8454.89 -7.41082 
1694 2 34.012 1.155 6.4 6.02837 -150177 -156598 -154820 3931.81 6382.15 14008.5 -7.41114 
1733 2 35.846 9.818 6.4 6.02104 -180989 -126517 -132181 8388.69 34993.1 3249.82 -7.41185 
1734 2 35.929 7.364 6.4 6.02871 -177640 -146731 -137609 3419.35 34635.7 4139.86 -7.41141 
1735 2 36.012 4.909 6.4 6.0216 -147317 -96944.1 -147234 6760 25514.3 3812.41 -7.41108 
1736 2 36.096 2.455 6.4 6.01958 -143001 -121261 -156462 -13669.8 12809.2 2105.28 -7.41059 
44 1 1.417 20.84 3 6.02605 -150529 -162070 -157141 2238.82 -1518.66 -77.3634 -7.4106 
45 1 0.667 19.637 3 6.0215 -147663 -134140 117954 -21440.2 10305.1 3819.65 -7.42539 
46 1 1.334 18.385 3 6.02217 -151229 -117701 -152841 -19482.4 1602.59 -2690.09 -7.41108 
47 1 0.584 17.182 3 6.02411 -163838 -187978 100092 11524.2 30889.4 1590.45 -7.42451 
48 1 1.25 15.931 3 6.02253 -128036 -169777 -144267 11223 9412.07 -4733.39 -7.411 
49 1 0.5 14.728 3 6.021 -151917 -137192 64864.2 -19425.1 49943 -404.112 -7.42252 
50 1 1.167 13.476 3 6.02709 -171756 -115273 -135215 -22142.1 20423.1 -6744.71 -7.41164 
51 1 0.417 12.273 3 6.0285 -159522 -174027 14639.8 -3327.68 63185 -1960.92 -7.41993 
52 1 1.084 11.022 3 6.02057 -164146 -102828 -129663 25591.3 31105.2 -8789.69 -7.41176 
96 1 2.834 20.792 3 6.02059 -144819 -119242 108958 -6079.66 175.608 20001.2 -7.42491 
97 1 3.501 19.54 3 6.02192 -146736 -127426 -145406 -14104.6 -6457.94 -4696.46 -7.41112 
98 1 2.751 18.337 3 6.02798 -165170 -171582 99641.9 -2444.08 20548.2 14213.3 -7.42434 
99 1 3.418 17.086 3 6.02688 -164351 -155741 -134502 1388.97 -234.744 -11657.8 -7.41198 
100 1 2.668 15.883 3 6.02042 -116176 -155408 73351.6 -7819.94 40674.6 8400.48 -7.42271 
101 1 3.334 14.631 3 6.01892 -122050 -137124 -121894 -10310.9 10109.1 -18111.1 -7.41243 
102 1 2.584 13.428 3 6.02688 -168566 -172051 30746.9 1821.43 56687.4 2310.68 -7.42089 
103 1 3.251 12.177 3 6.02451 -172612 -123213 -112800 15853.8 22753.3 -23374.1 -7.41266 
104 1 2.501 10.973 3 6.02075 -152122 -145438 -22305.7 18683.7 64510.5 -3550.34 -7.41778 
147 1 5.669 20.696 3 6.0205 -134068 -120410 -132934 36617.6 -16928.5 -2000.25 -7.41175 
148 1 4.918 19.492 3 6.02072 -147715 -125650 81604.9 30067.3 7157.9 27988 -7.42304 
149 1 5.585 18.241 3 6.02683 -160603 -164239 -116861 4774.9 -13007.1 -12956.1 -7.41282 
150 1 4.835 17.038 3 6.02191 -158581 -138378 63669.3 -20867.6 27108 19680.9 -7.42243 
151 1 5.502 15.786 3 6.02191 -160271 -126588 -98401.3 -18448.5 -3577.65 -22645.4 -7.41372 
152 1 4.752 14.583 3 6.02413 -116774 -180424 30223.2 918.122 44562.5 11081.5 -7.42016 
153 1 5.419 13.332 3 6.02228 -166210 -145315 -82696.5 11365.1 9739.38 -31057.5 -7.41446 
154 1 4.668 12.129 3 6.02184 -147085 -127576 -14756.9 879.915 56343.1 1411.44 -7.41802 
155 1 5.335 10.877 3 6.02557 -171172 -126353 -76026.5 -20218.2 23840.2 -38176 -7.4148 
198 1 7.086 20.647 3 6.02075 -158720 -143039 47195.2 11858.5 -7506.69 40534.7 -7.42111 
199 1 7.753 19.396 3 6.02218 -148870 -153368 -97503.3 19993.1 -27334.9 -8576.03 -7.4142 
200 1 7.002 18.193 3 6.02199 -150065 -121846 37798.4 -6371.82 11285 31238.8 -7.42104 
201 1 7.669 16.941 3 6.02192 -155471 -136604 -70926.9 -15256.6 -19256.9 -20641.9 -7.41505 
202 1 6.919 15.738 3 6.02913 -167716 -175319 12942 -701.035 28931.1 21571 -7.41964 
203 1 7.586 14.487 3 6.02913 -172116 -167491 -47672.6 -1911.19 -6060.73 -30870.7 -7.41636 
204 1 6.836 13.284 3 6.02192 -154441 -144512 -22692.9 -13264 42636.9 10751.2 -7.41773 
205 1 7.503 12.032 3 6.02059 -157486 -114928 -32866.9 -6760.58 9998.37 -40036.3 -7.41719 
206 1 6.752 10.829 3 6.02218 -153010 -161789 -63439.6 24000.3 49171.2 -1340.82 -7.41561 
254 1 9.003 14.439 3 6.02191 -156869 -138166 -43944.4 -16224.4 26455.9 19993.3 -7.41663 
256 1 8.92 11.984 3 6.02568 -159456 -178625 -75304.2 8821.48 35441.9 7806.81 -7.41485 
869 2 0 20.888 6.4 6.02795 -161886 -162781 120811 2180.81 18.7104 -31.2221 -7.42561 
870 2 0.083 18.433 6.4 6.01873 -108162 -151927 112077 -24648.9 19820.4 1463.3 -7.42467 
871 2 0.167 15.979 6.4 6.02647 -161283 -166224 85301.8 2775.55 40072.3 2158.15 -7.42405 
872 2 0.25 13.524 6.4 6.02492 -154611 -140130 42022.1 -16812.1 56822.7 2343.79 -7.42096 
873 2 0.333 11.07 6.4 6.01805 -110811 -153478 -13159 9747.6 65668.2 2187.31 -7.41817 
913 2 2.167 19.733 6.4 6.02333 -121311 -184452 111769 -8581.28 5871.22 15629.8 -7.42529 
914 2 1.501 18.482 6.4 6.01817 -105298 -141475 -152675 -22261 1969.17 -4708.81 -7.4106 