ITEM: TIMESTEP
373
ITEM: NUMBER OF ATOMS
30248
ITEM: BOX BOUNDS pp pp pp
0.0000000000000000e+00 1.5123498900000001e+02
0.0000000000000000e+00 2.6194668500000000e+02
0.0000000000000000e+00 1.8399999600000001e+01
ITEM: ATOMS id type x y z c_csym c_2[1] c_2[2] c_2[3] c_2[4] c_2[5] c_2[6] c_3 
1 1 9.99132e-06 -6.11848e-07 7.43513 6.04475 -21184.7 -21219.5 -6683.83 5.4546 0.466392 -1.2196 -7.41274 
2 1 2.15722 1.17973 7.44188 6.0341 -31541.4 -11768.4 -4172.76 747.674 12561.7 -22860.2 -7.41302 
3 1 3.57638 1.14802 7.44972 6.0204 -30713.2 -14988.3 -3130.63 22870.5 10256 -28814.2 -7.41315 
4 1 6.41374 1.08705 7.46945 6.01554 -37543 -7000.24 3188.03 32903.4 10891.1 -42641.7 -7.41429 
5 1 7.83289 1.06011 7.47821 6.02228 -35640 -13899.8 -1724.56 66537.1 -2460.81 -25848.5 -7.41389 
72 1 0.0569269 2.45829 7.44187 6.02712 -27682.2 -16202.7 -4786.71 -8543.18 23683.8 1159.26 -7.41294 
73 1 1.47613 2.42534 7.44395 6.02676 -27375.7 -16674 -4010.67 -2366.87 26022.7 -12925.2 -7.41306 
74 1 2.2126 3.63891 7.45322 6.02054 -51353.7 6111.96 -1207.03 -14453.7 27728.3 -19679.8 -7.41338 
75 1 3.63169 3.60723 7.45946 6.01454 -48759.7 869.524 -2577.47 6550.29 30146.8 -22515.9 -7.41342 
76 1 4.313 2.36169 7.45802 6.026 -50596.7 7194.98 1794.1 8877.32 18590.8 -37982.2 -7.41384 
77 1 5.73207 2.3322 7.46719 6.01692 -47952.1 -2475.73 -3427.14 40125.8 13075.4 -28748.2 -7.41343 
78 1 6.46694 3.54705 7.47527 6.02236 -65497.1 25366.1 8643.96 16884.7 16993.4 -39238.3 -7.41497 
79 1 7.88598 3.51963 7.48222 6.02295 -59286.2 6277.39 -8664.4 48692.1 8420.39 -17728.5 -7.41341 
80 1 8.56833 2.27481 7.48337 6.01726 -47510.3 8210.89 9459.7 41411.4 12704.1 -34069.7 -7.41535 
214 1 0.111193 4.91675 7.45798 6.01651 -35363.3 -12664.6 -3054.29 -29063.7 33784.6 2389.44 -7.41329 
215 1 1.53041 4.88405 7.45948 6.0203 -32614.4 -11745.9 1059.09 -23237 41932.4 -10943.3 -7.41383 
216 1 2.2647 6.09879 7.46939 6.0188 -65834.4 16832.6 -1338.68 -36489.9 28123.3 -13962.8 -7.41366 
217 1 3.68377 6.0673 7.47336 6.0109 -59079.3 11968.9 429.882 -18221.5 37008 -14539.9 -7.41413 
218 1 4.3661 4.82211 7.46945 6.01946 -74024 30343.5 4323.89 -12375.2 23375.1 -31003.6 -7.41427 
219 1 5.7851 4.79236 7.47599 6.01273 -67425.2 15763 -5594.25 16115.2 23887.5 -19039.4 -7.41355 
220 1 6.51781 6.00835 7.48353 6.01514 -83072.1 44975 10451 -9185.87 13697 -30185.3 -7.41537 
221 1 7.93682 5.98019 7.48803 6.01919 -71455.9 20056.5 -12378.8 19017.3 12032.3 -8235.44 -7.41336 
222 1 8.61956 4.73533 7.48783 6.01994 -65851.6 32694.1 15581.5 17781.8 11822.7 -29620.4 -7.41608 
356 1 0.161585 7.37526 7.47515 6.01713 -40853.1 -11422.7 -6019.71 -47921.1 27685.4 2484.95 -7.41343 
357 1 1.58084 7.34316 7.47605 6.01932 -33211.8 -7896.69 7421.05 -42959.1 42007.6 -8031.42 -7.4149 
358 1 2.31329 8.55891 7.48322 6.02679 -70766.8 19308.9 -6366.36 -50837.4 16478.5 -8566.11 -7.41365 
359 1 3.73241 8.52794 7.48521 6.01319 -58818.4 16855.4 5566.1 -36707.7 31059.3 -5487.21 -7.41503 
360 1 4.41606 7.28331 7.48154 6.01944 -86403.1 40715 2321.97 -35167.4 16292.3 -21300.3 -7.41443 
361 1 5.83507 7.2534 7.48529 6.01211 -74527.6 25921.2 -4394.67 -11521.3 23655.6 -8196.01 -7.41405 
362 1 6.56621 8.47016 7.49034 6.01486 -88894.7 50404.5 7776.22 -32109.8 3794.37 -20601.8 -7.41534 
363 1 7.98525 8.44133 7.49284 6.01929 -72437.2 26553.2 -11803.6 -9453.91 9478.35 535.992 -7.41369 
364 1 8.66877 7.19667 7.49255 6.01587 -74552.1 44195.7 17192.9 -10693.9 4922.83 -23051.9 -7.41636 
6 1 10.6707 1.00528 7.48998 6.01519 -30612.7 -9220.32 6047.39 54966.5 11543.8 -19922.4 -7.41523 
7 1 12.0899 0.981011 7.49268 6.02134 -28250.9 -14745.2 -4404.86 78218 -11959.7 -2882.61 -7.41433 
8 1 14.9288 0.928035 7.4948 6.0171 -21195.1 -11918.7 5370.33 57158.5 16649.2 -2874.32 -7.41534 
9 1 16.348 0.904123 7.49534 6.01675 -18483 -13979.6 -6139.55 80741.4 -15080.3 -1958.27 -7.41451 
81 1 9.98745 2.24944 7.48856 6.02951 -42735 -7172.46 -8203.66 70121.3 -4176.77 -10843.7 -7.41373 
82 1 10.722 3.46471 7.49184 6.01998 -44597.7 12381.3 16237.7 38031.3 12560.5 -20468.4 -7.41628 
83 1 12.1412 3.43976 7.49381 6.03061 -36047.1 -9520.31 -16154.9 61308.9 -6967.02 143.414 -7.41339 
84 1 12.8252 2.19593 7.49396 6.01799 -28492.1 -4681.33 12422.6 49753.8 15010.8 -9256.48 -7.41594 
85 1 14.2444 2.17163 7.49455 6.0232 -22708.7 -16260.8 -12318.3 70982.9 -11526.3 2064.33 -7.4139 
86 1 14.9797 3.38651 7.49602 6.0167 -21051.2 -10010.8 18516.9 42667.4 20747.8 -7825.12 -7.41648 
87 1 16.3989 3.3622 7.49667 6.02123 -12046.7 -21704.4 -20533.7 68093.7 -8098.84 -3461.84 -7.41361 
88 1 17.0837 2.11884 7.49637 6.01078 -18230.7 -14702.5 11355.6 60575.1 24434.8 -8771.4 -7.41588 
89 1 18.503 2.09567 7.49829 6.01046 -12219.4 -17621.5 -14506.7 92027.5 -10852.9 -11943.7 -7.41418 
223 1 10.0386 4.70904 7.49153 6.03003 -55345.6 4935.17 -16418.4 44817.5 864.313 -4655.12 -7.41316 
224 1 10.7718 5.92496 7.49494 6.02402 -52597.9 25671.8 22508.5 10265.9 8655.36 -19154.5 -7.41694 
225 1 12.191 5.89882 7.49647 6.03671 -38192.5 -4478.77 -24529.1 33444.4 -3966.54 1535.72 -7.41289 
226 1 12.8755 4.65508 7.49609 6.02348 -32625.7 4659.34 22780.6 27485.1 14665.3 -12368.4 -7.41693 
227 1 14.2948 4.62992 7.49672 6.03131 -20724.1 -17594.6 -24244.6 50242.3 -6673.69 883.86 -7.41313 
228 1 15.0292 5.8451 7.49995 6.02194 -22729.3 -7198 28925.4 18968.1 20880.3 -15657.8 -7.41738 
229 1 16.4485 5.82006 7.50153 6.02998 -8423.56 -22603.7 -32131.5 47317.3 -1615.31 -8354.07 -7.41311 
230 1 17.1341 4.57706 7.5003 6.01122 -18675 -16429.4 24800.7 42725.9 29527.7 -16952.8 -7.41698 
231 1 18.5534 4.55357 7.50305 6.01589 -7138.76 -22317.2 -28690.9 76756.2 -1462.03 -15794.9 -7.41356 
365 1 10.0879 7.16922 7.49497 6.0279 -58635.3 12993.2 -20431.8 13498.4 1619.18 613.468 -7.41304 
366 1 10.8199 8.38561 7.49791 6.02178 -56811.5 31570.8 24264.8 -17633.8 2113.28 -19066.7 -7.41707 
367 1 12.2391 8.35817 7.49964 6.03573 -38180.5 2294.45 -28377.3 4777.07 -2217.64 690.977 -7.41283 
368 1 12.9243 7.11457 7.49949 6.02901 -36222.8 10855.5 29109.8 -274.526 10897.5 -17166.5 -7.41748 
369 1 14.3436 7.08828 7.50087 6.03839 -19430.2 -13738.5 -32304.6 24348.6 -2679.08 -2973.54 -7.41281 
370 1 15.0768 8.30396 7.50543 6.02869 -29909.1 34.9385 35857.3 -6190.34 17943.7 -26264 -7.4179 
371 1 16.4962 8.27816 7.5084 6.02851 -12031.4 -12819 -40101.7 25329.3 3827.24 -14762 -7.413 
372 1 17.1826 7.03541 7.50736 6.01724 -25498 -11406 36194.3 19669.8 29569.3 -28467.3 -7.41789 
373 1 18.6019 7.01154 7.51134 6.01997 -9748 -15739.7 -40432.1 56978.5 6029.79 -21382.3 -7.41329 
10 1 19.1874 0.852194 7.49928 6.00303 -18765.2 -11998.6 3221.91 85534.9 24308.1 -15307.6 -7.4154 
11 1 20.6066 0.830905 7.50315 5.99763 -15593.7 -10132.5 -6935.49 124541 -16955.4 -23058.1 -7.41477 
12 1 23.446 0.784107 7.51477 5.97047 -21523.2 -6317.93 3564.4 158866 33041.9 -35758.4 -7.41589 
13 1 24.8653 0.768913 7.52148 5.96816 -18586.4 -2922.75 -6751 208031 -21749.9 -39292.1 -7.4151 
14 1 27.7049 0.730664 7.53465 5.94079 -25452.6 2057.37 4725.85 248812 40175.2 -43590.1 -7.41638 
90 1 19.2386 3.31048 7.50231 6.00017 -20681.9 -16208 18422.2 73935.7 34904 -21659.8 -7.41653 
91 1 20.6579 3.28913 7.50689 6.00108 -11884.4 -15587.1 -22857.8 114568 -4466.05 -24531.7 -7.41405 
92 1 21.3425 2.04589 7.50722 5.98781 -23212.5 -10685.4 11159.3 113490 36076.8 -28648.9 -7.41616 
93 1 22.7617 2.02734 7.51339 5.98513 -17335.2 -7711.21 -15354.1 159858 -11486.4 -32951.1 -7.41455 
94 1 23.497 3.24298 7.5211 5.97249 -36556.5 -252.679 21590.2 146627 48103.1 -40075 -7.41717 
95 1 24.9162 3.22771 7.52868 5.9757 -28454.5 3111.38 -24633.3 196482 -5726.33 -38527.5 -7.41434 
96 1 25.6009 1.98485 7.52829 5.9571 -33978.2 4036.03 13633.5 199524 46131.1 -42929.8 -7.41683 
97 1 27.02 1.97316 7.53525 5.95798 -28825.2 5984.97 -16183.4 248336 -15592.6 -40351.1 -7.41475 
98 1 27.7545 3.19014 7.54448 5.94517 -51651.5 22095.4 25146.6 233209 56802.1 -45003.8 -7.41793 
232 1 19.2881 5.76883 7.51008 6.00303 -28171.4 -13205.2 33368.6 53723.5 39237.5 -31730.9 -7.41769 
233 1 20.7073 5.74735 7.51564 6.00848 -14789.1 -11299.6 -37485.9 96691.9 5720.02 -28105.2 -7.41364 
234 1 21.3929 4.50452 7.51465 5.98802 -33549 -7685.36 28299.7 96571.5 45685.2 -35917 -7.41744 
235 1 22.8121 4.48592 7.52167 5.99288 -22746 -3597.61 -31959.2 144139 1726.89 -34182.7 -7.41399 
236 1 23.5456 5.70247 7.53225 5.97836 -56012.3 13106.4 41177.3 123278 53590.7 -46124.4 -7.41866 
237 1 24.9647 5.6871 7.54031 5.98867 -43488.6 17898.3 -43100.3 173404 5584.36 -38194 -7.41383 
238 1 25.6502 4.44449 7.53901 5.96123 -56710.1 20068 34142.6 178032 57287.2 -46263.7 -7.41839 
239 1 27.0692 4.43257 7.54657 5.97131 -46858.4 20937.1 -35658.3 227044 -1160.86 -39172.1 -7.41406 
240 1 27.8012 5.65085 7.55795 5.95575 -79462.4 46009.3 47851.4 202187 61798.7 -46623.5 -7.41972 
374 1 19.3348 8.22771 7.5199 6.01163 -43885.9 341.17 46637.1 31376 37001.7 -43537.1 -7.41874 
375 1 20.754 8.2062 7.52616 6.00938 -27188.1 5616.99 -50726.9 76677.3 12117.8 -31069.2 -7.41345 
376 1 21.4405 6.96367 7.52556 5.9953 -50611 4883.45 45479.3 73534.1 46508.7 -45056.4 -7.41877 
377 1 22.8596 6.94508 7.53306 6.00162 -35861.9 11744.6 -48413 122230 10229.1 -35238.5 -7.41364 
378 1 23.5906 8.163 7.54404 5.99126 -80476.9 34797.1 60317.4 96723.2 49228.5 -52369.6 -7.42012 
379 1 25.0096 8.14763 7.55194 6.0004 -64290.9 42423.3 -62014.8 146678 10732 -36295.8 -7.4134 
380 1 25.6961 6.90525 7.55186 5.97356 -82742.4 42364.6 55844.8 147912 56728.9 -49919.4 -7.42005 
381 1 27.115 6.89307 7.5595 5.98845 -68767.1 44432.8 -56450.2 196472 6342.66 -37173.9 -7.41352 
382 1 27.844 8.11299 7.57043 5.97351 -108419 73431 70866 166679 55370.8 -48209.5 -7.42142 
15 1 29.1241 0.722504 7.54014 5.94099 -23399.9 4117.3 -6967.32 293215 -26720.2 -39693.6 -7.4153 
16 1 31.9642 0.692993 7.5487 5.9219 -29082.7 8348.56 4773.62 321771 43966 -38616.3 -7.41654 
17 1 33.3833 0.690575 7.55157 5.92253 -27950.6 8393.18 -7189.34 353085 -29430 -31300.7 -7.41538 
18 1 36.2239 0.66795 7.55555 5.90997 -31949.8 11716.2 4557.88 365970 45305.3 -29474.1 -7.41651 
19 1 37.6429 0.669392 7.55669 5.91274 -31294.6 10427.2 -6833.64 384957 -30666.8 -22074.5 -7.41543 
99 1 29.1735 3.18168 7.55065 5.95356 -44746.1 19896.4 -26884.1 278231 -9437.64 -37921.4 -7.41437 
100 1 29.859 1.93965 7.54774 5.93174 -41946.1 17938.1 15085 282888 52044.6 -42331.5 -7.41729 
101 1 31.2781 1.93444 7.55216 5.9368 -38004.6 15306.4 -17298 321665 -18995.4 -34975.6 -7.41479 
102 1 32.0116 3.15273 7.56129 5.92544 -59405.4 36665.6 26334.3 303058 60674.1 -38083.7 -7.41831 
103 1 33.4306 3.14985 7.56444 5.93782 -53692.5 28061.3 -28163.2 335520 -11851.5 -29697.5 -7.41432 
104 1 34.1174 1.90884 7.55904 5.91569 -45963.3 25312.4 15138.4 340685 54265.6 -33661.4 -7.4174 
105 1 35.5364 1.90838 7.56093 5.92367 -42910.4 19112 -17460.1 366115 -20739.2 -25652.6 -7.4148 
106 1 36.2689 3.1277 7.56966 5.9142 -61013.7 41795.4 26050.1 345650 61704.7 -28129.1 -7.41836 
107 1 37.6878 3.12863 7.57063 5.92817 -56000.8 29708.4 -27773.3 366247 -13256.9 -20817.9 -7.41433 
241 1 29.2201 5.64193 7.56442 5.97151 -68119.5 42137.3 -48321.3 247113 1308.22 -36253.5 -7.4137 
242 1 29.9063 4.4 7.56117 5.93917 -71267 44029.7 37581.3 255471 63304.3 -42544.5 -7.41912 
243 1 31.3252 4.39425 7.56596 5.95419 -62750.9 36173.8 -38626.9 294812 -4568.47 -33533.3 -7.41396 
244 1 32.056 5.614 7.57685 5.93884 -89073.7 65571.9 50388.7 265529 65505.2 -37458.7 -7.42031 
245 1 33.4748 5.61036 7.58019 5.95815 -78918.5 52353.5 -50771.2 298737 -1848.26 -28539.2 -7.41356 
246 1 34.1623 4.36939 7.57448 5.92465 -75406.4 54977 38107.1 309506 65552 -32440.9 -7.41938 
247 1 35.5811 4.36823 7.5764 5.9422 -67962.7 40677.2 -39247.5 336263 -6536.94 -24678.7 -7.41391 
248 1 36.3109 5.58899 7.58682 5.9281 -87968 70660.2 49939.7 305016 67016.1 -26754 -7.42045 
249 1 37.7297 5.58905 7.5877 5.94887 -78694.4 52383.3 -50285.1 327006 -3575.11 -20279.4 -7.41355 
383 1 29.2628 8.10362 7.57684 5.98986 -93016.9 71034.9 -70723.3 210935 4458.47 -33270.8 -7.41308 
384 1 29.9499 6.86183 7.57561 5.95561 -100815 72116 61804.9 216767 61784.1 -42875.4 -7.42101 
385 1 31.3687 6.85541 7.58059 5.97492 -87965.8 63109.6 -61608.4 256067 1452.79 -31632.6 -7.41328 
386 1 32.0963 8.07685 7.59091 5.95927 -117716 94649.8 75189.3 222330 58614.4 -37387.4 -7.42218 
387 1 33.515 8.07235 7.5945 5.97627 -103380 81476.6 -74436.9 255801 -319.13 -26723.4 -7.41286 
388 1 34.2035 6.8315 7.59086 5.94261 -103389 83915 62984.8 265300 64322.2 -31677.6 -7.42142 
389 1 35.6222 6.82941 7.59293 5.96377 -91626.6 66782.3 -62700.8 292958 -1382.14 -23784 -7.41319 
390 1 36.3488 8.0518 7.60305 5.94895 -113227 98114.8 74863.9 257812 60938.6 -26385.3 -7.42242 
391 1 37.7675 8.05082 7.60409 5.96722 -99818 78902.8 -73998.8 280845 -2671.31 -19666.9 -7.41285 
20 1 40.4837 0.651537 7.55825 5.90541 -33647 13598.9 4448.11 386974 45497.1 -21389.1 -7.41644 
21 1 41.9028 0.655333 7.55862 5.90892 -33103.8 11883.3 -6254.38 397506 -31413.4 -14938.5 -7.41549 
22 1 44.7437 0.640624 7.55919 5.90509 -34743.6 14814.9 4320.46 393584 45273.5 -15422.9 -7.41642 
23 1 46.1627 0.64578 7.55926 5.90852 -34160.9 12912.9 -5743.83 398928 -32005.2 -9957.35 -7.41556 
108 1 38.376 1.88856 7.56385 5.90792 -46921.6 27601.4 14791.5 371770 54603.1 -24512.6 -7.41735 
109 1 39.795 1.89114 7.56435 5.91691 -44203.4 20057.4 -16738.3 386917 -21832.2 -17496.8 -7.41485 
110 1 40.5266 3.11123 7.57261 5.90916 -59127.7 41895.2 25237.8 366357 61520.5 -19839.8 -7.41828 
111 1 41.9455 3.11453 7.57251 5.92343 -54568.5 28551.4 -26540.6 378564 -14412.9 -13894.9 -7.4144 
112 1 42.6349 1.87521 7.56535 5.90542 -46420.2 27860.6 14315.8 384616 54209.8 -17466.7 -7.41728 
113 1 44.0538 1.8796 7.56527 5.91452 -43940.3 19733.7 -15799.8 392949 -22777 -11604.5 -7.41493 
114 1 44.7846 3.10026 7.57301 5.90801 -56154.6 39858.5 24227.6 373181 60875.8 -13890 -7.41819 
115 1 46.2035 3.10496 7.57247 5.92113 -51722.5 26495.5 -25170.5 380151 -15502.2 -9034.95 -7.4145 
116 1 46.8939 1.86621 7.5655 5.9059 -44936.6 27289.9 13780 386740 53571.8 -12452.5 -7.41724 
250 1 38.4186 4.34903 7.58021 5.91674 -72950.8 56408 37164.3 339332 66045.7 -22838.3 -7.41936 
251 1 39.8375 4.35089 7.58037 5.93487 -66151.2 39413.9 -38072.6 356157 -7847.9 -16844.1 -7.41395 
252 1 40.5664 5.57232 7.5904 5.92233 -81952.3 68068.3 48161 325067 67539.1 -18257.8 -7.42037 
253 1 41.9853 5.57475 7.58987 5.94197 -73402 47782.5 -48302.9 338891 -4732.48 -13632 -7.41364 
254 1 42.6755 4.33554 7.58159 5.91348 -68378.2 53560.2 35689.4 352315 65789.6 -15718.8 -7.41925 
255 1 44.0943 4.33924 7.58092 5.93038 -61979.4 35888.1 -36275.9 362365 -9005.95 -11068.9 -7.41405 
256 1 44.8226 5.56113 7.59048 5.92 -74710.6 62442.3 45986.3 332490 67530.9 -12292.4 -7.42022 
257 1 46.2415 5.56498 7.58929 5.93843 -66451.6 42153.9 -45945 340983 -5727.73 -8843.82 -7.41377 
258 1 46.9328 4.3264 7.58097 5.91294 -62818.6 49471.7 34117.8 355154 65185.8 -10771.5 -7.41914 
392 1 38.4575 6.81096 7.59811 5.93436 -96991.3 83093.3 61420.6 293007 65822.6 -21786.8 -7.42146 
393 1 39.8763 6.81182 7.59812 5.95555 -86075.8 62281.6 -61065.6 311161 -2796.51 -16604.4 -7.41324 
394 1 40.6023 8.03476 7.60822 5.94223 -103020 91995.6 72257.7 276574 62809.9 -17801.2 -7.42237 
395 1 42.021 8.03612 7.60754 5.96183 -90507.3 70288.3 -71392.2 291640 -3664.17 -13635.1 -7.41297 
396 1 42.7125 6.79715 7.60002 5.92988 -88077.6 76599.3 58801.2 305826 66717.1 -14565.4 -7.42132 
397 1 44.1313 6.79986 7.59888 5.94995 -77774.9 54767.4 -58353.1 317289 -3657.56 -11064.9 -7.41338 
398 1 44.8568 8.02313 7.60883 5.93851 -91558.1 82478.9 68921.6 284033 64198.8 -11752.1 -7.4222 
399 1 46.2756 8.02594 7.60716 5.95819 -79519.3 60550.3 -68081.9 293675 -4155.13 -9048.18 -7.41314 
400 1 46.9682 6.78769 7.59899 5.92795 -78416.8 68872.6 56016.2 309377 67123.2 -9605.83 -7.42115 
24 1 49.0036 0.633115 7.55939 5.90686 -34969.8 16027.8 4207.86 392491 44891.8 -11176.9 -7.41642 
25 1 50.4226 0.639024 7.55931 5.90994 -34338.3 14065.3 -5296.37 394972 -32450.4 -6454.84 -7.41565 
26 1 53.2634 0.627698 7.55922 5.90941 -34890.8 17063.3 4155.5 387940 44457.3 -8211.39 -7.41645 
27 1 54.6825 0.634004 7.55907 5.91213 -34194.5 15118.9 -4938.89 388792 -32828.1 -3948.74 -7.41574 
117 1 48.3129 1.87164 7.56518 5.91449 -42438.4 19350.1 -14911.1 391197 -23603.6 -7520.63 -7.41503 
118 1 49.0429 3.09272 7.57234 5.90885 -52450.7 37591.4 23268.8 372571 60064.7 -9728.27 -7.41813 
119 1 50.4619 3.09821 7.57158 5.92094 -48184.8 24488.3 -23911.2 376555 -16456.6 -5662.56 -7.41462 
120 1 51.1531 1.85988 7.56503 5.90776 -43139.5 26758 13345.9 383716 52868.9 -8926.25 -7.41722 
121 1 52.5721 1.86588 7.56456 5.91549 -40715.8 18869.8 -14146.2 385946 -24280.4 -4637.98 -7.41514 
122 1 53.3015 3.08729 7.57106 5.91062 -48938.7 35289.6 22515.6 368552 59251.4 -6854.97 -7.4181 
123 1 54.7204 3.09321 7.57014 5.92178 -44663.4 22758.4 -22893.5 370815 -17273.5 -3295.61 -7.41473 
124 1 55.4123 1.85519 7.56416 5.91015 -41233.1 26244.7 13018.7 378437 52209.8 -6508.29 -7.41723 
259 1 48.3517 4.33118 7.57995 5.92866 -56555.7 32199.4 -34458.7 361231 -10081.8 -7049.55 -7.41417 
260 1 49.0795 5.55337 7.58889 5.91959 -67205.9 56698.8 43925 332850 67182.6 -8208.66 -7.42009 
261 1 50.4984 5.55807 7.58737 5.93697 -59355.2 36613.2 -43732.3 338146 -6654.62 -5524.96 -7.41391 
262 1 51.1906 4.31997 7.5794 5.91376 -57490.4 45459.3 32771.6 353002 64436.3 -7361.28 -7.41906 
263 1 52.6095 4.32536 7.57817 5.92848 -51480.9 28554.6 -32886.8 356684 -11038.9 -4268.02 -7.4143 
264 1 53.3369 5.54776 7.58632 5.92023 -60436.1 51100.2 42243.7 329810 66666.1 -5428.67 -7.41999 
265 1 54.7558 5.55293 7.58454 5.93666 -52649.2 31852.9 -41919 333212 -7500.32 -3228.56 -7.41404 
266 1 55.4487 4.31519 7.57715 5.91523 -52241.8 41947.2 31722.7 348578 63689.9 -5033.93 -7.419 
401 1 48.3871 6.79152 7.59729 5.94698 -68484.5 47263.3 -55503.4 316640 -4374.89 -7106.13 -7.41353 
402 1 49.1122 8.01498 7.6068 5.9367 -80434 73049 65689.9 284925 65060.6 -7624.01 -7.42202 
403 1 50.5311 8.01867 7.60456 5.95559 -68969.9 51251.5 -64871.9 291235 -4572.82 -5777.13 -7.41332 
404 1 51.2247 6.78097 7.5964 5.92748 -69784.5 61383.1 53572.4 308109 67148.1 -6238.52 -7.42101 
405 1 52.6436 6.78546 7.59433 5.94563 -60217.4 40237.7 -52992.9 312872 -5076 -4364.87 -7.41369 
406 1 53.3685 8.00903 7.6031 5.93606 -70436 64312.5 62968.4 282566 65485.7 -4809.61 -7.42187 
407 1 54.7875 8.01324 7.60044 5.95425 -59184.1 43233.3 -62167.8 286796 -5017.67 -3485.27 -7.41347 
408 1 55.4818 6.77596 7.59267 5.92775 -61444.4 54847.2 51626.5 304563 66943.6 -3934.75 -7.42089 
28 1 57.5232 0.623544 7.5589 5.91219 -34611.2 18221.1 4101.43 382065 44032.2 -6172.78 -7.41649 
29 1 58.9423 0.630032 7.55871 5.9145 -33909.6 16183.8 -4693.25 382129 -33207.6 -2179.61 -7.41581 
30 1 61.783 0.620132 7.55849 5.91464 -34332.5 19020.4 4033.36 376453 43603.3 -4669.51 -7.41652 
31 1 63.202 0.626694 7.55828 5.91663 -33569.8 16968.1 -4516.67 376299 -33559 -868.171 -7.41588 
32 1 66.0426 0.617149 7.55807 5.91656 -33858.6 19764.7 3969.87 371976 43220.1 -3454.82 -7.41655 
125 1 56.8313 1.86148 7.56359 5.91713 -38796.2 18698.2 -13568.9 379460 -24878.1 -2599.74 -7.41523 
126 1 57.5602 3.08314 7.56929 5.91267 -45520.3 33437.9 21924.4 363203 58503.8 -4884.74 -7.41808 
127 1 58.9793 3.08926 7.56824 5.92303 -41387.1 21055.7 -22127 364561 -17976.4 -1626.24 -7.41483 
128 1 59.6716 1.85148 7.56302 5.91258 -39480.6 25768.8 12734 372721 51589.6 -4808.38 -7.41725 
129 1 61.0907 1.85789 7.56239 5.91887 -37060.9 18280.4 -13135.9 373242 -25410.6 -1145.13 -7.41531 
130 1 61.8192 3.07972 7.56719 5.91454 -42362.7 31490.2 21430.2 358045 57798.6 -3430.45 -7.41808 
131 1 63.2382 3.08594 7.5661 5.92421 -38229.3 19405.7 -21526.5 359091 -18587 -382.561 -7.41491 
132 1 63.931 1.84832 7.56176 5.91464 -37789.4 25170 12494.6 367742 51023.4 -3481.39 -7.41726 
133 1 65.35 1.85478 7.56112 5.92031 -35314.9 17828.3 -12814 368126 -25885.6 1.24055 -7.41537 
134 1 66.0783 3.07672 7.56502 5.91598 -39182.1 29703.6 21052.1 353798 57202.6 -2256.77 -7.41808 
267 1 56.8677 4.32091 7.57571 5.92904 -46355.3 25496.3 -31666.1 350887 -11865.7 -2321.06 -7.41441 
268 1 57.5947 5.54346 7.58292 5.92121 -54099.5 46352.2 40943.5 325328 66093.7 -3507.08 -7.41992 
269 1 59.0137 5.54886 7.58092 5.93689 -46596.5 27430.8 -40516.6 327695 -8215.19 -1597.5 -7.41415 
270 1 59.7072 4.3114 7.57431 5.91675 -47715.9 38624.1 30891 343547 62967.1 -3391.28 -7.41897 
271 1 61.1262 4.31727 7.57275 5.92982 -41936.3 22515.8 -30717.7 345263 -12562.3 -915.402 -7.41451 
272 1 61.853 5.5399 7.57894 5.92221 -48246.5 41944 39899.2 320837 65496.9 -2092.84 -7.41987 
273 1 63.272 5.54542 7.57686 5.93719 -40805.1 23361.5 -39405.8 322762 -8841.38 -375.56 -7.41423 
274 1 63.9659 4.30818 7.57121 5.91804 -43315.8 35568.9 30219.9 339085 62299.9 -2121.6 -7.41895 
275 1 65.385 4.31411 7.56963 5.93041 -37574 19658 -29992 340488 -13185.5 177.377 -7.41458 
276 1 66.1117 5.53676 7.57477 5.9228 -42606.4 37722.4 39105.3 317046 64946.4 -970.258 -7.41984 
409 1 56.9008 6.78081 7.5903 5.94514 -52131 34245.1 -50997.9 307781 -5719.89 -2443.28 -7.41381 
410 1 57.6255 8.00444 7.59809 5.93598 -61341.2 56805.7 60830.7 278731 65601.7 -2832.36 -7.42175 
411 1 59.0445 8.00891 7.5951 5.95358 -50527 35911.5 -60020.9 281679 -5416.82 -1830.23 -7.4136 
412 1 59.7396 6.77197 7.58802 5.92829 -54253.4 48934.3 50111 300286 66602.6 -2289.16 -7.42081 
413 1 61.1586 6.777 7.58545 5.94502 -45119.3 28725.1 -49421 302713 -6262.66 -1034.12 -7.41392 
414 1 61.8832 8.00062 7.59216 5.93601 -52916.5 49979.7 59145.2 274711 65509.2 -1374.23 -7.42166 
415 1 63.3023 8.00523 7.58901 5.95309 -42249.2 29320 -58321.2 277011 -5797.31 -580.818 -7.41369 
416 1 63.9978 6.76854 7.58288 5.92865 -47265.9 43581.5 48909.7 296346 66195 -1038.27 -7.42075 
417 1 65.4168 6.77365 7.58024 5.94481 -38300.6 23374 -48217.7 298315 -6792.67 45.0957 -7.41399 
418 1 66.1415 7.99722 7.58578 5.93577 -45011.5 43442.1 57873.2 271235 65285.7 -235.714 -7.42161 
554 1 59.768 9.23308 7.60232 5.94451 -59914.1 57249.7 69748.5 253309 63031.2 -2055.25 -7.42254 
555 1 61.1871 9.23714 7.59872 5.96171 -47559.8 37008.4 -68862.3 256031 -6254.97 -1337.17 -7.41339 
558 1 64.0258 9.22933 7.59508 5.94399 -50511 49532.3 67975.2 249504 63155.8 -723.751 -7.42245 
559 1 65.4449 9.23348 7.59131 5.96086 -38473.9 29125.5 -67144.3 251636 -6516.11 -215.119 -7.41348 
33 1 67.4617 0.62373 7.55787 5.91827 -33049.5 17629.1 -4405.91 371819 -33899.8 224.929 -7.41592 
34 1 70.3023 0.614394 7.55763 5.91785 -33400.7 20099 3927.16 369038 42874.6 -2484.91 -7.41657 
35 1 71.7214 0.620981 7.5574 5.91923 -32629 17666.8 -4331.08 369067 -34222 1151.71 -7.41595 
36 1 74.562 0.611747 7.55712 5.9184 -32948.6 19983.4 3921.7 367875 42514.2 -1686.17 -7.41657 
135 1 67.4974 3.08297 7.56392 5.92501 -35062.3 17620.2 -21110 354713 -19121.2 631.957 -7.41496 
136 1 68.1904 1.84547 7.56048 5.91611 -35861.7 24559.1 12325.7 363995 50562.5 -2402.03 -7.41728 
137 1 69.6095 1.85195 7.55981 5.92123 -33462.9 16951.6 -12616.3 364483 -26297.9 967.977 -7.41541 
138 1 70.3377 3.07392 7.56273 5.91671 -36130.7 27570.4 20828.8 350946 56712.9 -1304.78 -7.41808 
139 1 71.7568 3.08018 7.56154 5.92524 -32069.7 15325.4 -20866.5 352047 -19534 1477.95 -7.41499 
140 1 72.45 1.84277 7.55905 5.91684 -34221.2 23355.2 12254 361958 50146.2 -1534.38 -7.41729 
141 1 73.8691 1.84925 7.55832 5.92148 -31789.6 15637 -12498.1 362643 -26628.5 1783.97 -7.41543 
142 1 74.5973 3.07121 7.56021 5.91677 -33067.2 25044.4 20758.2 349788 56269.1 -495.617 -7.41808 
277 1 67.5308 5.54232 7.57265 5.93721 -35256.2 19140 -38623.9 318721 -9415.41 586.799 -7.4143 
278 1 68.225 4.30524 7.56802 5.91874 -38861.4 32426.6 29753.8 335630 61743.6 -1087.25 -7.41894 
279 1 69.6441 4.31119 7.56637 5.93059 -33181.7 16480.6 -29533.4 337064 -13701.6 1067.73 -7.41462 
280 1 70.3708 5.53381 7.57037 5.92283 -37059.4 33348.8 38619.2 314477 64448.6 -40.6532 -7.41983 
281 1 71.7899 5.53939 7.56813 5.93674 -29784.4 14635 -38170.6 316245 -9861.96 1369.75 -7.41433 
282 1 72.4844 4.30243 7.56456 5.91879 -34693.1 28939.3 29529 333741 61252.5 -226.876 -7.41894 
283 1 73.9035 4.30839 7.56281 5.93013 -28995.8 12854 -29286.3 335283 -14070.4 1819.1 -7.41464 
284 1 74.6303 5.53091 7.56564 5.92225 -31448.5 28600.6 38432.4 313388 63971.5 787.404 -7.41982 
419 1 67.5606 8.00188 7.58252 5.95242 -34519.6 22746.8 -57122 273212 -6222.86 377.881 -7.41376 
420 1 68.2565 6.7654 7.57749 5.92862 -40504.2 38121.1 48069.3 293250 65771.9 -23.3318 -7.42072 
421 1 69.6756 6.77053 7.57475 5.94429 -31588 17955 -47448.8 295128 -7276.62 893.15 -7.41404 
422 1 70.4004 7.994 7.579 5.93515 -37091.1 36988.8 57073.1 268812 64951.6 724.333 -7.42158 
423 1 71.8196 7.99867 7.57559 5.95134 -26702.3 16023.8 -56421.2 270776 -6609.41 1143.34 -7.4138 
424 1 72.5158 6.76236 7.57173 5.92801 -33905 32514.2 47632.1 291525 65318.7 855.078 -7.42071 
425 1 73.9349 6.76751 7.56886 5.94319 -24995.3 12178.1 -47042.6 293411 -7641.24 1609.05 -7.41406 
426 1 74.6599 7.99081 7.57178 5.93399 -29150.4 30106.2 56731.5 267816 64517.9 1617.29 -7.42157 
562 1 68.2842 9.22587 7.5873 5.94329 -41470.1 41888.8 66727.4 246513 63058.6 356.66 -7.42241 
563 1 69.7034 9.23005 7.58337 5.95973 -29488.5 21473.3 -66029.9 248398 -6848.32 651.16 -7.41353 
566 1 72.5434 9.2225 7.57899 5.94209 -32548.6 34159 66046.7 244800 62758.1 1322.02 -7.42239 
567 1 73.9626 9.22669 7.5749 5.95805 -20592.5 13417.7 -65440.5 246629 -7155.26 1383.88 -7.41355 
37 1 75.9811 0.618334 7.55687 5.91947 -32136.8 17300.6 -4284.67 368142 -34528.2 1946.11 -7.41596 
38 1 78.8217 0.609097 7.55663 5.91792 -32231.1 19313.8 3904.23 368466 42195.4 -884.424 -7.41657 
39 1 80.2408 0.615686 7.55641 5.91864 -31414 16282 -4290.04 368991 -34847.1 2723.1 -7.41595 
40 1 83.0815 0.606347 7.5562 5.91675 -31275.4 18148.7 3892.1 370848 41910.4 51.8854 -7.41655 
41 1 84.5006 0.612931 7.55597 5.91711 -30397.6 14868.9 -4305.86 371598 -35114.9 3650.82 -7.41593 
143 1 76.0164 3.07747 7.55898 5.92482 -28940.3 12668.7 -20750.4 351043 -19845.5 2222.29 -7.415 
144 1 76.7097 1.84011 7.55752 5.91688 -32229 21865 12242.1 361625 49769.3 -744.549 -7.41729 
145 1 78.1288 1.84659 7.55681 5.92105 -29737.3 13868.2 -12464.3 362583 -26927.8 2534.41 -7.41543 
146 1 78.8571 3.06846 7.55768 5.91609 -29860.5 22203.8 20760 350315 55913.3 341.628 -7.41808 
147 1 80.2762 3.07472 7.5565 5.9237 -25752.3 9337.47 -20752.5 351821 -20106 2975.43 -7.41499 
148 1 80.9695 1.83738 7.55609 5.91619 -30289.2 19677.2 12250.1 363091 49471.6 139.044 -7.41728 
149 1 82.3887 1.84386 7.55541 5.9199 -27694.2 11473.6 -12497.6 364232 -27177.3 3356.82 -7.41541 
150 1 83.1173 3.06557 7.55536 5.91478 -26288.8 18641.6 20850.6 352537 55644.4 1338.51 -7.41807 
151 1 84.5364 3.07183 7.55425 5.92187 -22048.1 5444.83 -20848.9 354218 -20263.8 3874.93 -7.41496 
285 1 76.0495 5.5365 7.56333 5.93565 -24089.9 9801.93 -37963.1 315200 -10178.9 2074.84 -7.41434 
286 1 76.7441 4.29962 7.5609 5.91817 -30133.2 25202.5 29478.1 333342 60820.6 588.107 -7.41894 
287 1 78.1632 4.30558 7.55916 5.92905 -24389 8859.29 -29209.2 335100 -14351.6 2538.99 -7.41464 
288 1 78.8903 5.52795 7.56088 5.92101 -25834.7 23523.8 38431.9 313817 63560.9 1667.23 -7.41982 
289 1 80.3095 5.53353 7.55866 5.93392 -18470.6 4118.21 -37957.5 315791 -10426.7 2811.96 -7.41432 
290 1 81.0042 4.29671 7.5574 5.9169 -25713 20748.1 29538.4 334694 60484.4 1516.6 -7.41894 
291 1 82.4234 4.30267 7.55577 5.92726 -19832 4032.09 -29275.6 336548 -14553.4 3336.48 -7.41462 
292 1 83.1508 5.5248 7.55648 5.91907 -19765.6 17600.5 38621.6 315823 63219.1 2721.04 -7.41983 
293 1 84.5701 5.53037 7.55441 5.93148 -12237 -2151.75 -38157.8 317832 -10596.3 3681.78 -7.41429 
427 1 76.0791 7.99549 7.5683 5.94963 -18671.6 8975.86 -56104.9 269692 -6912.04 1844.67 -7.4138 
428 1 76.7756 6.7593 7.5657 5.92684 -26885 26587.4 47509.5 291138 64859.1 1718.88 -7.42071 
429 1 78.1948 6.76445 7.56285 5.94149 -17934 5855.24 -46914.6 293081 -7921.85 2314.57 -7.41406 
430 1 78.9201 7.98752 7.56454 5.93217 -21150 22713.8 56717.9 268129 64051.2 2578.61 -7.42158 
431 1 80.3394 7.99218 7.56117 5.94732 -10657.1 965.279 -56108.9 270048 -7189.5 2590.25 -7.41379 
432 1 81.036 6.7561 7.55991 5.92496 -20097.3 19841.5 47619.6 292319 64436.8 2712.46 -7.42072 
433 1 82.4552 6.76124 7.55722 5.9391 -10992.4 -1278.88 -47040.2 294281 -8159.95 3105.41 -7.41403 
434 1 83.1811 7.98401 7.55779 5.92976 -12853.7 14476.6 57014 269984 63560.1 3725.42 -7.4216 
435 1 84.6004 7.98865 7.55464 5.94431 -2127.45 -7592.17 -56462 271834 -7481.8 3462.21 -7.41374 
570 1 76.8034 9.21908 7.57035 5.94033 -23196.1 26007.1 65832.1 244415 62311.6 2294.82 -7.42239 
571 1 78.2226 9.22326 7.56628 5.95577 -11207.7 4786.92 -65263.2 246127 -7441.04 2114.05 -7.41354 
574 1 81.0641 9.21547 7.56199 5.93797 -14123.5 16902.6 65990.7 245481 61780.9 3407.76 -7.4224 
575 1 82.4834 9.21963 7.55812 5.95281 -1930.15 -4651.34 -65477.7 247180 -7769.09 2930.71 -7.41351 
42 1 87.3414 0.603386 7.55578 5.91487 -30483.8 16361.6 3913.61 375022 41664.5 1161.09 -7.41651 
43 1 88.7605 0.609961 7.55557 5.91489 -29569.5 12777.8 -4353.87 375834 -35353.7 4821.74 -7.41589 
44 1 91.6016 0.600073 7.55542 5.91243 -29385.4 14313.5 3933.1 380650 41463.7 2475.15 -7.41647 
45 1 93.0206 0.606592 7.55521 5.91224 -28378.9 10612.3 -4452.82 381286 -35583.8 6273.26 -7.41584 
152 1 85.2296 1.83447 7.55479 5.91482 -27942.8 17099.1 12340.9 366302 49244.2 1199.98 -7.41726 
153 1 86.6488 1.84095 7.55415 5.91795 -25371.8 8370.2 -12592.6 367620 -27333.4 4386.95 -7.41538 
154 1 87.3778 3.06243 7.55328 5.91267 -22816.9 14424.3 21096.9 356470 55493.9 2532.93 -7.41806 
155 1 88.7969 3.06868 7.55223 5.91933 -18495.3 785.203 -21094.5 358171 -20313.1 5004.86 -7.41492 
156 1 89.49 1.83128 7.55362 5.91277 -25624.2 13814.7 12512.3 371135 49118.2 2449.63 -7.41723 
157 1 90.9091 1.83773 7.55299 5.91515 -22892.3 4893.06 -12794.9 372410 -27424.7 5674.84 -7.41533 
158 1 91.6387 3.05892 7.55136 5.91006 -18822.6 9833.13 21470.6 361709 55452.6 3978.1 -7.41804 
159 1 93.0578 3.06512 7.55035 5.91628 -14337.4 -4174.18 -21497.8 363166 -20246 6437.27 -7.41485 
160 1 93.7506 1.82762 7.55252 5.91019 -22967.3 10439.9 12727.2 377113 49048.6 4010.05 -7.41719 
294 1 85.2648 4.29359 7.55426 5.91485 -20738.2 15810.1 29781 337614 60244.3 2645.5 -7.41894 