ITEM: TIMESTEP
0
ITEM: NUMBER OF ATOMS
30248
ITEM: BOX BOUNDS pp pp pp
0.0000000000000000e+00 1.5123498900000001e+02
0.0000000000000000e+00 2.6194668500000000e+02
0.0000000000000000e+00 1.8399999600000001e+01
ITEM: ATOMS id type x y z c_csym c_2[1] c_2[2] c_2[3] c_2[4] c_2[5] c_2[6] c_3 
1 1 0 0 7.5 6.04899 10486.4 10251.9 -64707 -46.7699 0.24191 0.267881 -7.4119 
2 1 2.13993 1.2124 7.5 6.04909 10107.9 11218.3 -63657.7 -1153.66 7202.88 -12658.9 -7.41195 
3 1 3.55988 1.20085 7.5 6.04918 11359.3 9582.46 -62364 2214.62 6955.79 -20280.6 -7.41201 
4 1 6.39979 1.17776 7.5 6.04918 9992.23 9698.56 -57615.1 -3305.71 6985.65 -35054.5 -7.41226 
5 1 7.81974 1.16621 7.5 6.04918 11079.8 7841.12 -54922.8 4657.51 5453.88 -39360.2 -7.4124 
72 1 0.0199993 2.45943 7.5 6.04902 8888.14 11731.8 -63689.8 -34.3931 14377.8 18.4973 -7.41195 
73 1 1.43995 2.44788 7.5 6.04909 11874.2 9411.51 -63326.6 958.512 14505.2 -8284.38 -7.41195 
74 1 2.15993 3.67183 7.5 6.0491 8254.8 12628.6 -61646 -939.969 20783 -12390.2 -7.41205 
75 1 3.57988 3.66028 7.5 6.0492 12241.9 8296.24 -60426.5 2491.14 20877.5 -19582.7 -7.41211 
76 1 4.27986 2.42479 7.5 6.04918 9227.15 11376.5 -60529.1 -2008.12 13789.8 -24464.1 -7.41211 
77 1 5.69981 2.41324 7.5 6.04918 11767.1 8262.33 -58632.4 3655.91 13152 -30338.2 -7.41221 
78 1 6.41979 3.63719 7.5 6.0492 8180.11 11109.7 -55485.4 -2733.63 19232.6 -34459.4 -7.41237 
79 1 7.83974 3.62564 7.5 6.0492 12003.5 6651.32 -53575.4 5229.49 18019.2 -37785.1 -7.41247 
80 1 8.53972 2.39015 7.5 6.04918 9059.4 9304.44 -51819.7 -3963.88 12657.9 -43244.9 -7.41256 
214 1 0.0399987 4.91886 7.5 6.04902 6798.59 13000.8 -60784.9 -67.6789 27352.8 135.212 -7.4121 
215 1 1.45995 4.90731 7.5 6.0491 12473.2 7978.84 -60231.3 1107.77 28016 -8024.25 -7.41212 
216 1 2.17993 6.13126 7.5 6.0491 5988.07 13861.9 -57918.4 -789.8 32411.9 -11699.1 -7.41224 
217 1 3.59988 6.11971 7.5 6.0492 12634.8 6872.38 -56530.2 2784.62 33205.8 -18438.1 -7.41231 
218 1 4.29986 4.88422 7.5 6.0492 7159.3 12662.6 -57603.3 -1667.09 26013.7 -23633.8 -7.41226 
219 1 5.71981 4.87267 7.5 6.0492 12406.2 6905.56 -55984.3 4124.51 25886.5 -28797.2 -7.41234 
220 1 6.43979 6.09662 7.5 6.0492 5978.69 12375.2 -51797.6 -2256.98 29655.9 -32843.1 -7.41256 
221 1 7.85974 6.08507 7.5 6.0492 12478.1 5368.24 -50468.1 5771.42 29128.4 -35226.6 -7.41263 
222 1 8.55972 4.84958 7.5 6.0492 7065.67 10608.3 -48833 -3329.43 23143.6 -41907.7 -7.41271 
356 1 0.059998 7.37829 7.5 6.04902 4378.9 14186.3 -56333.2 -99.3226 37841.3 325.526 -7.41233 
357 1 1.47995 7.36675 7.5 6.0491 12644.7 6512.06 -55229.9 1234.85 39387.7 -7641.09 -7.41237 
358 1 2.19993 8.59069 7.5 6.0491 3479.01 15010.1 -52880.3 -664.816 41145 -10660 -7.4125 
359 1 3.61988 8.57914 7.5 6.0492 12660.5 5441.63 -50904.2 3013.78 42979.8 -16894.3 -7.41261 
360 1 4.31986 7.34365 7.5 6.0492 4777.78 13874 -53205.8 -1367.09 35846.9 -22116.2 -7.41249 
361 1 5.73981 7.33211 7.5 6.0492 12640.6 5543.57 -51551.3 4508.93 36585.9 -26558 -7.41257 
362 1 6.45979 8.55605 7.5 6.0492 3555.24 13586.1 -46939.1 -1852.78 37385 -30358.5 -7.41281 
363 1 7.87974 8.5445 7.5 6.0492 12615 4118.16 -45798.5 6183.37 37896.3 -31809 -7.41287 
364 1 8.57972 7.30901 7.5 6.0492 4795.03 11880.9 -44590.6 -2767.01 31468 -39400.1 -7.41293 
6 1 10.6596 1.14312 7.5 6.04918 9735.44 7290.36 -46993.9 -5355.61 6820.43 -49257.2 -7.41281 
7 1 12.0796 1.13157 7.5 6.04918 10675.6 5519.48 -43841.8 6836.89 2979.93 -48756.5 -7.41297 
8 1 14.9195 1.10848 7.5 6.04918 9380.25 4882.29 -34235.9 -7221.39 6894.86 -52553.6 -7.41347 
9 1 16.3395 1.09693 7.5 6.04918 10210.2 3529.16 -31647.1 8629.79 -169.602 -47280.7 -7.4136 
81 1 9.95967 2.3786 7.5 6.04918 11439.5 6177.04 -49438.3 6104.14 10202.9 -44618.7 -7.41268 
82 1 10.6796 3.60255 7.5 6.0492 7988.59 8683.38 -44627 -4548.7 16872.8 -48525.1 -7.41293 
83 1 12.0996 3.591 7.5 6.0492 11668.2 4487.48 -43433.8 7566.2 13341.6 -46571.9 -7.41299 
84 1 12.7996 2.35551 7.5 6.04918 8774.39 6753.62 -39600.3 -5855.21 11334.4 -52152.6 -7.41319 
85 1 14.2195 2.34396 7.5 6.04918 11026.3 3993.64 -37960.6 8144.85 6093.75 -48309 -7.41327 
86 1 14.9395 3.56791 7.5 6.0492 7711.45 6217.12 -31506.9 -6338.8 14344 -51936.9 -7.41361 
87 1 16.3595 3.55636 7.5 6.0492 11292.9 2702.64 -32398.1 9350.69 7596 -44818.1 -7.41356 
88 1 17.0594 2.32087 7.5 6.04918 8422.92 4625.22 -26528.1 -7593.45 10275.8 -50166.6 -7.41386 
89 1 18.4794 2.30932 7.5 6.04918 10598.6 2569.8 -26724.6 9663.98 1413.85 -41947.5 -7.41385 
223 1 9.97967 4.83803 7.5 6.0492 12161.4 4978.05 -47701 6786.92 21188.5 -42099.2 -7.41277 
224 1 10.6996 6.06198 7.5 6.0492 5905.1 9988.63 -40986.2 -3851.98 25318.5 -46370.4 -7.41312 
225 1 12.1196 6.05043 7.5 6.0492 12272.8 3425.88 -41565.7 8230.63 22479 -43096.3 -7.41309 
226 1 12.8196 4.81494 7.5 6.0492 6887.51 8054.01 -36480.8 -5065.07 19462.9 -50662.1 -7.41335 
227 1 14.2395 4.8034 7.5 6.0492 11864.5 3011.37 -37460 8889.65 14729.8 -45253.7 -7.4133 
228 1 14.9595 6.02734 7.5 6.0492 5774.83 7526.1 -27856.5 -5566.86 20456.7 -49769.2 -7.41379 
229 1 16.3795 6.01579 7.5 6.0492 12060.2 1909 -32027.9 9987.47 14426.8 -41036 -7.41358 
230 1 17.0794 4.7803 7.5 6.0492 6651.85 5868.44 -23169 -6805.58 15906.4 -48925.8 -7.41403 
231 1 18.4994 4.76876 7.5 6.0492 11573.9 1838.39 -27609.4 10315.6 7577.66 -38834.4 -7.4138 
365 1 9.99967 7.29747 7.5 6.0492 12524.9 3826.66 -44416.4 7334.84 30381.8 -38478.3 -7.41294 
366 1 10.7196 8.52141 7.5 6.0492 3637.55 11287 -36427.4 -3258.26 31411.6 -43001.7 -7.41335 
367 1 12.1396 8.50986 7.5 6.0492 12585.9 2454.08 -38385.5 8718.37 29632.5 -38506.4 -7.41325 
368 1 12.8396 7.27437 7.5 6.0492 4777.33 9382.3 -32416.6 -4360.71 25754.2 -47749 -7.41356 
369 1 14.2595 7.26283 7.5 6.0492 12404.5 2140.2 -35714.6 9469.04 21914.8 -40943.8 -7.41339 
370 1 14.9795 8.48677 7.5 6.0492 3702.76 8882.64 -23600.1 -4903.44 24640.7 -46284 -7.41401 
371 1 16.3995 8.47522 7.5 6.0492 12587.7 1259.45 -30624.4 10426.8 19716.8 -36132.6 -7.41365 
372 1 17.0994 7.23973 7.5 6.0492 4721.16 7194.03 -19207.4 -6096.61 20064.7 -46281.4 -7.41424 
373 1 18.5194 7.22819 7.5 6.0492 12314.4 1267.79 -27554.8 10792.6 12676.2 -34577 -7.41381 
10 1 19.1794 1.07384 7.5 6.04918 8994.69 3307.79 -21989.3 -8794.5 7415.44 -45635.8 -7.41409 
11 1 20.5993 1.06229 7.5 6.04918 9764.58 2594.18 -20786.8 9940.45 -3632.5 -37069.6 -7.41415 
12 1 23.4392 1.0392 7.5 6.04918 8657.56 3004.67 -12320 -9960.92 8539.06 -32146.1 -7.41458 
13 1 24.8592 1.02765 7.5 6.04918 9424.22 2959.94 -12912.4 10712.4 -7054.51 -22632.4 -7.41455 
14 1 27.6991 1.00456 7.5 6.04918 8448.55 3860.13 -6176.15 -10627 10317.4 -17254.3 -7.41488 
90 1 19.1994 3.53327 7.5 6.0492 7397.3 4522.53 -18778 -7995.36 12359.1 -45378.2 -7.41426 
91 1 20.6193 3.52172 7.5 6.0492 10950.9 2002.1 -22765.5 10504.3 1649.14 -34651.4 -7.41405 
92 1 21.3193 2.28623 7.5 6.04918 8072.51 3582.61 -15063.5 -9054.08 9919.03 -39563.8 -7.41444 
93 1 22.7392 2.27468 7.5 6.04918 10239.9 2406.69 -17786.6 10602.9 -3224.06 -29020.8 -7.4143 
94 1 23.4592 3.49863 7.5 6.0492 7109.06 4029.35 -8528.41 -9364.37 11512.3 -32416.2 -7.41478 
95 1 24.8792 3.48708 7.5 6.0492 10721 2606.97 -16042.6 11023.9 -3711.77 -20508.7 -7.41438 
96 1 25.5792 2.25159 7.5 6.04918 7797.65 3794.45 -6779.84 -10102.2 10559.3 -24928.6 -7.41486 
97 1 26.9991 2.24004 7.5 6.04918 10029.9 3454.08 -12164.2 10961.6 -7313.17 -14581.7 -7.41457 
98 1 27.7191 3.46399 7.5 6.0492 6914.22 4637.76 -1748.38 -10289.7 12130 -18103.2 -7.41511 
232 1 19.2194 5.9927 7.5 6.0492 5606.79 5761.21 -14996.9 -7290.73 16246.3 -43721.6 -7.41445 
233 1 20.6393 5.98115 7.5 6.0492 11893.8 1484.58 -23935.5 10981.4 6299.46 -31144.7 -7.41399 
234 1 21.3393 4.74566 7.5 6.0492 6401.55 4690.71 -11336 -8405.8 13378.8 -38918.2 -7.41464 
235 1 22.7592 4.73412 7.5 6.0492 11358.4 1929.22 -20022.8 11043 809.037 -26258.5 -7.41418 
236 1 23.4792 5.95806 7.5 6.0492 5436.08 5104.37 -4455.29 -8835.81 13678.3 -31661 -7.41499 
237 1 24.8992 5.94651 7.5 6.0492 11832.8 2341.06 -18597.8 11261.4 -724.462 -17708.2 -7.41425 
238 1 25.5992 4.71102 7.5 6.0492 6192.51 4687.02 -2560.43 -9680.24 12524.9 -25080.5 -7.41508 
239 1 27.0191 4.69948 7.5 6.0492 11285.8 3208.56 -15564.1 11135.4 -4725.87 -12433.3 -7.4144 
240 1 27.7391 5.92342 7.5 6.0492 5311.83 5464.38 2778.65 -9989.56 13322.5 -18418.7 -7.41534 
374 1 19.2394 8.45213 7.5 6.0492 3734.22 7091.38 -10918.8 -6678.05 18643.1 -40891.6 -7.41466 
375 1 20.6593 8.44058 7.5 6.0492 12645.9 1146.96 -24323.6 11266.1 9869.48 -26738 -7.41397 
376 1 21.3593 7.20509 7.5 6.0492 4635.29 5917.47 -7315.16 -7811.66 15716.2 -37132.4 -7.41484 
377 1 22.7792 7.19355 7.5 6.0492 12299.1 1638.29 -21571.3 11319 4151.06 -22675.6 -7.4141 
378 1 23.4992 8.41749 7.5 6.0492 3731.95 6294.21 -334.711 -8364.04 14743.1 -30070.5 -7.4152 
379 1 24.9192 8.40594 7.5 6.0492 12791.9 2263.18 -20550.4 11332.1 1596.14 -14384.6 -7.41414 
380 1 25.6192 7.17045 7.5 6.0492 4547.77 5711.19 1728.61 -9276.78 13655.5 -24519.1 -7.4153 
381 1 27.0391 7.15891 7.5 6.0492 12403.5 3144.32 -18436 11172.1 -2515.35 -9905.79 -7.41424 
382 1 27.7591 8.38285 7.5 6.0492 3719.48 6403.6 7201.85 -9700.98 13706.1 -18336.4 -7.41557 
15 1 29.119 0.99301 7.5 6.04918 9265.27 4315.67 -8481.33 10938.3 -10156.7 -9177.94 -7.41475 
16 1 31.9589 0.969916 7.5 6.04918 8430.36 5294.59 -3260.99 -10747.7 12671.9 -5859.3 -7.41501 
17 1 33.3789 0.95837 7.5 6.04918 9336.42 5957.33 -6783.71 10662.3 -12778.7 -886.227 -7.41482 
18 1 36.2188 0.935276 7.5 6.04918 8637.53 6526.52 -2311.8 -10344 15407.7 -1086.02 -7.41504 
19 1 37.6388 0.92373 7.5 6.04918 9648.41 7088.93 -6334.07 9973.84 -14888.4 267.632 -7.41482 
99 1 29.139 3.45244 7.5 6.0492 10670 4185.67 -12572.8 10973.8 -7939.7 -7488.13 -7.41454 
100 1 29.839 2.21695 7.5 6.04918 7669.51 4901.7 -2020.31 -10631.1 12272.3 -11468.5 -7.41509 
101 1 31.259 2.2054 7.5 6.04918 10029.8 5161.77 -9658.04 10794.9 -10545.1 -3474.11 -7.41468 
102 1 31.9789 3.42935 7.5 6.0492 6874.58 5800.09 1802.53 -10659 14200.6 -7213.44 -7.41527 
103 1 33.3989 3.4178 7.5 6.0492 10838.4 6014.63 -11579.6 10466.4 -10813.9 347.886 -7.41457 
104 1 34.0989 2.18231 7.5 6.04918 7739.59 6202.39 20.7928 -10595 14900.5 -3299.31 -7.41517 
105 1 35.5188 2.17077 7.5 6.04918 10265.5 6729.53 -9083.51 10201.3 -12844.4 1170.61 -7.41469 
106 1 36.2388 3.39471 7.5 6.0492 7030.25 6773.17 3328.55 -10437.9 17400.8 -2771.83 -7.41533 
107 1 37.6588 3.38316 7.5 6.0492 11225.3 7283.41 -11564.7 9640.79 -12435.8 1121.06 -7.41455 
241 1 29.159 5.91187 7.5 6.0492 11929 4123.25 -16215.2 10959.1 -5861.92 -5601.96 -7.41435 
242 1 29.859 4.67638 7.5 6.0492 6084.64 5522.47 2779.33 -10457.8 13582.9 -12435.8 -7.41534 
243 1 31.279 4.66484 7.5 6.0492 11404.8 5107.63 -13934.1 10719.2 -8563.64 -2025.01 -7.41446 
244 1 31.9989 5.88878 7.5 6.0492 5287.19 6327.22 6904.87 -10578.8 15218.1 -8524.67 -7.41554 
245 1 33.4189 5.87723 7.5 6.0492 12208.5 6093.65 -15944.1 10253.5 -8849.85 1343.65 -7.41434 
246 1 34.1189 4.64174 7.5 6.0492 6130.25 6533.72 5430.75 -10633.1 16356 -4925.34 -7.41545 
247 1 35.5388 4.6302 7.5 6.0492 11730.3 6811.78 -13914.5 9952.98 -10675.1 1998.07 -7.41443 
248 1 36.2588 5.85414 7.5 6.0492 5407.99 7001.2 9058.23 -10522.6 18912.7 -4800.85 -7.41563 
249 1 37.6788 5.84259 7.5 6.0492 12660.7 7441.94 -16298 9328.44 -9926.91 1434.44 -7.4143 
383 1 29.179 8.3713 7.5 6.0492 13054.4 4224.61 -19340.7 10820.1 -4132.75 -3622.29 -7.41418 
384 1 29.879 7.13581 7.5 6.0492 4502.67 6260 7538.58 -10264.4 14252.8 -13169.1 -7.41558 
385 1 31.299 7.12427 7.5 6.0492 12660.3 5198.1 -17737.9 10545.3 -6736.67 -643.481 -7.41426 
386 1 32.0189 8.34821 7.5 6.0492 3738.99 6946.11 11864.6 -10467.1 15597.2 -9867.65 -7.4158 
387 1 33.4389 8.33666 7.5 6.0492 13443.8 6289.5 -19787.5 9966.63 -7038.25 2053.72 -7.41414 
388 1 34.1389 7.10117 7.5 6.0492 4549.36 6950.48 10806.1 -10618.8 17261.5 -6739.86 -7.41574 
389 1 35.5588 7.08963 7.5 6.0492 13071.6 6984.89 -18239.3 9650.32 -8542.95 2405.49 -7.41421 
390 1 36.2788 8.31357 7.5 6.0492 3840.26 7290.52 14709.5 -10543.1 19834.2 -7191.17 -7.41593 
391 1 37.6988 8.30202 7.5 6.0492 13941.3 7660.85 -20442.4 8993.15 -7499.23 1211.52 -7.41408 
20 1 40.4787 0.900637 7.5 6.04918 9065.29 6883.96 -1639.86 -9500.19 18259.5 -3555.75 -7.41505 
21 1 41.8986 0.88909 7.5 6.04918 10168.8 7127.57 -5451.34 8992.36 -16558.2 -5185.99 -7.41485 
22 1 44.7385 0.865997 7.5 6.04918 9667.61 6038.75 279.051 -8348.75 20954.8 -11559 -7.41514 
23 1 46.1585 0.85445 7.5 6.04918 10826.5 5888.65 -2812.73 7845.05 -17919.3 -14744.1 -7.41498 
108 1 38.3587 2.14767 7.5 6.04918 8028.68 6950.71 870.694 -10026.3 18102.6 -2299.67 -7.41519 
109 1 39.7787 2.13613 7.5 6.04918 10719.5 7426.77 -8784 9305.98 -14341.5 -1319.7 -7.41468 
110 1 40.4987 3.36007 7.5 6.0492 7390.81 6923.15 4471.58 -9683.12 21200.3 -5347.06 -7.41538 
111 1 41.9186 3.34852 7.5 6.0492 11786.6 7404.54 -10883.3 8635.21 -13146.4 -4581.03 -7.41456 
112 1 42.6186 2.11303 7.5 6.04918 8519.76 6641.14 2191.08 -9029.43 21448.7 -7845.04 -7.41525 
113 1 44.0385 2.10149 7.5 6.04918 11333.8 6856.8 -7219.81 8236.85 -15298.2 -9305.52 -7.41475 
114 1 44.7585 3.32543 7.5 6.0492 7929.67 5948.24 6731.48 -8526.39 25008.1 -13231.3 -7.41548 
115 1 46.1785 3.31388 7.5 6.0492 12442.5 6201.36 -8282.43 7562.94 -13396.1 -14243.9 -7.41469 
116 1 46.8785 2.07839 7.5 6.04918 9159.17 5162.4 5241.11 -7754.72 24527.7 -17368.1 -7.4154 
250 1 38.3787 4.6071 7.5 6.0492 6361.58 7022.44 6855.49 -10198.3 20299.7 -4305.81 -7.41551 
251 1 39.7987 4.59556 7.5 6.0492 12235.5 7589.85 -13878.4 8994.25 -11400.1 -923.63 -7.41442 
252 1 40.5187 5.8195 7.5 6.0492 5699.45 6904.03 10803 -9852.92 23623 -7699.45 -7.41571 
253 1 41.9386 5.80795 7.5 6.0492 13234.2 7592.56 -15708.2 8336.37 -9693.47 -4642.18 -7.41431 
254 1 42.6386 4.57246 7.5 6.0492 6778.37 6523.05 8659.73 -9244.64 24688.5 -9906.98 -7.41559 
255 1 44.0585 4.56092 7.5 6.0492 12852.5 7054.72 -12363.1 7971.02 -11299.9 -9106.95 -7.41448 
256 1 44.7785 5.78486 7.5 6.0492 6155.31 5766.49 13574 -8700.1 28460.9 -15499.8 -7.41584 
257 1 46.1985 5.77331 7.5 6.0492 13845.4 6386.32 -13034.9 7374.88 -8900.94 -14366.9 -7.41444 
258 1 46.8985 4.53782 7.5 6.0492 7348.12 4941.91 12070.3 -7933.39 28809.2 -19192.7 -7.41576 
392 1 38.3987 7.06653 7.5 6.0492 4729.8 7143.4 12906.4 -10299.4 21941.2 -6784.77 -7.41583 
393 1 39.8187 7.05499 7.5 6.0492 13602.7 7787.73 -18377 8672.38 -8478.25 -1143.06 -7.41418 
394 1 40.5387 8.27893 7.5 6.0492 4062.97 6914.22 17195.4 -9941.2 25399.8 -10587 -7.41605 
395 1 41.9586 8.26738 7.5 6.0492 14491.2 7787.15 -19852.1 8062.52 -6358.94 -5325.63 -7.4141 
396 1 42.6586 7.03189 7.5 6.0492 5064.42 6420.85 15355 -9386.13 27293.3 -12551.1 -7.41594 
397 1 44.0785 7.02035 7.5 6.0492 14183.4 7238.8 -16808.3 7736.93 -7383.82 -9546.83 -7.41425 
398 1 44.7985 8.24429 7.5 6.0492 4424.7 5592.65 20656 -8793.3 31140.3 -18311.3 -7.41622 
399 1 46.2185 8.23274 7.5 6.0492 15013.2 6541.13 -17030.9 7251.5 -4640.91 -15043.5 -7.41424 
400 1 46.9185 6.99725 7.5 6.0492 5543.02 4717.61 19306.7 -8050.25 32331.7 -21544.5 -7.41614 
24 1 48.9984 0.831357 7.5 6.04918 10369 4077.34 4356.28 -7036.71 23273 -21917.8 -7.41535 
25 1 50.4183 0.81981 7.5 6.04918 11530.5 3596.34 2186.36 6640.67 -19108.2 -24968.9 -7.41524 
26 1 53.2582 0.796717 7.5 6.04918 11082.1 1403.17 10693.1 -5692.57 25083.4 -31124.2 -7.41568 
27 1 54.6782 0.78517 7.5 6.04918 12192.1 739.856 9337.5 5453.4 -20223.3 -32594.6 -7.41561 
117 1 48.2984 2.06685 7.5 6.04918 12020.2 5053.79 -3432.64 7101.19 -16012.5 -19673.8 -7.41494 
118 1 49.0184 3.29079 7.5 6.0492 8589.25 3936.29 11021.2 -7137.28 28317.3 -23294.5 -7.4157 
119 1 50.4383 3.27924 7.5 6.0492 13098.3 3910.25 -3239.6 6496.34 -13606.3 -24458.5 -7.41495 
120 1 51.1383 2.04375 7.5 6.04918 9869.45 2774.52 10545.9 -6359.96 27036.7 -27409.8 -7.41567 
121 1 52.5583 2.03221 7.5 6.04918 12684.3 2405.21 2734.8 5971.01 -16729.3 -28960 -7.41527 
122 1 53.2782 3.25615 7.5 6.0492 9293.13 1277.4 17464.9 -5682.33 30807.1 -32104.5 -7.41604 
123 1 54.6982 3.2446 7.5 6.0492 13668.3 1039.28 3964.46 5460.97 -14062.3 -32013.7 -7.41534 
124 1 55.3982 2.00911 7.5 6.04918 10567.8 -38.2501 17828.1 -4977.16 28829.2 -34724.9 -7.41606 
259 1 48.3184 4.52628 7.5 6.0492 13489.7 5254.26 -8509.77 6964 -10975.2 -19463 -7.41468 
260 1 49.0384 5.75022 7.5 6.0492 6739.42 3690 18246.5 -7254.35 32656.9 -25151.1 -7.41608 
261 1 50.4583 5.73867 7.5 6.0492 14401.2 4082.97 -7872.99 6475.81 -8233.94 -24406.9 -7.41471 
262 1 51.1583 4.50318 7.5 6.0492 8011.77 2536.52 17607.7 -6452.03 32124.7 -28793.4 -7.41605 
263 1 52.5783 4.49164 7.5 6.0492 14056.2 2596.33 -2255.42 5997.97 -10903.5 -28602 -7.41501 
264 1 53.2982 5.71558 7.5 6.0492 7392.84 1052.52 24937.7 -5713.74 35722.4 -33360.4 -7.41643 
265 1 54.7182 5.70403 7.5 6.0492 14826.7 1209.07 -594.396 5612 -8142.6 -31676.3 -7.4151 
266 1 55.4182 4.46854 7.5 6.0492 8695.72 -229.833 25012.8 -4968.79 34369.3 -35581.7 -7.41644 
401 1 48.3384 6.98571 7.5 6.0492 14723.9 5415.37 -12812.8 6892.5 -6137.06 -19770.6 -7.41445 
402 1 49.0584 8.20965 7.5 6.0492 4912.17 3444.56 25892.7 -7305.99 36059.8 -27424.4 -7.41649 
403 1 50.4783 8.1981 7.5 6.0492 15422 4213.36 -11722 6548.19 -3258.61 -24732.8 -7.41452 
404 1 51.1783 6.96261 7.5 6.0492 6127.13 2292.71 25243.2 -6503.71 36314.7 -30534 -7.41645 
405 1 52.5983 6.95107 7.5 6.0492 15141.4 2748.26 -6447.11 6113.8 -5419.04 -28560.7 -7.41479 
406 1 53.3182 8.17501 7.5 6.0492 5484.64 836.103 32988.2 -5703.32 39534.8 -34832.8 -7.41686 
407 1 54.7382 8.16346 7.5 6.0492 15657.2 1352.17 -4402 5870.75 -2794.39 -31501.9 -7.41491 
408 1 55.4382 6.92797 7.5 6.0492 6758.15 -412.211 32901.3 -4945.57 38882.3 -36579.6 -7.41686 
28 1 57.5181 0.762077 7.5 6.04918 11725.9 -1451.23 18641.3 -4405.14 26354 -36338.9 -7.41611 
29 1 58.9381 0.75053 7.5 6.04918 12743.5 -2130.74 17761.2 4318.25 -21301.8 -35347.2 -7.41607 
30 1 61.778 0.727437 7.5 6.04918 12246.4 -4009.69 27046.8 -3215.27 27131.2 -35984.2 -7.41656 
31 1 63.1979 0.715891 7.5 6.04918 13152.2 -4578.42 26192.3 3236.82 -22321.4 -32311.6 -7.41652 
32 1 66.0378 0.692797 7.5 6.04918 12620.3 -5969.98 34570.7 -2122.88 27504.4 -29875.5 -7.41696 
125 1 56.8181 1.99757 7.5 6.04918 13249.9 -534.222 10680.5 4876.41 -17581.5 -34339.9 -7.41569 
126 1 57.5381 3.22151 7.5 6.0492 9964.76 -1519.21 25447.7 -4290.33 32382.5 -36903.9 -7.41646 
127 1 58.9581 3.20996 7.5 6.0492 14098.8 -1846.22 12404.7 4444.27 -14859.8 -34697.7 -7.41579 
128 1 59.658 1.97447 7.5 6.04918 11182.5 -2764.85 26166.7 -3689.38 29915.4 -37090 -7.41651 
129 1 61.078 1.96293 7.5 6.04918 13673.8 -3246.4 19276.5 3812.59 -18574 -34222.9 -7.41615 
130 1 61.798 3.18687 7.5 6.0492 10540.2 -4006.74 33848 -3034.01 33147.5 -36182.8 -7.41691 
131 1 63.2179 3.17532 7.5 6.0492 14377.8 -4299.13 20803.8 3414.06 -15913.9 -31647.3 -7.41624 
132 1 63.9179 1.93983 7.5 6.04918 11667.7 -5018.79 34287.9 -2529.33 30420.2 -33653.9 -7.41694 
133 1 65.3378 1.92829 7.5 6.04918 13952.1 -5384.16 27185.6 2759.8 -19607.6 -28391.6 -7.41658 
134 1 66.0578 3.15223 7.5 6.0492 10979.5 -5903.02 41349.8 -1930.39 33331.6 -29797.8 -7.41732 
267 1 56.8381 4.457 7.5 6.0492 14486.3 -347.842 5732.25 5050.54 -11332.8 -33797.9 -7.41544 
268 1 57.5581 5.68094 7.5 6.0492 8045.08 -1666.22 33051 -4240.34 37516.3 -37526.6 -7.41686 
269 1 58.9781 5.66939 7.5 6.0492 15086.1 -1657.64 7830.82 4720.2 -8762.37 -34098.1 -7.41556 
270 1 59.678 4.4339 7.5 6.0492 9329.4 -2874.8 33395.2 -3602.15 35559.1 -37447.8 -7.41689 
271 1 61.098 4.42236 7.5 6.0492 14757.9 -3051.57 14300.4 4075.48 -12255.6 -33552.5 -7.4159 
272 1 61.818 5.6463 7.5 6.0492 8630.83 -4052.01 41496.9 -2932.71 38210.2 -36272.8 -7.41732 
273 1 63.2379 5.63475 7.5 6.0492 15193.5 -4074.81 16130.6 3734.29 -9931.88 -30915.6 -7.41601 
274 1 63.9379 4.39926 7.5 6.0492 9855.43 -5043.18 41513 -2406.3 35926.8 -33623.3 -7.41732 
275 1 65.3578 4.38772 7.5 6.0492 14892.1 -5169.97 22126.2 3028.53 -13457.4 -27709.9 -7.41632 
276 1 66.0778 5.61166 7.5 6.0492 9097.59 -5853.53 48993.5 -1822.09 38176.3 -29535.7 -7.41772 
409 1 56.8581 6.91643 7.5 6.0492 15388.1 -175.753 1548.79 5325.08 -5567.27 -33362.3 -7.41522 
410 1 57.5781 8.14037 7.5 6.0492 6083.61 -1783.97 41349.1 -4172.2 41402.8 -38161.6 -7.41731 
411 1 58.9981 8.12882 7.5 6.0492 15706.3 -1461.6 3920.7 5104.84 -3396.82 -33477.9 -7.41536 
412 1 59.698 6.89333 7.5 6.0492 7368.7 -2950.71 41413.1 -3520.5 40073.6 -37755.3 -7.41731 
413 1 61.118 6.88179 7.5 6.0492 15465.1 -2830.55 10009.9 4435.17 -6541.8 -32833.8 -7.41568 
414 1 61.838 8.10573 7.5 6.0492 6643.9 -4040.85 49915.4 -2832.19 41918 -36227.3 -7.41776 
415 1 63.2579 8.09418 7.5 6.0492 15610.2 -3795.57 12003.1 4149.13 -4809.82 -30061.8 -7.4158 
416 1 63.9579 6.85869 7.5 6.0492 7897.43 -5002.96 49572.6 -2301.85 40237.3 -33427.4 -7.41774 
417 1 65.3778 6.84715 7.5 6.0492 15422.9 -4884.6 17654.4 3376.45 -8000.64 -26919.5 -7.4161 
418 1 66.0978 8.07109 7.5 6.0492 7107.46 -5718.56 57446.6 -1725.24 41600.5 -29081.7 -7.41816 
554 1 59.718 9.35276 7.5 6.0492 5400.24 -2984.09 50103.3 -3420.13 43133.7 -37965 -7.41777 
555 1 61.138 9.34122 7.5 6.0492 15794.9 -2582.81 6236.14 4903.01 -1799.42 -31989.6 -7.41549 
558 1 63.9779 9.31812 7.5 6.0492 5903.04 -4892.47 58368.7 -2195.33 42990.7 -33041.3 -7.41821 
559 1 65.3978 9.30658 7.5 6.0492 15556.4 -4521.76 13554.9 3808.68 -3637.69 -25964.1 -7.41589 
33 1 67.4578 0.681251 7.5 6.04918 13418.9 -6358.92 33300 2192.58 -23220.5 -23883.6 -7.4169 
34 1 70.2977 0.658157 7.5 6.04918 12848.6 -7211.49 39990.4 -1104.13 27567.5 -19009.2 -7.41726 
35 1 71.7176 0.646611 7.5 6.04918 13562 -7400.33 37962.6 1167.5 -23927.2 -11467.2 -7.41716 
36 1 74.5575 0.623518 7.5 6.04918 12945.1 -7726.87 42427.1 -127.088 27391.7 -5189.12 -7.41739 
135 1 67.4778 3.14068 7.5 6.0492 14530.2 -6077.75 27847.4 2343.41 -17018.3 -23287 -7.41663 
136 1 68.1777 1.90519 7.5 6.04918 12003.9 -6602.08 40883.4 -1486.8 30519.8 -24873 -7.4173 
137 1 69.5977 1.89365 7.5 6.04918 14109.3 -6798.99 33161.6 1698.85 -20530.2 -17798.3 -7.4169 
138 1 70.3177 3.11759 7.5 6.0492 11264.9 -7100.93 46742.5 -955.023 33193.9 -18754.1 -7.41761 
139 1 71.7376 3.10604 7.5 6.0492 14599.7 -7115 32444.2 1225.17 -17932.7 -11020.3 -7.41688 
140 1 72.4376 1.87055 7.5 6.04918 12190 -7464.87 44881.1 -527.367 30377.5 -12195.7 -7.41751 
141 1 73.8576 1.85901 7.5 6.04918 14177 -7474.7 36276.2 624.09 -21195.9 -4204.61 -7.41707 
142 1 74.5775 3.08295 7.5 6.0492 11392.2 -7596.7 49150.5 -58.9139 32937.1 -4836.11 -7.41774 
277 1 67.4978 5.60011 7.5 6.0492 15201.6 -5810.45 23034.6 2615.49 -11292.4 -22604.8 -7.41638 
278 1 68.1977 4.36462 7.5 6.0492 10237.8 -6556.42 48082.9 -1379.52 35808.5 -24601.6 -7.41767 
279 1 69.6177 4.35308 7.5 6.0492 14939.5 -6563.19 28002.9 1892.22 -14619.7 -17239.6 -7.41664 
280 1 70.3377 5.57702 7.5 6.0492 9412.05 -6981.65 54358 -883.687 37836.4 -18334.6 -7.41801 
281 1 71.7576 5.56547 7.5 6.0492 15179 -6813.8 27510 1371.78 -12432.1 -10556.5 -7.41663 
282 1 72.4576 4.32998 7.5 6.0492 10459 -7377.01 52048.7 -478.801 35520.6 -11818.7 -7.41789 
283 1 73.8776 4.31844 7.5 6.0492 14954.4 -7225.53 31045.2 684.294 -15438.6 -3875.14 -7.41681 
284 1 74.5975 5.54238 7.5 6.0492 9556.74 -7446.87 56733.8 -53.2954 37519.2 -4406.66 -7.41813 
419 1 67.5178 8.05954 7.5 6.0492 15452.3 -5443 18651.8 2955 -6512.01 -21801.3 -7.41616 
420 1 68.2177 6.82405 7.5 6.0492 8295.65 -6418.82 56134.3 -1292.98 39870.6 -24146.6 -7.4181 
421 1 69.6377 6.81251 7.5 6.0492 15340.1 -6217.64 23346.7 2133.81 -9452.27 -16610 -7.41641 
422 1 70.3577 8.03645 7.5 6.0492 7428.47 -6757.58 62800.1 -823.632 41033.3 -17760.6 -7.41845 
423 1 71.7776 8.0249 7.5 6.0492 15326.3 -6382.66 22925.7 1549.15 -7917.18 -10060.3 -7.4164 
424 1 72.4776 6.78941 7.5 6.0492 8531.99 -7180.36 60071.7 -443.165 39438.3 -11324.2 -7.41831 
425 1 73.8976 6.77787 7.5 6.0492 15292.2 -6847.53 26271.6 755.281 -10434.7 -3581.86 -7.41657 
426 1 74.6175 8.00181 7.5 6.0492 7578.61 -7182.15 65148.9 -52.4394 40665.8 -3925.11 -7.41858 
562 1 68.2377 9.28348 7.5 6.0492 6293.86 -6188.4 64956.4 -1212.01 42319.2 -23505.6 -7.41856 
563 1 69.6577 9.27194 7.5 6.0492 15331.5 -5755.69 18945 2426.52 -5451.87 -15876.3 -7.41619 
566 1 72.4976 9.24884 7.5 6.0492 6530.61 -6877.36 68880.6 -412.812 41729 -10729.5 -7.41877 
567 1 73.9176 9.2373 7.5 6.0492 15216.7 -6331.96 21692.1 836.763 -6621.67 -3314.38 -7.41634 
37 1 75.9775 0.611971 7.5 6.04918 13602 -7715.26 39456.4 148.084 -24383.3 2906.38 -7.41724 
38 1 78.8174 0.588878 7.5 6.04918 12918.7 -7533.11 41481.7 838.472 27015.1 9355.84 -7.41734 
39 1 80.2374 0.577331 7.5 6.04918 13544 -7315.87 37559.5 -875.648 -24556 16930.8 -7.41713 
40 1 83.0773 0.554238 7.5 6.04918 12767.9 -6620.71 37290.1 1821.36 26446.6 22305.8 -7.41711 
41 1 84.4972 0.542691 7.5 6.04918 13375.5 -6186.16 32581.3 -1916.79 -24433.8 28339.4 -7.41687 
143 1 75.9975 3.0714 7.5 6.0492 14622 -7427.83 33897.5 76.4338 -18466.4 3146.77 -7.41695 
144 1 76.6975 1.83591 7.5 6.04918 12232.6 -7621.77 45629.7 392.986 30097 2326.82 -7.41755 
145 1 78.1174 1.82437 7.5 6.04918 14174.9 -7432.83 36057 -458.061 -21510.1 10190.6 -7.41706 
146 1 78.8374 3.04831 7.5 6.0492 11362.3 -7409.2 48176.6 817.699 32652.1 9765.93 -7.41768 
147 1 80.2574 3.03676 7.5 6.0492 14607.3 -7031.69 31995.3 -1071.34 -18534.8 16947.3 -7.41685 
148 1 80.9573 1.80127 7.5 6.04918 12133.1 -7079.56 42996 1320.76 29704 16396 -7.41741 
149 1 82.3773 1.78973 7.5 6.04918 14097.3 -6670.2 32548.1 -1537.92 -21449.8 23075.4 -7.41687 
150 1 83.0973 3.01367 7.5 6.0492 11174.2 -6527.64 43959.2 1734.71 32305 22777.1 -7.41746 
151 1 84.5172 3.00212 7.5 6.0492 14533.4 -5904.55 27036 -2191.81 -18173 28153.6 -7.41658 
285 1 76.0175 5.53083 7.5 6.0492 15179.6 -7117.34 28907.3 56.915 -13029.3 3290.45 -7.4167 
286 1 76.7175 4.29534 7.5 6.0492 10512.3 -7525.69 52767.1 362.488 35259.9 2725.08 -7.41793 
287 1 78.1374 4.2838 7.5 6.0492 14966.5 -7186.09 30806.6 -547.494 -15725.2 10244.2 -7.4168 
288 1 78.8574 5.50774 7.5 6.0492 9524.52 -7269.96 55732.5 751.64 37362.6 10146.7 -7.41808 
289 1 80.2773 5.49619 7.5 6.0492 15217.4 -6737.83 27030.1 -1250.27 -12951.9 16766 -7.4166 
290 1 80.9773 4.2607 7.5 6.0492 10396.6 -7008.32 50108.4 1217.99 35054.5 16802.2 -7.41778 
291 1 82.3973 4.24916 7.5 6.0492 14968.5 -6439.15 27329.3 -1748.61 -15456.2 22876.6 -7.41661 
292 1 83.1173 5.4731 7.5 6.0492 9316.96 -6436.66 51493.1 1615.49 37284.8 23151.2 -7.41785 
293 1 84.5372 5.46155 7.5 6.0492 15261.3 -5644.85 22155.2 -2478.14 -12287.5 27735.4 -7.41633 
427 1 76.0375 7.99026 7.5 6.0492 15302.1 -6667.7 24245.4 27.16 -8573.96 3333.19 -7.41647 
428 1 76.7375 6.75477 7.5 6.0492 8590.58 -7317.5 60760.4 331.265 39224.9 3131.15 -7.41834 
429 1 78.1574 6.74323 7.5 6.0492 15321.3 -6813.91 26023.1 -665.741 -10666.9 10138.1 -7.41656 
430 1 78.8774 7.96717 7.5 6.0492 7545.9 -7018.73 64119.8 688.931 40677 10461.6 -7.41852 
431 1 80.2973 7.95562 7.5 6.0492 15399.2 -6319.65 22436.4 -1479.63 -8306.95 16363.7 -7.41637 
432 1 80.9973 6.72013 7.5 6.0492 8467.21 -6835.08 58076.5 1126.08 39255.4 17117.9 -7.4182 
433 1 82.4173 6.70859 7.5 6.0492 15416.7 -6106.13 22638.7 -2023.68 -10130.9 22436.3 -7.41637 
434 1 83.1373 7.93253 7.5 6.0492 7332.13 -6251.22 59850.6 1505.46 40932.9 23380.4 -7.41829 
435 1 84.5572 7.92098 7.5 6.0492 15576.1 -5296.74 17741.6 -2847.36 -7261.43 27044.4 -7.41611 
570 1 76.7575 9.21421 7.5 6.0492 6589.74 -6998.83 69543.1 298.947 41585.9 3511.14 -7.41881 
571 1 78.1774 9.20266 7.5 6.0492 15263.7 -6306.64 21446.4 -815.494 -6777.73 9859.88 -7.41633 
574 1 81.0173 9.17957 7.5 6.0492 6465.53 -6562.26 66828.1 1037.13 41906.9 17294.4 -7.41866 
575 1 82.4373 9.16802 7.5 6.0492 15460.3 -5666.93 18237.6 -2367.68 -5911.21 21720.4 -7.41615 
42 1 87.3371 0.519598 7.5 6.04918 12481.3 -4974.08 30504 2848.23 25678.8 31563.1 -7.41675 
43 1 88.7571 0.508051 7.5 6.04918 13074.4 -4323.92 25323 -2995.45 -24013.4 35232.6 -7.41647 
44 1 91.597 0.484958 7.5 6.04918 12048.6 -2643.29 22196.3 3942.92 24699.9 35596.7 -7.4163 
45 1 93.0169 0.473411 7.5 6.04918 12624.4 -1826.2 16960.6 -4135.65 -23286.7 36453.7 -7.41602 
152 1 85.2172 1.76663 7.5 6.04918 11887.5 -5817.05 37383.3 2298.47 29154.1 27777.8 -7.41711 
153 1 86.6371 1.75509 7.5 6.04918 13917.5 -5165.62 26306.5 -2615.3 -21055 32334 -7.41653 
154 1 87.3571 2.97903 7.5 6.0492 10828.3 -4929.42 37152.9 2743.47 31763 32137.5 -7.41709 
155 1 88.7771 2.96748 7.5 6.0492 14357.6 -4035.35 19795.7 -3278.97 -17508.3 34891.1 -7.41619 
156 1 89.477 1.73199 7.5 6.04918 11492 -3837.42 29673.4 3362 28360.6 34622.8 -7.41669 
157 1 90.897 1.72045 7.5 6.04918 13603.3 -2951.86 18330.7 -3706.2 -20399.3 36393.6 -7.4161 
158 1 91.617 2.94439 7.5 6.0492 10333.1 -2659.76 28829.3 3879.55 30848.5 36336 -7.41664 
159 1 93.0369 2.93284 7.5 6.0492 14039.1 -1519.89 11426.3 -4350.61 -16703.5 36006.3 -7.41574 
160 1 93.7369 1.69735 7.5 6.04918 10953 -1257.3 21087.4 4532.98 27230.2 35830.2 -7.41623 
294 1 85.2372 4.22606 7.5 6.0492 10113.8 -5798.9 44475.5 2156.96 34770.2 28247.5 -7.41748 
295 1 86.6571 4.21452 7.5 6.0492 14917.7 -4951.41 21142.3 -2882.73 -14767.2 31962.2 -7.41627 
296 1 87.3771 5.43846 7.5 6.0492 8942.88 -4918.4 44662.3 2611.02 37024.7 32627.8 -7.41749 
297 1 88.7971 5.42691 7.5 6.0492 15246.7 -3812.13 15010.2 -3589.15 -11300.3 34382 -7.41594 
298 1 89.497 4.19142 7.5 6.0492 9673.34 -3892.58 36744.3 3232.25 34167.2 35257.1 -7.41706 
299 1 90.917 4.17988 7.5 6.0492 14756.1 -2746.8 13204.3 -3945.79 -13892.4 35951.6 -7.41584 
300 1 91.637 5.40382 7.5 6.0492 8425.28 -2742.85 36293.8 3781.38 36237.9 37101 -7.41704 
301 1 93.0569 5.39227 7.5 6.0492 15104.5 -1319.46 6693.49 -4592.88 -10330.5 35555.4 -7.41549 
302 1 93.7569 4.15678 7.5 6.0492 9100.15 -1390.66 28120.9 4466.28 32987.4 36737.7 -7.4166 
436 1 85.2572 6.68549 7.5 6.0492 8169.64 -5702.85 52416.3 2031.66 39302.1 28591 -7.4179 
437 1 86.6771 6.67395 7.5 6.0492 15520.2 -4677.44 16600 -3238.85 -9063.53 31354.8 -7.41604 
438 1 87.3971 7.89789 7.5 6.0492 6955.09 -4838.46 52970.9 2484.67 41042.5 32975.8 -7.41793 
439 1 88.8171 7.88634 7.5 6.0492 15748.2 -3547.04 10813 -4003.26 -5843.43 33650.4 -7.41573 
440 1 89.517 6.65085 7.5 6.0492 7718.02 -3900.78 44636.9 3114.13 38970.4 35822.5 -7.41748 
441 1 90.937 6.63931 7.5 6.0492 15548.1 -2526.91 8796.24 -4285.67 -7865.84 35385.4 -7.41562 
442 1 91.657 7.86325 7.5 6.0492 6448.12 -2786.01 44504.4 3677 40492.5 37823.9 -7.41747 