ITEM: TIMESTEP
167
ITEM: NUMBER OF ATOMS
12152
ITEM: BOX BOUNDS pp pp pp
0.0000000000000000e+00 9.5721004899999997e+01
0.0000000000000000e+00 1.6579364400000000e+02
0.0000000000000000e+00 1.5000000000000000e+01
ITEM: ATOMS id type x y z c_csym c_2[1] c_2[2] c_2[3] c_2[4] c_2[5] c_2[6] c_3 
152 1 0.883762 8.57891 2.88695 6.01772 -167078 -147283 -3191.25 -17622.1 12461.6 -3119.28 -7.41381 
153 1 0.150813 7.36537 2.8837 6.02409 -152934 -161416 2943.04 -12276.8 14305.7 -1386.2 -7.41399 
154 1 0.834841 6.12345 2.88105 6.02251 -163595 -150431 -743.504 -8623.94 8559.57 -2602.64 -7.41372 
155 1 0.101232 4.91026 2.87882 6.02658 -153988 -160021 1344.13 -5111.44 8401.87 -928.267 -7.41374 
156 1 0.784807 3.66812 2.87724 6.02597 -160646 -153210 408.23 -3146.43 4907.07 -1961.73 -7.41364 
157 1 0.0508104 2.45513 2.87601 6.02861 -155375 -158425 797.08 -1231.35 3713.43 -475.817 -7.41361 
158 1 0.734163 1.21289 2.8754 6.02888 -158036 -155690 729.401 -681.25 1551.52 -1297.36 -7.41358 
159 1 3.83188e-06 -1.11943e-05 2.87509 6.03014 -156918 -156818 739.047 -54.6442 0.0040341 -0.962968 -7.41357 
288 1 2.30128 8.54968 2.88766 6.01962 -161259 -153568 3391.21 -14551.1 17290.9 -4107.33 -7.41417 
289 1 2.98536 7.30772 2.88499 6.0199 -172451 -141883 -645.563 -12206.8 10557.2 -7651.58 -7.41386 
290 1 2.25234 6.09418 2.88172 6.02295 -159210 -155122 1354.46 -5591.94 10801.9 -3749.53 -7.41385 
291 1 2.93594 4.85202 2.8801 6.0236 -166534 -147601 673.338 -5105.06 6745.31 -6394.55 -7.41375 
292 1 2.20229 3.63883 2.87787 6.02572 -157887 -156099 612.366 -292.852 5439.82 -3396.74 -7.41367 
293 1 2.88566 2.39657 2.87725 6.02698 -161399 -152502 950.412 -1338.29 3178.16 -5151.57 -7.41366 
294 1 2.15164 1.18358 2.87601 6.02755 -157099 -156690 615.938 2090.73 1229.49 -3121.17 -7.4136 
423 1 5.135 8.49283 2.89097 6.01691 -184316 -130314 853.016 -14559.2 12946.1 -13477.1 -7.41415 
424 1 4.40283 7.27878 2.88666 6.01697 -167346 -147223 224.298 -4871.07 13521.8 -6622.53 -7.41398 
425 1 5.08648 6.03658 2.88502 6.02094 -175395 -138927 2036.69 -5658.42 9175.73 -11756.5 -7.41399 
426 1 4.35341 4.82303 2.88171 6.02136 -163006 -151208 -444.004 2164.95 7483.5 -6462.3 -7.41376 
427 1 5.03681 3.58075 2.88108 6.02459 -167497 -146944 1955.63 -397.363 5412.03 -9972.53 -7.41385 
428 1 4.30313 2.36754 2.87881 6.02436 -159596 -154478 -100.935 5752.13 2563.74 -6358.39 -7.41367 
429 1 4.98649 1.12529 2.87914 6.02541 -160181 -154056 1110.21 1804.81 1745.36 -8362.04 -7.41374 
558 1 6.55243 8.46451 2.8936 6.00936 -178719 -136369 -2475.96 -2687.48 16315.9 -9359.51 -7.4141 
559 1 7.23614 7.22227 2.89201 6.0169 -187592 -127395 4991.28 -4484.52 11938.6 -17883.5 -7.41439 
560 1 6.50392 6.00818 2.88763 6.01531 -171251 -143255 -2831.42 6207.4 9803.68 -9631.97 -7.41386 
561 1 7.18735 4.76588 2.88701 6.02187 -176545 -138227 4286.52 2415.1 8190.21 -15776.3 -7.41418 
562 1 6.45426 3.55227 2.88366 6.01984 -164932 -149330 -1896.11 11293.7 4163.76 -9837.17 -7.41376 
563 1 7.13765 2.31001 2.88402 6.02273 -166378 -148291 2569.07 5859.95 4364.92 -13709.1 -7.41399 
564 1 6.40395 1.09675 2.88171 6.02204 -159289 -154943 -239.609 13321.5 -517.281 -10166.4 -7.41377 
693 1 9.38462 8.40957 2.90082 6.00981 -202717 -112636 9867.03 -1508.27 14647.5 -24225.9 -7.41497 
694 1 8.65353 7.19476 2.89552 6.00774 -182891 -132118 -6928.23 11994.2 12112.7 -12547.2 -7.41394 
695 1 9.33702 5.95243 2.89496 6.01643 -188808 -126570 8375.08 7283.17 11236.2 -22128.6 -7.41468 
696 1 8.60476 4.73826 2.89057 6.01464 -173335 -141303 -5200.93 18867.5 5942.88 -13296.7 -7.41384 
697 1 9.2882 3.49599 2.89097 6.01986 -175622 -139628 5569.04 12231.1 7466.64 -19853.8 -7.4144 
698 1 8.55509 2.28231 2.88761 6.0183 -164760 -149734 -2442.08 22231.9 572.207 -14013.5 -7.41387 
699 1 9.23868 1.04021 2.88898 6.01634 -162937 -152027 2016.21 14063.9 3487.23 -17652.5 -7.41415 
6096 2 0.533698 8.60737 6.51299 6.02182 -149789 -164945 4286.19 17756.9 17757.8 795.489 -7.41418 
6097 2 0.582633 6.15238 6.51892 6.0246 -151551 -162646 1956.07 8723.49 11341.5 299.311 -7.41385 
6098 2 0.632676 3.69735 6.52276 6.02696 -153541 -160317 950.726 3252.15 6050.07 -177.101 -7.41366 
6099 2 0.68333 1.24225 6.5246 6.02886 -155772 -157911 729.492 710.128 1899.62 -695.334 -7.41359 
6100 2 8.31277e-06 -1.30018e-06 6.52491 6.03016 -156886 -156816 739.084 94.5094 0.166417 -0.942634 -7.41357 
6228 2 1.95128 8.63665 6.51237 6.01527 -155546 -158999 -2830.56 15171.9 13243.5 -3675.29 -7.41386 
6229 2 2.68461 7.42332 6.51498 6.02087 -143262 -171333 2035.68 12846.9 14768.9 -2067.49 -7.41399 
6230 2 2.00017 6.18169 6.51829 6.02143 -155929 -158307 -443.01 6113.2 9337.83 -3251.66 -7.41376 
6231 2 2.73402 4.96862 6.5199 6.02361 -147897 -166198 672.777 5641.27 8909.1 -2644.47 -7.41375 
6232 2 2.05018 3.72666 6.52213 6.02569 -156254 -157625 612.657 628.878 5660.41 -3014.1 -7.41367 
6233 2 2.7843 2.51373 6.52276 6.0259 -152402 -161448 407.86 1598.08 4152.04 -3270.37 -7.41364 
6234 2 2.10082 1.27158 6.52399 6.02856 -156737 -157156 796.988 -1947.85 2268.34 -2978.34 -7.41361 
6235 2 2.83498 0.0586646 6.52369 6.02746 -156833 -156966 686.07 290.706 293.4 -4087.31 -7.41362 
6363 2 4.78752 8.69346 6.50903 6.01691 -131197 -183481 852.2 16070.5 18143.9 -4473.87 -7.41414 
6364 2 4.10221 7.45236 6.51335 6.01697 -148147 -166562 224.593 6201.71 12496.8 -8399.81 -7.41398 
6365 2 4.836 6.23926 6.51501 6.01989 -139030 -175426 -646.216 7035.5 11904.2 -5317.13 -7.41386 
6366 2 4.15156 4.99768 6.51828 6.02304 -151331 -163028 1354.33 -1136.14 8648.05 -7480.86 -7.41385 
6367 2 4.88566 3.78472 6.51894 6.0226 -146371 -167685 -744.192 1359.64 6533.89 -6112.41 -7.41372 
6368 2 4.2018 2.5428 6.52118 6.02662 -154150 -159907 1343.56 -5185.28 5004.56 -6812.63 -7.41374 
6369 2 4.93597 1.32986 6.52087 6.02397 -153373 -160618 27.7272 -1409.21 2088.87 -7076.45 -7.41369 
6370 2 4.25246 0.0877256 6.52213 6.02561 -156788 -157056 683.009 -6628.62 1427.72 -6445.51 -7.41367 
6498 2 6.2052 8.72199 6.5064 6.01212 -136486 -178908 2428.55 5055.38 15977.6 -14310.2 -7.41435 
6499 2 6.93894 7.50884 6.50811 6.01592 -126552 -188301 -3454.93 7152.94 14745.3 -8057.05 -7.41396 
6500 2 6.25361 6.26781 6.51234 6.01963 -142943 -171959 3391.12 -4071.01 12203 -12920.2 -7.41417 
6501 2 6.98768 5.05482 6.51305 6.01771 -137123 -177349 -3190.75 -315.051 8932.81 -9232.58 -7.41381 
6502 2 6.3032 3.81329 6.5163 6.02405 -148810 -165725 2942.51 -9823.43 8352.97 -11696 -7.41399 
6503 2 7.03736 2.60032 6.51601 6.01921 -147058 -167171 -1728.66 -4652.16 3903.03 -10442.2 -7.41378 
6504 2 6.35346 1.35844 6.51827 6.02311 -154194 -160088 1558.85 -12702 4543.4 -10766.1 -7.41385 
6505 2 7.0875 0.145373 6.51698 6.02058 -156742 -157680 378.389 -6414.01 -426.402 -11902.7 -7.41385 
6633 2 9.04314 8.77688 6.49948 6.01145 -110532 -204812 -8101.96 5676 17058 -10481 -7.41402 
6634 2 8.35663 7.53659 6.50444 6.01609 -130887 -184666 7172.08 -8444.06 15979.8 -18925.1 -7.41466 
6635 2 9.09067 6.32354 6.50519 6.01217 -124208 -190572 -7321.13 -3645.34 11068.8 -12278.2 -7.41388 
6636 2 8.40529 5.08258 6.50933 6.02036 -140104 -175100 6095.05 -16116.4 12184.9 -17378.3 -7.41441 
6637 2 9.13945 3.86956 6.50908 6.01255 -137560 -177201 -5010.94 -9807.82 5605.39 -13940.1 -7.41387 
6638 2 8.4549 2.6281 6.51232 6.02006 -148589 -166322 3780.57 -20715.9 8212.58 -15997.1 -7.41417 
6639 2 9.18894 1.41498 6.51103 6.01388 -150447 -164447 -1706.26 -13131.7 797.599 -15681.3 -7.41397 
6640 2 8.50498 0.173144 6.51334 6.01921 -156687 -157918 748.218 -22695.1 4050.02 -14877.9 -7.41399 
828 1 10.802 8.38324 2.90496 5.99938 -197417 -117596 -12958.3 19420.7 14017.3 -14752.4 -7.41394 
829 1 11.4855 7.14089 2.9045 6.00951 -203590 -111746 14439 14212.2 14178.1 -28297.7 -7.41537 
830 1 10.7544 5.92598 2.89929 6.00743 -185014 -129929 -10332 28451.7 7623.36 -16252.8 -7.41388 
831 1 11.4379 4.68371 2.89974 6.01587 -187818 -127868 10465.7 21078 10769.6 -26138.2 -7.41499 
832 1 10.7056 3.46944 2.89545 6.01348 -173309 -141591 -6325.39 33525 1739.44 -17547.8 -7.41395 
833 1 11.3893 2.22736 2.89684 6.01193 -172244 -143551 5399.11 24206.4 6953.66 -23800.6 -7.41463 
834 1 10.6561 1.01359 2.89357 6.01537 -162198 -152910 -1554.15 35257.6 -3458.07 -18806.2 -7.41411 
963 1 13.6327 8.3317 2.91492 6.00179 -219557 -95011.5 22402.2 22779.9 16683.9 -33527.1 -7.41622 
964 1 12.9028 7.11589 2.90922 5.99978 -199089 -115802 -17401.4 39489 8891.65 -18263 -7.41383 
965 1 13.5865 5.87365 2.9097 6.00924 -201988 -113445 17351.6 31920.6 13927.9 -31762.6 -7.41576 
966 1 12.8552 4.65863 2.90476 6.00812 -184860 -130440 -12138.1 46906 2763.81 -20252.5 -7.41396 
967 1 13.539 3.41658 2.90613 6.00759 -184076 -131920 10788.2 37071.1 10541.4 -29583.2 -7.41528 
968 1 12.8067 2.2022 2.90211 6.01163 -170801 -144710 -5714.75 50338.7 -2854.44 -22034 -7.4142 
969 1 13.4908 0.96046 2.90438 6.00265 -166095 -150122 3365.27 38597.6 6688.9 -27161.2 -7.41482 
1098 1 15.0499 8.30835 2.91958 5.99249 -214311 -100215 -26222.9 51214.4 9546.26 -19117.2 -7.41369 
1099 1 15.7337 7.06618 2.92005 6.00206 -216898 -97689.8 26001 44014.3 16651.5 -36063.5 -7.41667 
1100 1 15.0037 5.85028 2.9148 6.00194 -198298 -117091 -19869.5 61281.9 3442.59 -21778.4 -7.41387 
1101 1 15.6877 4.60831 2.9161 6.00281 -197623 -118054 18148.9 51600.1 13931.8 -34271.1 -7.41609 
1102 1 14.9563 3.39318 2.91164 6.00837 -181856 -133691 -11902.2 67054.3 -2380.81 -24120.7 -7.41419 
1103 1 15.6406 2.15152 2.91378 5.99747 -177672 -138511 8971.49 54970.4 10594.5 -32019.2 -7.41549 
1104 1 14.9082 0.937024 2.91021 6.00569 -165441 -150345 -3019.58 68802.4 -7672.3 -26228.4 -7.41461 
1233 1 17.8796 8.2615 2.93002 5.995 -231134 -81438.5 35914.9 56285.2 18757 -38691.4 -7.41766 
1234 1 17.151 7.04465 2.92477 5.99572 -212303 -102397 -29193.6 75541 3683.5 -22054.3 -7.41369 
1235 1 17.8351 5.80281 2.92593 5.99719 -211571 -103055 27136.3 66504.5 16870.5 -37394.7 -7.41701 
1236 1 17.1049 4.58683 2.92134 6.00461 -194645 -120994 -19980.1 84046.8 -2138.77 -24874.5 -7.41408 
1237 1 17.7894 3.34528 2.92329 5.99323 -190702 -125138 16532 72323.8 14220.5 -35500.6 -7.4163 
1238 1 17.058 2.13005 2.91949 6.00136 -176312 -139508 -9353.83 88016.1 -7565.83 -27377.7 -7.41458 
1239 1 17.743 0.888914 2.92218 5.98718 -169018 -147341 4834.62 73872 10939.1 -33102.4 -7.41558 
6768 2 10.4609 8.80351 6.49503 6.01184 -115175 -200595 12935.6 -14023.8 19470.7 -24838.1 -7.41534 
6769 2 11.1949 7.5904 6.4958 6.00525 -108155 -206892 -13370.1 -8597.54 12646.7 -14752.3 -7.41388 
6770 2 10.5084 6.35018 6.50053 6.01439 -127650 -187920 11146.1 -23827.6 16117.4 -23265.2 -7.41501 
6771 2 11.2425 5.1371 6.50033 6.00479 -124685 -190352 -10131.4 -16731 6968.97 -17050.5 -7.41391 
6772 2 10.557 3.89622 6.50435 6.01438 -139701 -175708 7776.53 -30476.7 12257 -21663.4 -7.41467 
6773 2 11.2911 2.68304 6.50314 6.00585 -141004 -174350 -5525.27 -21972.4 1806.83 -19241.6 -7.41406 
6774 2 10.6065 1.44164 6.50635 6.01523 -151146 -164027 3351.39 -34335.1 8060.74 -20160 -7.41437 
6775 2 11.3402 0.228225 6.50411 6.00821 -156696 -158736 -141.057 -24580.4 -2795.56 -21474 -7.41431 
6903 2 13.3006 8.855 6.4856 5.99798 -90162.2 -224991 -21308.9 -14775.6 13493.2 -16262.5 -7.41379 
6904 2 12.6127 7.61564 6.49047 6.0073 -112203 -203215 18174.2 -32514.1 19645.3 -28649.6 -7.41578 
6905 2 13.3468 6.40246 6.49036 5.99665 -109301 -205784 -17194.4 -25112.2 7811.49 -19255.1 -7.41387 
6906 2 12.6602 5.16232 6.49481 6.00696 -127439 -187777 13761.1 -41563.9 16271 -27078.7 -7.41535 
6907 2 13.3942 3.94904 6.49375 5.99709 -128600 -186770 -11304.3 -32593.6 2454.07 -22008 -7.41408 
6908 2 12.7087 2.70825 6.49759 6.00807 -142417 -172979 7901.99 -47570.6 12314.8 -25411.6 -7.41492 
6909 2 13.4424 1.49474 6.49555 5.99911 -147607 -168202 -4229.96 -37120.9 -2381.13 -24623.9 -7.41441 
6910 2 12.7576 0.253409 6.49866 6.01046 -156729 -158685 1192.7 -50564.6 7861.55 -23728.7 -7.41452 
7038 2 14.7186 8.87864 6.47996 5.99968 -94792.2 -219405 26947.9 -41518.4 22325.8 -32949.3 -7.4167 
7039 2 15.4525 7.66532 6.47993 5.98883 -92366 -222018 -26012 -34468.3 8081.61 -20260.6 -7.41373 
7040 2 14.7646 6.42601 6.48437 5.99874 -112783 -201565 21653 -53185 19779.5 -31593.5 -7.41619 
7041 2 15.4985 5.21261 6.48352 5.98835 -114167 -200731 -19018 -44267.1 2673.88 -23556.6 -7.41401 
7042 2 14.8119 3.97254 6.48764 5.99948 -130806 -184092 14478.2 -61591.3 16398.7 -29974.3 -7.41564 
7043 2 15.5456 2.75891 6.48591 5.9897 -135996 -179873 -10382.7 -51016.2 -2305.79 -26604.4 -7.41442 
7044 2 14.8599 1.5182 6.48951 6.00181 -148438 -167083 6023.45 -66906.5 12347 -28173.2 -7.4151 
7045 2 15.5931 0.304203 6.48686 5.9928 -157223 -159172 -797.674 -54694.3 -6726.36 -29432.8 -7.41492 
7173 2 17.5598 8.92547 6.46981 5.98197 -75402.4 -237433 -36101.5 -43925 7860.11 -20079.4 -7.41349 
7174 2 16.8704 7.68704 6.47384 5.99037 -96686.8 -215592 31072.4 -64434.8 22412.9 -34779.2 -7.41714 
7175 2 17.6042 6.47347 6.47322 5.98034 -98702.7 -215094 -28336.1 -56349.7 2517.06 -23768.5 -7.41383 
7176 2 16.9163 5.2342 6.47722 5.99046 -117300 -196343 22866.2 -75650.8 19890.5 -33343.9 -7.4165 
7177 2 17.6499 4.02043 6.47587 5.98067 -122675 -192512 -18447.5 -65561.7 -2536.56 -27178.4 -7.41431 
7178 2 16.9632 2.78043 6.47962 5.99234 -137748 -177209 12901 -83429.9 16514.4 -31605.3 -7.41584 
7179 2 17.6963 1.56631 6.47748 5.98298 -146380 -169904 -7117.04 -71425.5 -7049.53 -30302.1 -7.41491 
7180 2 17.0105 0.325689 6.48078 5.99597 -157503 -158292 1888.77 -87621.1 12387.7 -29611.5 -7.41519 
7308 2 18.9778 8.94533 6.46389 5.98258 -80716.6 -228559 41432.3 -74525.1 24009.4 -36489.9 -7.41815 
7310 2 19.0221 6.49309 6.46702 5.98171 -102890 -208276 32590.1 -88572.4 22501.9 -35284.9 -7.41746 
7312 2 19.0676 4.0399 6.46965 5.98284 -125515 -187831 21508.4 -99103.5 20009.3 -33714.3 -7.41669 
7314 2 19.1139 1.58571 6.47145 5.98596 -147641 -167481 8874.48 -105921 16635.5 -31824.6 -7.4159 
1368 1 19.2968 8.24184 2.93397 5.99048 -225636 -87717.6 -39520.3 88465.5 3520.79 -21259.3 -7.41342 
1369 1 19.9813 7.00017 2.93495 5.99224 -224402 -87939.5 37176 80780.8 19195 -38820.5 -7.41798 
1370 1 19.2524 5.7833 2.93048 6.0005 -207628 -107135 -29504.3 100020 -2139.77 -24382.8 -7.41386 
1371 1 19.9371 4.54191 2.93218 5.98865 -203923 -110753 25613.4 89265.1 17342.1 -37365.7 -7.41719 
1372 1 19.2067 3.32586 2.92843 5.99788 -188504 -127205 -17554.7 106657 -7565.67 -27170.9 -7.41445 
1373 1 19.892 2.08486 2.93082 5.98273 -181842 -134103 12424.7 93178 14758.5 -35310 -7.41636 
1374 1 19.1604 0.869536 2.92783 5.99099 -168582 -147257 -4458.49 108606 -12457.1 -29644.6 -7.41514 
1503 1 22.1262 8.20034 2.94276 5.98751 -234983 -74243.5 47618.3 93235.8 20840.4 -38702.7 -7.41896 
1504 1 21.3985 6.98257 2.93853 5.99615 -219417 -93957 -39823.9 113914 -2317.87 -22924.1 -7.41356 
1505 1 22.0836 5.7414 2.93995 5.98361 -215752 -96810.4 35603.4 104827 19824.5 -37666.3 -7.41813 
1506 1 21.3543 4.52452 2.9364 5.9954 -200684 -114265 -27085 123618 -7639.53 -25838.4 -7.4142 
1507 1 22.0399 3.2837 2.93849 5.97952 -194531 -120180 21472 111434 17995.5 -36016.1 -7.4172 
1508 1 21.3093 2.06759 2.93566 5.98708 -180529 -134968 -12652.9 128152 -12533.2 -28439.9 -7.41496 
1509 1 21.9954 0.827222 2.9383 5.97309 -171735 -144164 6014.54 113178 15426.5 -33796.8 -7.41626 
1638 1 23.5434 8.18452 2.94529 5.99167 -228906 -82002.5 -50280.6 124994 -2576.7 -20831.9 -7.41321 
1639 1 24.229 6.94362 2.94642 5.97962 -225236 -84187.5 45876.4 117957 21627.2 -36659.9 -7.41905 
1640 1 23.5008 5.72591 2.94311 5.9923 -211333 -102011 -37278.5 137807 -7722.22 -23719 -7.41387 
1641 1 24.1867 4.48532 2.94489 5.97585 -205789 -106922 31356.4 127557 20558.9 -35393.9 -7.41808 
1642 1 23.4571 3.26842 2.9423 5.9843 -192023 -122538 -22102.7 145251 -12570.4 -26323.6 -7.41468 
1643 1 24.1435 2.02823 2.94464 5.97013 -184232 -130284 15003.4 131965 18701.6 -33570.3 -7.41704 
1644 1 23.4128 0.812061 2.94274 5.97665 -171351 -143428 -5580.74 147461 -16812 -28646.3 -7.41561 
1773 1 26.3732 8.14831 2.95167 5.97671 -231795 -73704.3 55915 128219 22774.5 -34679.8 -7.41993 
1774 1 25.6461 6.92984 2.94853 5.98903 -219640 -91348.3 -47531.1 148756 -7754.74 -21146.5 -7.41349 
1775 1 26.3325 5.68952 2.95002 5.97203 -214689 -95192.1 41483.6 140866 22439.6 -33734.2 -7.41893 
1776 1 25.6039 4.47187 2.94764 5.9825 -202065 -111071 -32162.5 159328 -12519.7 -23645.2 -7.41432 
1777 1 26.2907 3.2319 2.94969 5.96824 -195329 -117473 24804.9 148196 21278 -32283.6 -7.41785 
1778 1 25.5608 2.01499 2.94804 5.97381 -182754 -131226 -14948.6 164309 -16781.9 -25899 -7.41528 
1779 1 26.2482 0.775451 2.9505 5.96218 -173840 -140303 6686.32 150251 19312.1 -30362.1 -7.41673 
1908 1 27.7903 8.13605 2.95285 5.9867 -225081 -82954.3 -57384.3 156273 -7694.38 -18392.4 -7.4131 
1909 1 28.4772 6.89604 2.95409 5.96933 -220573 -85706.5 51386.4 150956 23680.1 -31333.5 -7.41975 
1910 1 27.7496 5.6777 2.95181 5.98104 -209736 -101378 -42279.1 169907 -12345.6 -20706.1 -7.41391 
1911 1 28.4368 4.43797 2.95361 5.96558 -204054 -106448 34861 161308 23177.3 -30206.2 -7.41865 
1912 1 27.7079 3.22038 2.95211 5.97202 -192564 -120341 -24925 177913 -16617.4 -22817.1 -7.41488 
1913 1 28.3955 1.98102 2.95436 5.96047 -185095 -127695 16453.4 166284 21859.7 -28657.3 -7.41748 
1914 1 27.6655 0.764091 2.95355 5.96442 -173514 -139481 -6153.32 180277 -20220.5 -24721.8 -7.41597 
7309 2 19.7113 7.73153 6.46347 5.97372 -83472.4 -228207 -38680 -67774.2 2117.41 -22817.5 -7.41355 
7311 2 19.7556 5.27912 6.46607 5.97286 -108682 -204859 -27983 -79637.4 -2947.33 -26426.9 -7.41409 
7313 2 19.8007 2.82562 6.46807 5.97411 -134002 -181351 -15328.4 -87991.4 -7548.96 -29750.7 -7.41476 
7315 2 19.8463 0.370967 6.4692 5.97738 -158559 -157535 -1540.35 -92534 -11498.1 -32740.6 -7.41553 
7443 2 21.8199 8.98687 6.45468 5.96877 -69601.6 -238929 -49377.4 -77642.2 1614.81 -21040.8 -7.41321 
7444 2 21.1293 7.74923 6.45758 5.97392 -88788.2 -218607 43040.6 -99443.8 24143.1 -35825.4 -7.41845 
7445 2 21.8625 6.53502 6.45699 5.96665 -95227.6 -215762 -38364.3 -92321.8 -3383.75 -24655.9 -7.41377 
7446 2 21.1733 5.29657 6.46014 5.97405 -112699 -197711 31321.5 -112956 22629 -34453.2 -7.41762 
7447 2 21.9063 4.08208 6.45913 5.96667 -121448 -192058 -24914 -103351 -8057.99 -28026 -7.41449 
7448 2 21.2183 2.84291 6.46233 5.97631 -136377 -176843 17550.7 -122449 20139.9 -32748.7 -7.41673 
7449 2 21.9508 1.62802 6.46081 5.96881 -147205 -168103 -9796.24 -110339 -12113.6 -31100.1 -7.41534 
7450 2 21.2638 0.38821 6.46384 5.98069 -159160 -155901 2562.18 -127556 16747.6 -30742.3 -7.41582 
7578 2 23.238 9.00278 6.44919 5.96759 -76084.8 -226532 53602.8 -107891 24895.9 -35174.7 -7.41942 
7579 2 23.9708 7.78827 6.44889 5.96226 -83263.2 -224239 -48948.2 -102914 -3734.18 -22248.9 -7.4134 
7580 2 23.2804 6.55055 6.45146 5.96651 -100467 -205957 41732.9 -124209 24348.6 -33980.5 -7.41856 
7581 2 24.0131 5.33583 6.45096 5.96094 -109575 -201258 -35242.3 -116690 -8434.37 -25505.9 -7.41414 
7582 2 23.324 4.09737 6.4538 5.96766 -125106 -185315 27365.1 -136513 22783.2 -32479 -7.4176 
7583 2 24.0563 2.8823 6.45296 5.96178 -135672 -177807 -19374.5 -126275 -12619.6 -28529.5 -7.41502 
7584 2 23.3683 1.64319 6.45585 5.97105 -148966 -164424 11266 -144342 20249.9 -30697.7 -7.4166 
7585 2 24.0999 0.427629 6.45454 5.96484 -160881 -154165 -2265.32 -131457 -16062.5 -31249.6 -7.416 
7713 2 26.0802 9.03912 6.4419 5.95981 -73261.5 -229732 -59208.8 -110948 -3947.63 -19553 -7.41301 
7714 2 25.3887 7.80207 6.4438 5.96063 -89653.1 -211786 52169.3 -132450 25268.4 -32560.5 -7.41948 
7715 2 26.1211 6.58705 6.44371 5.95714 -98869.5 -208181 -45716.9 -127435 -8601.31 -22571 -7.41373 
7716 2 25.4309 5.34927 6.44606 5.96048 -114539 -192044 37721.8 -147603 24590.9 -31241.2 -7.4185 
7717 2 26.163 4.13397 6.44581 5.95661 -124860 -185858 -29658.5 -139685 -12896.1 -25418.2 -7.41461 
7718 2 25.4739 2.89553 6.44843 5.96264 -138722 -171915 21079.6 -158192 22918.2 -29686.9 -7.41743 
7719 2 26.2055 1.67982 6.44787 5.95831 -150222 -163094 -11842.8 -147362 -16515.9 -28043 -7.41563 
7720 2 25.5174 0.440793 6.45053 5.96711 -161701 -151602 3161.44 -163806 20292.9 -27908.3 -7.41634 
7848 2 27.4983 9.05144 6.43724 5.95656 -80836.1 -214870 62181.3 -137716 25537.8 -30463.4 -7.42035 
7849 2 28.2301 7.83607 6.43748 5.95517 -90143.6 -212262 -55863.1 -135261 -8541.45 -19525.3 -7.41331 
7850 2 27.5389 6.59889 6.43926 5.95504 -105073 -196481 48084.4 -155379 25668.7 -29297.9 -7.41936 
7851 2 28.2707 5.38332 6.4395 5.95324 -115421 -191759 -40090.1 -150175 -12891.2 -22103 -7.41417 
7852 2 27.5806 4.14549 6.44171 5.95584 -129257 -177695 31421.7 -168739 24809 -27948.2 -7.41827 
7853 2 28.3121 2.92959 6.4418 5.95353 -140306 -170512 -22122.3 -160475 -16691.2 -24528.1 -7.41518 
7854 2 27.623 1.69118 6.44425 5.95899 -152401 -158626 12998.3 -177069 22979.7 -26426.1 -7.41711 
7855 2 28.3538 0.474817 6.44398 5.95603 -163918 -149157 -2905.77 -165842 -19704.3 -26739.7 -7.4163 
2043 1 30.6211 8.10456 2.9574 5.96769 -223069 -78810 60760.7 157658 24360.4 -28445.2 -7.42052 
2044 1 29.8944 6.88561 2.95508 5.97874 -214346 -93849 -52046 176864 -12022.8 -17720.2 -7.41349 
2045 1 30.5821 5.64617 2.95667 5.96311 -209682 -97512.7 44745.2 171028 24465.2 -27578.7 -7.41942 
2046 1 29.854 4.42795 2.95519 5.9711 -199868 -111226 -35000.9 187944 -16289.4 -19642.5 -7.41444 
2047 1 30.542 3.18881 2.95724 5.95875 -193824 -117000 26514.1 178949 23752.8 -26358.9 -7.41823 
2048 1 29.8128 1.97125 2.95653 5.96277 -183382 -128747 -16104.4 193269 -19990.9 -21394.9 -7.41552 
2049 1 30.5013 0.732472 2.95883 5.95377 -175465 -136636 6855.17 181373 22213.6 -24810.6 -7.417 
2178 1 32.0383 8.09529 2.9578 5.97735 -215715 -88936.6 -61230.2 180449 -11545.6 -14817.5 -7.41309 
2179 1 32.7265 6.85616 2.95922 5.96171 -212135 -91285.2 54184.3 177329 25229.1 -24599.5 -7.42015 
2180 1 31.9992 5.63741 2.9576 5.97087 -204196 -104310 -44813.5 194337 -15783 -16527.2 -7.41399 
2181 1 32.6876 4.3985 2.95947 5.9576 -199663 -108499 36474.7 188137 25073.1 -23651.9 -7.41896 
2182 1 31.9592 3.18039 2.95869 5.96197 -190717 -120042 -26221.9 202619 -19578.6 -18102.7 -7.41504 
2183 1 32.6479 1.94177 2.96084 5.95219 -184547 -126077 16959.2 193559 24105.3 -22430.7 -7.41772 
2184 1 31.9186 0.72422 2.9608 5.95507 -175020 -135856 -6241.41 205318 -22673.3 -19537.4 -7.41621 
2313 1 34.8703 8.06761 2.96157 5.9612 -211046 -87662.2 63040.9 180357 25551.8 -21409.9 -7.42083 
2314 1 34.1437 6.84842 2.95969 5.97035 -205390 -100011 -54148.3 197374 -15099.1 -13556.4 -7.41355 
2315 1 34.8326 5.60978 2.96141 5.95687 -202124 -102562 46089.5 194086 25908.5 -20684.9 -7.41967 
2316 1 34.1048 4.39119 2.9604 5.96186 -195093 -113568 -36173.5 208616 -18970.2 -14940.4 -7.41455 
2317 1 34.7939 3.15276 2.9624 5.95146 -190678 -117995 27045.6 202343 25465 -19740.1 -7.41842 
2318 1 34.0652 1.93472 2.9622 5.9544 -182689 -127470 -16435.5 214180 -22241.1 -16213.8 -7.41569 
2319 1 34.7546 0.696568 2.96429 5.94728 -176507 -133564 6663.92 205233 24198 -18601.3 -7.41715 
2448 1 36.2876 8.06067 2.96175 5.96996 -203182 -98161.8 -62893.7 197261 -14242.2 -10778.2 -7.41314 
2449 1 36.977 6.82232 2.96333 5.95643 -201327 -99308.8 55225 196715 26334.6 -17558.7 -7.42033 
2450 1 36.2498 5.60335 2.96197 5.9622 -196201 -109682 -45754.6 211236 -18161.7 -11960.1 -7.41408 
2451 1 36.9392 4.36515 2.96382 5.95077 -193484 -112339 36889.8 207884 26372.5 -16848.6 -7.4191 
2452 1 36.2111 3.14669 2.96331 5.95438 -187278 -121333 -26559.7 219785 -21598.1 -13060.9 -7.41517 
2453 1 36.9008 1.90867 2.96525 5.94672 -183118 -125634 16868.4 213670 25610.3 -15981.9 -7.41782 
2454 1 36.1719 0.690653 2.96552 5.94847 -176022 -133079 -6056.88 222719 -24320.9 -14071.1 -7.41637 
7983 2 30.3402 9.08321 6.4323 5.9549 -83985.1 -213487 -65369.5 -140377 -8278.75 -16567 -7.4129 
7984 2 29.6481 7.84654 6.43346 5.95142 -97584.3 -198423 58043.2 -160118 26145.7 -26879 -7.42019 
7985 2 30.3794 6.63065 6.4341 5.95165 -107861 -195159 -50237.3 -157737 -12608 -18825.4 -7.41372 
7986 2 29.6884 5.39336 6.43582 5.95079 -121155 -181366 41790.3 -176088 26023 -25706.6 -7.41909 
7987 2 30.4196 4.17722 6.43642 5.9505 -131738 -175908 -32586.1 -170637 -16555.6 -20979.6 -7.41469 
7988 2 29.7296 2.93937 6.43855 5.95251 -143855 -164023 23371.1 -187084 24936.9 -24410.6 -7.4179 
7989 2 30.4604 1.72286 6.43891 5.951 -154720 -156406 -13212.2 -178543 -19808.7 -22993.3 -7.41581 
7990 2 29.7712 0.484513 6.44125 5.95655 -164903 -146497 3712.64 -192848 22910.9 -22979.8 -7.4167 
8118 2 31.7582 9.09256 6.42872 5.94964 -92476.8 -197525 67339.1 -161978 26138.4 -24159 -7.42095 
8119 2 32.4889 7.87629 6.42969 5.95163 -102571 -195788 -59823 -162387 -12086.8 -15730.3 -7.41328 
8120 2 31.7972 6.63946 6.43083 5.94756 -114826 -182680 51812 -180298 26669.3 -23139.2 -7.41987 
8121 2 32.528 5.42303 6.43186 5.94853 -124921 -178951 -42839.1 -177734 -16123.3 -17578.2 -7.4142 
8122 2 31.8372 4.18566 6.43354 5.94777 -136644 -167337 33814.3 -193862 26259.2 -22036.8 -7.41868 
8123 2 32.5677 2.96897 6.43442 5.94746 -146840 -161591 -23757.2 -188224 -19602.8 -19337.5 -7.41528 
8124 2 31.8778 1.73112 6.43647 5.95029 -157070 -151660 14130.5 -202321 24920 -20842.5 -7.41745 
8125 2 32.6078 0.514044 6.43699 5.94871 -166950 -143853 -3472.35 -193581 -22290.6 -20973.8 -7.41647 
8253 2 34.5992 9.12059 6.42632 5.95188 -99549.1 -193637 -68694.9 -164155 -11375.2 -12884.8 -7.41287 
8254 2 33.9068 7.88412 6.42685 5.94613 -110645 -181330 61252.5 -181494 26846 -20367.1 -7.42061 
8255 2 34.6371 6.66737 6.42822 5.94818 -120268 -179413 -52623.4 -181925 -15432.4 -14423 -7.41373 
8256 2 33.9456 5.43039 6.42936 5.94483 -131188 -168303 43986.1 -197577 27043 -19431.5 -7.41944 
8257 2 34.6758 4.21346 6.43065 5.9457 -140662 -164473 -34175.8 -194911 -19096.4 -15901.9 -7.41475 
8258 2 33.9852 2.97604 6.43227 5.9458 -150649 -154919 24673.4 -208589 26332.8 -18439.6 -7.41819 
8259 2 34.7151 1.75883 6.43327 5.94538 -159656 -149137 -14094.9 -202725 -22068.9 -17307.7 -7.4159 
8260 2 34.0252 0.521011 6.43522 5.94901 -167906 -141192 4190.6 -214243 24724.3 -17374.9 -7.41692 
8388 2 36.0171 9.12769 6.42391 5.94642 -108647 -177675 69988.6 -180142 26631.4 -17461.7 -7.4213 
8389 2 36.7468 7.91056 6.42557 5.94888 -117854 -177353 -61789 -183357 -14523 -11549.9 -7.41328 
8390 2 36.0548 6.67389 6.42611 5.94366 -127731 -166908 53671 -198473 27369.4 -16675.9 -7.42016 
8391 2 36.7846 5.45668 6.42774 5.94554 -136391 -164932 -44223.4 -198699 -18314.9 -12747.8 -7.41423 
8392 2 36.0934 4.21959 6.42883 5.94307 -145830 -155932 35034.2 -211849 27228.7 -15858.1 -7.41892 
8393 2 36.8231 3.00221 6.4302 5.9437 -153992 -152202 -24676.9 -208993 -21549.4 -13899.4 -7.41534 
8394 2 36.1325 1.76476 6.43174 5.94468 -162077 -144619 14813.3 -220025 26211.3 -14997.7 -7.41764 
8395 2 36.8619 0.547099 6.43265 5.9441 -169804 -139005 -3985.43 -214076 -24007.8 -14987.2 -7.41655 
8524 2 38.1645 7.91648 6.42386 5.94415 -126356 -163355 62746.8 -196678 27308.2 -13810.6 -7.42084 
8526 2 38.2021 5.46211 6.42626 5.94204 -142933 -154781 45011.5 -212379 27680.4 -13148 -7.41963 
8528 2 38.2405 3.00733 6.42894 5.94204 -157919 -145810 25350.6 -223032 27203.8 -12464.3 -7.41836 
8530 2 38.2792 0.552107 6.43159 5.9442 -170729 -136669 4587.14 -228281 25872.4 -11739.9 -7.41707 
2583 1 39.1209 8.03581 2.96544 5.95651 -197264 -98825.2 63809.8 196269 26416.1 -14338 -7.42097 
2584 1 38.3942 6.81655 2.96366 5.96286 -194219 -108462 -54845.3 210730 -17153.5 -9184.18 -7.41363 
2585 1 39.0841 5.57859 2.96537 5.95042 -193078 -109439 46357 210239 26897.8 -13825.3 -7.41977 
2586 1 38.3565 4.35981 2.96443 5.95481 -188651 -117796 -36415.3 222118 -20734.8 -10104.8 -7.41465 
2587 1 39.0464 3.12196 2.96621 5.94628 -186296 -120298 26935.7 218932 26598 -13192.8 -7.41849 
2588 1 38.318 1.90359 2.9661 5.94852 -181018 -127206 -16325.1 227967 -23695.4 -10956.6 -7.41581 
2589 1 39.0082 0.665918 2.96778 5.9435 -176880 -131255 6283.43 222173 25486.1 -12457.4 -7.41721 
2718 1 40.5382 8.03048 2.96562 5.96311 -188990 -109587 -63387.4 207311 -15954.8 -6619 -7.4132 
2719 1 41.2286 6.79278 2.96719 5.95049 -189044 -109097 55371.4 209519 27099.6 -10715.7 -7.42041 
2720 1 40.5014 5.57378 2.96578 5.95547 -186860 -116907 -45879.8 221389 -19648 -7351.68 -7.41416 
2721 1 41.1917 4.33613 2.96739 5.94592 -186121 -117657 36733.5 221094 27226.8 -10283.9 -7.41915 
2722 1 40.4637 3.1175 2.9668 5.949 -182664 -124008 -26428.6 230189 -22835.3 -8038.88 -7.41526 
2723 1 41.154 1.87993 2.9683 5.94334 -180589 -126261 16516.7 227240 26565.5 -9773.47 -7.41786 
2724 1 40.4255 0.661609 2.9685 5.94431 -176294 -131214 -5754.6 233441 -25306.2 -8671.26 -7.41648 
2853 1 43.373 8.00743 2.96935 5.95091 -181754 -111345 63888.6 205887 27014 -7541.23 -7.42102 
2854 1 42.6459 6.7883 2.96747 5.95577 -181555 -118435 -54884 217748 -18343.5 -4804.71 -7.41369 
2855 1 43.3367 5.55086 2.96892 5.94598 -182484 -117547 46175.6 220173 27545 -7285.73 -7.4198 
2856 1 42.6089 4.33207 2.9678 5.94964 -181051 -123471 -36244.6 229376 -21734.3 -5316.26 -7.41472 
2857 1 43.2995 3.09464 2.96911 5.94302 -180948 -123929 26589.6 229298 27302 -6971.82 -7.41851 
2858 1 42.5713 1.87612 2.96879 5.94481 -178354 -128273 -16031 235518 -24495.6 -5791.4 -7.41589 
2859 1 43.2619 0.638757 2.96985 5.94188 -176590 -130141 5854.62 232946 26256.2 -6613.04 -7.41722 
2988 1 44.7903 8.00306 2.96949 5.95641 -173284 -122732 -63373.5 211163 -16825.4 -2460.62 -7.41325 
2989 1 45.4815 6.76586 2.9708 5.9464 -175598 -120154 55197 216312 27585.2 -4204.97 -7.42042 
2990 1 44.754 5.547 2.96918 5.94999 -176045 -125432 -45685.9 225516 -20387.7 -2788.41 -7.41421 
2991 1 45.4449 4.30973 2.97031 5.94305 -177710 -124121 36407 228230 27735.6 -4067.65 -7.41915 
2992 1 44.7168 3.09111 2.96943 5.94543 -177150 -128050 -26124.5 234591 -23429.9 -3094.76 -7.41532 
2993 1 45.4076 1.85383 2.97029 5.94167 -177295 -128078 16108.8 234871 27102.5 -3896.55 -7.41786 
2994 1 44.6792 0.635369 2.97018 5.94225 -175867 -130521 -5400.88 238273 -25750.8 -3373.66 -7.41654 
3123 1 47.6264 7.98082 2.97295 5.9473 -165467 -125242 63732.9 209560 27373.8 -1038.8 -7.42101 
3124 1 46.8989 6.76199 2.97091 5.9507 -167974 -130050 -54683.7 218821 -18792.3 -448.823 -7.41374 
3125 1 47.5902 5.5249 2.97188 5.94347 -171134 -127010 45886.1 224265 27902.1 -1059.26 -7.41978 
3126 1 46.8622 4.30627 2.97047 5.9458 -172451 -130416 -35937.5 230699 -22094.5 -575.739 -7.41477 