ITEM: TIMESTEP
0
ITEM: NUMBER OF ATOMS
12152
ITEM: BOX BOUNDS pp pp pp
0.0000000000000000e+00 9.5721004899999997e+01
0.0000000000000000e+00 1.6579364400000000e+02
0.0000000000000000e+00 1.5000000000000000e+01
ITEM: ATOMS id type x y z c_csym c_2[1] c_2[2] c_2[3] c_2[4] c_2[5] c_2[6] c_3 
152 1 0.819 8.586 3 6.02496 -147462 -138717 -152091 -3468.52 17267.3 -3003.24 -7.4106 
153 1 0.095 7.367 3 6.01967 -129182 -152001 -150797 -7966.67 18112.4 -616.164 -7.41101 
154 1 0.788 6.13 3 6.02431 -141023 -156447 -154555 -10441.3 12369.1 -2693.14 -7.41095 
155 1 0.063 4.912 3 6.02437 -129864 -164619 -155086 -8116.87 11294.9 -501.472 -7.41115 
156 1 0.756 3.675 3 6.02108 -137481 -143350 -156692 -6931.11 7358.98 -2083.3 -7.4105 
157 1 0.032 2.456 3 6.02216 -133835 -146149 -157233 -4647.08 5488.93 -250.582 -7.41057 
158 1 0.725 1.219 3 6.02418 -128607 -125346 -157741 10499.5 2529.03 -1681.13 -7.41061 
159 1 0 0 3 6.02705 -126485 -140363 -157933 18359.2 -19.741 28.1782 -7.41086 
288 1 2.237 8.568 3 6.02464 -126151 -132301 -148080 13813.4 21174.9 -4489.54 -7.41108 
289 1 2.93 7.331 3 6.02546 -144047 -139320 -151950 -2539.57 14985.9 -8516.03 -7.41085 
290 1 2.206 6.112 3 6.02134 -133146 -147900 -153048 849.906 14267 -4515.73 -7.41093 
291 1 2.899 4.875 3 6.02464 -134734 -123159 -154563 8005.68 10016.5 -7633.11 -7.41051 
292 1 2.174 3.656 3 6.0239 -124638 -130752 -156086 8052 7815.58 -4498.16 -7.41056 
293 1 2.867 2.419 3 6.02224 -145556 -175574 -156360 -24186.4 5033.11 -6730.99 -7.41091 
294 1 2.143 1.201 3 6.02154 -138832 -156287 -157383 -31330.9 2302.44 -4467.4 -7.41057 
423 1 5.073 8.532 3 6.0239 -136102 -124027 -147199 4055.6 18093.5 -14909.4 -7.41099 
424 1 4.348 7.313 3 6.02464 -127880 -132386 -150353 13941.3 17141.1 -8441.92 -7.41072 
425 1 5.041 6.076 3 6.02134 -141726 -140458 -150722 -3798.39 12984.4 -13548.1 -7.41105 
426 1 4.317 4.857 3 6.02546 -134247 -147920 -153983 2793.91 10437.2 -8616.12 -7.41075 
427 1 5.01 3.62 3 6.02464 -131833 -124305 -153195 8538.96 8009.49 -12310.6 -7.41083 
428 1 4.285 2.401 3 6.02471 -126145 -128563 -155848 14799.8 4397.13 -8820.79 -7.41077 
429 1 4.978 1.164 3 6.02331 -139853 -156388 -154925 -11325 2810.43 -11195 -7.41074 
558 1 6.491 8.513 3 6.01969 -132487 -154344 -146912 195.439 20216.5 -12449.1 -7.41097 
559 1 7.184 7.276 3 6.02431 -142693 -158428 -144453 -13030.8 16490.8 -20185.9 -7.41147 
560 1 6.459 6.058 3 6.02431 -132998 -166875 -151409 -3851.73 12933.7 -12747.1 -7.4111 
561 1 7.152 4.821 3 6.01969 -139096 -145233 -148008 -10141.9 11307.7 -18505.9 -7.41094 
562 1 6.428 3.602 3 6.02362 -136574 -148436 -153421 2534.24 6644.43 -13319.2 -7.41053 
563 1 7.121 2.365 3 6.02418 -129594 -126893 -150897 6789.11 6134.57 -17003.2 -7.41103 
564 1 6.396 1.146 3 6.02468 -129073 -140599 -153984 21162.8 749.771 -13824.6 -7.41106 
693 1 9.326 8.477 3 6.02546 -145837 -142686 -135740 -4573.2 20094.9 -27145.4 -7.41169 
694 1 8.602 7.258 3 6.02134 -134118 -152046 -148006 7058.43 15654.5 -17041.4 -7.41115 
695 1 9.295 6.021 3 6.02464 -136570 -126379 -140385 5371.16 15085.6 -25374.5 -7.41123 
696 1 8.57 4.802 3 6.0239 -125325 -134859 -150519 13766 8818.52 -17818 -7.41081 
697 1 9.263 3.565 3 6.0231 -146347 -180263 -144743 -27664.8 9800.49 -23419.8 -7.41142 
698 1 8.539 2.347 3 6.02311 -143171 -181846 -151196 -15857.6 2631.46 -18515.5 -7.41115 
699 1 9.232 1.11 3 6.02182 -123007 -111323 -147844 10677.1 4344.93 -21633.5 -7.41067 
6096 2 0.599 8.604 6.4 6.02334 -115058 -120485 -148114 6913.23 21652.4 -520.417 -7.41077 
6097 2 0.63 6.149 6.4 6.02313 -130228 -168764 -153252 9859.7 14681.8 -781.547 -7.41081 
6098 2 0.662 3.693 6.4 6.02461 -119124 -114614 -156363 3441.92 8265.15 -972.065 -7.41024 
6099 2 0.693 1.237 6.4 6.02628 -124102 -130657 -157772 -10435.7 2740.65 -1282.83 -7.4105 
6100 2 0 0 6.4 6.02658 -128611 -140677 -157968 -3140.85 11.0296 -7.66128 -7.4105 
6228 2 2.017 8.623 6.4 6.01968 -141636 -141290 -151320 7587.69 17608.1 -4918.26 -7.41097 
6229 2 2.741 7.404 6.4 6.02495 -135339 -150015 -150580 5530.94 18292.3 -4501.2 -7.41068 
6230 2 2.048 6.167 6.4 6.02385 -131710 -121921 -153954 -13776.8 12728.6 -4728.22 -7.41112 
6231 2 2.773 4.948 6.4 6.02464 -126169 -129651 -154542 -9017.89 11580.7 -4873.5 -7.41076 
6232 2 2.08 3.711 6.4 6.02511 -137263 -141579 -156112 1762.83 7781.63 -4639.05 -7.41088 
6233 2 2.804 2.492 6.4 6.02273 -134097 -145327 -156579 3530.76 5523.63 -5376.3 -7.41075 
6234 2 2.111 1.255 6.4 6.02555 -128250 -126655 -157285 -12612.1 2959.69 -4417.93 -7.41055 
6235 2 2.836 0.036 6.4 6.02352 -130925 -139099 -157172 -10861 96.4717 -5966.09 -7.41054 
6363 2 4.852 8.659 6.4 6.02546 -133970 -151442 -147249 5872.01 22051.4 -8140.79 -7.41109 
6364 2 4.159 7.422 6.4 6.02464 -136521 -121673 -150341 -13023.8 15887.8 -10572.7 -7.41097 
6365 2 4.884 6.203 6.4 6.02417 -125452 -131132 -152016 -6801.18 14799.8 -8716.79 -7.411 
6366 2 4.191 4.966 6.4 6.02362 -142774 -141402 -153059 891.757 10980 -10033.3 -7.41056 
6367 2 4.915 3.747 6.4 6.01968 -132441 -149904 -154676 10532.3 8471.15 -9303.4 -7.4106 
6368 2 4.222 2.51 6.4 6.02431 -137126 -159377 -155105 7388.61 6070.14 -9561.79 -7.41094 
6369 2 4.947 1.292 6.4 6.02432 -135092 -160943 -155473 13774.3 2475.12 -10237.1 -7.41099 
6370 2 4.254 0.055 6.4 6.01897 -130920 -124072 -155985 -7368.42 1030.44 -9197.4 -7.41036 
6498 2 6.27 8.677 6.4 6.02464 -140055 -122616 -144376 -11745.5 19476.3 -17154.6 -7.41102 
6499 2 6.995 7.458 6.4 6.0239 -124389 -136213 -148832 499.079 18157.2 -12592.6 -7.4109 
6500 2 6.302 6.221 6.4 6.02311 -149192 -176291 -148127 19755.5 14479.2 -16075.5 -7.41125 
6501 2 7.026 5.003 6.4 6.0231 -140730 -184767 -152039 28682.5 11262 -13415 -7.41103 
6502 2 6.333 3.766 6.4 6.0239 -130305 -127179 -150882 -9598.44 9608.76 -15296.1 -7.41082 
6503 2 7.058 2.547 6.4 6.02464 -129040 -130368 -153167 -4034.23 5034.26 -14423.7 -7.41057 
6504 2 6.365 1.31 6.4 6.02134 -136545 -144844 -153001 -2747.57 4457.64 -14507.3 -7.4109 
6505 2 7.089 0.091 6.4 6.02446 -137342 -158470 -152687 1217.94 -748.763 -15563.6 -7.41109 
6633 2 9.106 8.714 6.4 6.02431 -133137 -171322 -145355 18824.8 21171.1 -16473.8 -7.41138 
6634 2 8.413 7.477 6.4 6.01968 -142646 -144602 -140547 3188.99 18364.3 -22933 -7.41132 
6635 2 9.137 6.258 6.4 6.02362 -136167 -152920 -148769 11274.3 14179 -17545.6 -7.41074 
6636 2 8.444 5.021 6.4 6.02417 -133206 -125168 -144605 -15353.4 13388.7 -21680.9 -7.4114 
6637 2 9.169 3.802 6.4 6.02464 -127326 -132581 -150062 -3839.24 7399.16 -18783.5 -7.41095 
6638 2 8.476 2.565 6.4 6.02546 -139183 -144995 -147936 -3903.08 8316.06 -20383.7 -7.41106 
6639 2 9.2 1.346 6.4 6.02287 -134948 -149125 -149931 8058.62 1406.03 -20021.7 -7.41104 
6640 2 8.507 0.109 6.4 6.0246 -132058 -141156 -150088 -10485.8 3000.29 -19479.4 -7.41101 
828 1 10.744 8.459 3 6.02464 -129226 -137622 -144663 20269.7 18164.1 -20966.1 -7.41096 
829 1 11.437 7.222 3 6.02134 -143693 -144931 -130508 -5815.96 18908.2 -32270.5 -7.41209 
830 1 10.713 6.003 3 6.02546 -135391 -153176 -147221 8708.71 11172 -22099 -7.41106 
831 1 11.406 4.766 3 6.02464 -133798 -128659 -136049 5869.4 13735.1 -30270 -7.41171 
832 1 10.681 3.547 3 6.02417 -127506 -132920 -147901 20118.5 4457.82 -23197.7 -7.41119 
833 1 11.374 2.31 3 6.02362 -140330 -149409 -140660 -9702.79 8335.41 -28219.6 -7.41115 
834 1 10.65 1.091 3 6.0209 -139498 -162606 -146733 8172.75 -1525.47 -24343 -7.411 
963 1 13.58 8.422 3 6.02431 -144684 -164037 -117664 -14377.8 22772.2 -39266.1 -7.41286 
964 1 12.855 7.204 3 6.02431 -134497 -172996 -143850 2101.85 13247 -26090.8 -7.41143 
965 1 13.548 5.967 3 6.01969 -141194 -150666 -125021 -12131.5 17731.2 -37072.4 -7.41214 
966 1 12.824 4.748 3 6.02362 -137886 -154684 -144391 8055.89 6336.47 -27488.5 -7.41094 
967 1 13.517 3.511 3 6.02417 -132334 -131360 -130654 4252.44 12566.4 -35113.4 -7.4121 
968 1 12.792 2.292 3 6.02467 -128794 -135335 -142873 21320.1 -49.4506 -29156.7 -7.41127 
969 1 13.485 1.055 3 6.02547 -141312 -163745 -136285 -16322.8 6941.62 -32928.6 -7.41167 
1098 1 14.998 8.404 3 6.02134 -135861 -158667 -140279 12847.1 15167.8 -29382.8 -7.41149 
1099 1 15.691 7.167 3 6.02464 -138740 -132741 -110862 4080.06 21753.8 -43763 -7.41278 
1100 1 14.966 5.948 3 6.0239 -126986 -141791 -140471 19250 7906.01 -31472.5 -7.41126 
1101 1 15.659 4.711 3 6.02067 -148756 -186509 -118504 -29564.7 16785.4 -41785.2 -7.41278 
1102 1 14.935 3.493 3 6.0231 -145221 -191034 -138992 -8841.59 1482.43 -33372 -7.41141 
1103 1 15.628 2.256 3 6.02419 -129847 -137997 -125677 2780.73 11395.6 -39531.5 -7.41218 
1104 1 14.903 1.037 3 6.02468 -131371 -148283 -135577 26725.9 -4786.86 -35157.9 -7.41196 
1233 1 17.833 8.368 3 6.02512 -144168 -152808 -94493.2 -8001.46 25225.5 -49489.7 -7.41408 
1234 1 17.109 7.149 3 6.02628 -137248 -160270 -137238 13926.4 9433.25 -34342.2 -7.41151 
1235 1 17.802 5.912 3 6.02656 -133911 -136115 -103506 6392.28 20785.6 -47829.7 -7.41361 
1236 1 17.077 4.693 3 6.0242 -127833 -142826 -135070 25193.7 2696.5 -36815.1 -7.41167 
1237 1 17.77 3.456 3 6.0231 -149764 -190326 -112658 -29131.5 15792.1 -45639.1 -7.41283 
1238 1 17.046 2.238 3 6.02067 -145870 -190338 -131196 -10381.2 -3618.28 -38979.6 -7.41214 
1239 1 17.739 1.001 3 6.02182 -126672 -118258 -120462 6776.17 10303.6 -43345.2 -7.41217 
6768 2 10.524 8.732 6.4 6.02134 -145732 -143113 -130800 -2089.72 22243.7 -29826.1 -7.41208 
6769 2 11.248 7.513 6.4 6.02546 -134909 -155379 -145377 11606.9 16787.6 -21474.1 -7.41114 
6770 2 10.555 6.276 6.4 6.02464 -135622 -126734 -135854 -15893.9 17462.1 -28397.9 -7.41172 
6771 2 11.28 5.057 6.4 6.02417 -126763 -135137 -146862 -1565.02 9849.96 -22983.5 -7.41122 
6772 2 10.587 3.82 6.4 6.02362 -142351 -146499 -140507 -2626.72 12315.2 -26981 -7.41121 
6773 2 11.311 2.601 6.4 6.01969 -134046 -153961 -146431 15172.5 3386.59 -24565.9 -7.41099 
6774 2 10.618 1.364 6.4 6.02433 -138156 -162967 -144121 3043.06 7187.55 -25637.3 -7.41155 
6775 2 11.343 0.146 6.4 6.02372 -132679 -143440 -144238 28166.2 -2701.46 -26344.5 -7.41129 
6903 2 13.359 8.768 6.4 6.02299 -135442 -158435 -141774 13762.7 19121.8 -24958.2 -7.41129 
6904 2 12.666 7.531 6.4 6.02464 -138991 -128741 -124657 -14162.3 21503.7 -35205.8 -7.41206 
6905 2 13.391 6.312 6.4 6.0239 -125168 -140603 -143473 5392.63 12000 -26918.3 -7.41125 
6906 2 12.698 5.075 6.4 6.0231 -148776 -182480 -130557 16696.7 16591.2 -33722.7 -7.41215 
6907 2 13.422 3.857 6.4 6.02311 -142494 -189743 -142911 33302.1 5319.86 -28836.2 -7.41147 
6908 2 12.729 2.62 6.4 6.0239 -130412 -133421 -135623 -13318 11422.8 -32227.8 -7.4116 
6909 2 13.454 1.401 6.4 6.02467 -130551 -136346 -140083 -116.354 -1104.9 -30928.9 -7.41116 
6910 2 12.761 0.164 6.4 6.02222 -140901 -163123 -139984 -142.517 5925 -30607.5 -7.41148 
7038 2 14.777 8.786 6.4 6.02461 -139283 -133112 -110536 -13686.5 25446.3 -41865.8 -7.41268 
7039 2 15.502 7.567 6.4 6.02236 -133342 -177923 -140072 -9501.66 13794.6 -30285.7 -7.41159 
7040 2 14.809 6.331 6.4 6.01968 -149222 -185527 -117725 -16521.8 20805.5 -40472.1 -7.41283 
7041 2 15.533 5.112 6.4 6.0231 -136612 -160901 -138918 15961.6 6878.09 -32658.4 -7.41108 
7042 2 14.84 3.875 6.4 6.02417 -133367 -132316 -124636 -18576.3 15853.9 -38674.7 -7.41241 
7043 2 15.565 2.656 6.4 6.02464 -129496 -138280 -136282 24.1638 476.993 -34940.3 -7.41164 
7044 2 14.872 1.419 6.4 6.02546 -139319 -153006 -130637 -7664.61 10367.6 -36956.1 -7.4119 
7045 2 15.596 0.2 6.4 6.02446 -140842 -167484 -131699 4419.83 -5681.99 -37191.1 -7.41189 
7173 2 17.613 8.823 6.4 6.02431 -135073 -179427 -136875 25507.3 14855 -32705.7 -7.41174 
7174 2 16.92 7.586 6.4 6.01968 -143194 -153301 -102546 743.31 24736.5 -46424.8 -7.41343 
7175 2 17.644 6.367 6.4 6.02413 -138424 -161481 -135667 17537.4 8195.33 -35543.1 -7.41134 
7176 2 16.951 5.13 6.4 6.02413 -135681 -134548 -110897 -18561.6 20034.9 -44845.7 -7.41302 
7177 2 17.676 3.911 6.4 6.02464 -129743 -141505 -132113 1835.61 1578.96 -38296.2 -7.41182 
7178 2 16.983 2.674 6.4 6.02546 -141457 -153859 -118803 -7772.27 15009.6 -42958.3 -7.41255 
7179 2 17.707 1.455 6.4 6.02287 -137357 -158326 -127446 13032.1 -4478.79 -40812 -7.41216 
7180 2 17.014 0.218 6.4 6.0246 -134628 -149867 -125438 -15188.4 9482.38 -41150.8 -7.41225 
7308 2 19.031 8.841 6.4 6.02134 -146662 -152901 -85375.9 -3574.6 28036.8 -51351.8 -7.41448 
7310 2 19.062 6.385 6.4 6.02464 -137339 -136448 -94753.1 -18063.8 23948.4 -50054.7 -7.41387 
7312 2 19.094 3.929 6.4 6.02362 -144700 -156114 -104246 -5591 19262.5 -48359.3 -7.41308 
7314 2 19.125 1.473 6.4 6.02433 -140920 -172391 -112822 -699.625 14313.8 -46426 -7.41315 
1368 1 19.251 8.35 3 6.02464 -122757 -131360 -134287 13743.7 10318.3 -36095.3 -7.41124 
1369 1 19.945 7.113 3 6.02413 -175922 -122395 -86492.5 -7942.33 24325.7 -52748.2 -7.41461 
1370 1 19.22 5.894 3 6.02931 -128478 -147291 -131644 27524.9 3730.64 -39069.9 -7.41161 
1371 1 19.913 4.657 3 6.02877 -133272 -141177 -97026.4 5469.62 19881.5 -50906.3 -7.41374 
1372 1 19.188 3.438 3 6.02417 -130489 -141684 -126972 25254.2 -2760.58 -41764.9 -7.41222 
1373 1 19.881 2.201 3 6.02217 -140455 -159807 -106757 -14673.3 14929.6 -48706.4 -7.41311 
1374 1 19.157 0.982 3 6.02337 -142482 -171726 -120623 12655.6 -8714.93 -44194.1 -7.41232 
1503 1 22.087 8.313 3 6.02335 -143741 -177958 -67439.9 -14759.4 27255.5 -56221 -7.41531 
1504 1 21.362 7.095 3 6.02292 -176469 -165419 -128705 -5018.05 4260.43 -40060.2 -7.41234 
1505 1 22.056 5.858 3 6.02221 -174597 -127569 -79554.9 -13097.5 23476.5 -54823.1 -7.41474 
1506 1 21.331 4.639 3 6.02699 -131251 -148885 -123642 25735.4 -2146.63 -43131.1 -7.41178 
1507 1 22.024 3.402 3 6.02498 -132252 -145728 -90444.2 3600.19 19227.6 -52937.7 -7.41398 
1508 1 21.299 2.183 3 6.02465 -123156 -130345 -115979 12766.8 -8101.79 -46125.4 -7.41244 
1509 1 21.993 0.946 3 6.02451 -175804 -141159 -101456 -19924.8 14390.9 -50677.7 -7.41356 
1638 1 23.505 8.295 3 6.02359 -128593 -150812 -126995 29711.2 4239.87 -39505.1 -7.41195 
1639 1 24.198 7.058 3 6.02699 -138517 -146159 -59705.4 3790.16 26546.4 -57153.1 -7.41527 
1640 1 23.473 5.839 3 6.02221 -169220 -133803 -120230 10848.8 -2028.99 -43278.7 -7.41246 
1641 1 24.167 4.602 3 6.02292 -182730 -162712 -72703 -30353.5 22897.2 -55727.5 -7.41541 
1642 1 23.442 3.384 3 6.02335 -137255 -184332 -112741 5770.08 -7711.98 -46445.2 -7.41281 
1643 1 24.135 2.147 3 6.0236 -132477 -148871 -85521.5 -3573.53 18723.5 -53654.2 -7.41406 
1644 1 23.41 0.928 3 6.02386 -168666 -108538 -102804 -1279.41 -13175.1 -49378.6 -7.41325 
1773 1 26.341 8.259 3 6.02413 -178750 -127315 -39534.1 -6163.65 28751.5 -57727.3 -7.41714 
1774 1 25.616 7.04 3 6.03041 -130211 -151619 -118860 29342.2 -2106.14 -41669.5 -7.41226 
1775 1 26.309 5.803 3 6.03041 -136672 -147874 -53508.3 4616.28 25965.4 -56744.2 -7.41584 
1776 1 25.584 4.584 3 6.02413 -171759 -131602 -109961 15209.8 -7800.76 -45309.1 -7.41327 
1777 1 26.278 3.347 3 6.02464 -178002 -130397 -67649.7 -11810 22587.3 -55122.4 -7.41523 
1778 1 25.553 2.128 3 6.02504 -131324 -151007 -99394.2 20903.5 -13099.7 -48452.8 -7.41328 
1779 1 26.246 0.891 3 6.02584 -134697 -161990 -81285.3 -8199.48 18518.1 -52876 -7.41459 
1908 1 27.758 8.241 3 6.02292 -177769 -167782 -118257 -4487.49 -2682.95 -38868.5 -7.41288 
1909 1 28.452 7.004 3 6.02221 -177230 -131792 -33714.1 -12041.5 28227.8 -56081.4 -7.4172 
1910 1 27.727 5.785 3 6.02699 -132952 -152224 -108912 26573.2 -8098.67 -42633.9 -7.41256 
1911 1 28.42 4.548 3 6.02359 -135975 -149128 -48872.1 3594.11 25759.2 -54840.6 -7.41621 
1912 1 27.695 3.329 3 6.02464 -173822 -132277 -97422.6 14283.5 -13289.5 -46136.3 -7.41382 
1913 1 28.389 2.092 3 6.02456 -175988 -132331 -63796.3 -10927.9 22503.5 -53007 -7.41563 
1914 1 27.664 0.873 3 6.02835 -136204 -163676 -84538 31877.2 -17954.3 -48944.3 -7.41416 
7309 2 19.755 7.622 6.4 6.02546 -137208 -163655 -132696 17283.2 9012 -37295.5 -7.41173 
7311 2 19.787 5.166 6.4 6.02417 -129370 -144004 -128863 3667.34 2433.91 -40539.8 -7.41209 
7313 2 19.818 2.71 6.4 6.01968 -136793 -163290 -123142 19836.8 -3710.7 -43471.5 -7.41215 
7315 2 19.85 0.255 6.4 6.02372 -131558 -156206 -115564 30277.7 -9604.91 -46223.3 -7.41283 
7443 2 21.866 8.877 6.4 6.02134 -134558 -165791 -130561 20389.7 8999.06 -37737.9 -7.41216 
7444 2 21.173 7.64 6.4 6.02464 -140546 -138746 -76801.3 -15590.7 27293.6 -53923.2 -7.41458 
7445 2 21.898 6.421 6.4 6.02359 -126030 -149695 -126135 8403.67 2877.65 -41457.7 -7.41219 
7446 2 21.205 5.184 6.4 6.02311 -151078 -192368 -87461.9 14633.8 23209.4 -52573.8 -7.41441 
7447 2 21.929 3.966 6.4 6.02166 -143118 -199005 -119767 39121.5 -3270.7 -44811.5 -7.41284 
7448 2 21.236 2.729 6.4 6.0239 -133275 -143133 -97728.4 -16072.6 18718 -50792.2 -7.41356 
7449 2 21.961 1.51 6.4 6.02653 -131111 -148134 -111089 1422.28 -8994.37 -47934.8 -7.41264 
7450 2 21.268 0.273 6.4 6.02466 -134356 -158298 -107554 -16710.6 13597.1 -48622.3 -7.41296 
7578 2 23.284 8.895 6.4 6.02431 -137731 -160870 -56527.8 17435.4 29850 -56343 -7.41593 
7579 2 24.009 7.677 6.4 6.0248 -134349 -187648 -124298 25445.2 2468.61 -41002.1 -7.41216 
7580 2 23.316 6.44 6.4 6.02246 -134574 -147270 -68484.7 -13812.5 26602.2 -55272.8 -7.41492 
7581 2 24.041 5.221 6.4 6.02464 -171899 -133325 -116820 19301.8 -3348.62 -44790.3 -7.41253 
7582 2 23.347 3.984 6.4 6.02413 -127329 -127858 -80507.9 -7788.19 22689.7 -53768.9 -7.41454 
7583 2 24.072 2.765 6.4 6.03069 -130069 -150975 -107997 1252.73 -8853.28 -48148.2 -7.41287 
7584 2 23.379 1.528 6.4 6.02784 -132901 -148057 -92370.7 -23181.3 18150.4 -51733.6 -7.4137 
7585 2 24.104 0.309 6.4 6.02428 -175571 -143143 -97002.7 6321.66 -13964 -51157.6 -7.4139 
7713 2 26.12 8.932 6.4 6.02699 -130382 -153313 -123421 7333.85 1920.57 -39105.4 -7.41176 
7714 2 25.427 7.695 6.4 6.02359 -137246 -145691 -48544.3 -17846.5 29115.9 -56271.2 -7.41625 
7715 2 26.152 6.476 6.4 6.02464 -170935 -133449 -115682 17075.1 -3798.86 -43251 -7.41283 
7716 2 25.458 5.239 6.4 6.02464 -177668 -128115 -61768.3 -7525.68 25945.6 -55110.1 -7.4158 
7717 2 26.183 4.02 6.4 6.02359 -130236 -151494 -105638 3310.18 -9044.35 -46874.8 -7.4131 
7718 2 25.49 2.783 6.4 6.02699 -136641 -148690 -74851 -20441.6 22244 -53372.9 -7.41443 
7719 2 26.215 1.564 6.4 6.02271 -172408 -132782 -94233.6 19330.5 -14081.8 -50137.5 -7.41397 
7720 2 25.521 0.327 6.4 6.02451 -175913 -142150 -87685.5 -3060.47 17939.3 -51174.5 -7.41464 
7848 2 27.538 8.95 6.4 6.03041 -139121 -146883 -28098.1 -16985.2 30884.9 -55580.3 -7.41723 
7849 2 28.263 7.731 6.4 6.02413 -170229 -133342 -115428 17371.2 -4451.43 -40359.2 -7.41297 
7850 2 27.569 6.494 6.4 6.02464 -180658 -129302 -41864.3 -4518.78 28505.4 -54787.7 -7.41663 
7851 2 28.294 5.275 6.4 6.0236 -128939 -154957 -105161 8725.54 -9545.67 -44208.1 -7.41288 
7852 2 27.601 4.038 6.4 6.02335 -142849 -183817 -56564.7 313.503 25589.3 -53341.3 -7.41587 
7853 2 28.326 2.82 6.4 6.02292 -179924 -167911 -92367.4 35902.6 -14401.4 -47645.2 -7.4143 
7854 2 27.632 1.583 6.4 6.02221 -175366 -131672 -70360.8 -5443.74 22069.6 -51466.3 -7.41526 
7855 2 28.357 0.364 6.4 6.0251 -129161 -130546 -78810.3 14181.8 -18773.3 -50592.8 -7.41414 
2043 1 30.594 8.204 3 6.02699 -140744 -148979 -13290.8 5144.13 29890.7 -53688.2 -7.41779 
2044 1 29.869 6.985 3 6.02221 -169914 -135610 -109003 9328.54 -8862.94 -38875.5 -7.41306 
2045 1 30.563 5.748 3 6.02431 -137456 -166709 -29134.2 -29396.1 28253.7 -52822.2 -7.41739 
2046 1 29.838 4.53 3 6.0248 -138301 -187149 -96633 6684.65 -13674.6 -42344 -7.41367 
2047 1 30.531 3.293 3 6.02245 -134778 -152914 -45770.5 -2136.78 25719 -51529 -7.41613 
2048 1 29.806 2.074 3 6.02466 -175792 -134236 -82916.7 10109 -18165.9 -45455.2 -7.41432 
2049 1 30.5 0.837 3 6.02471 -130975 -146037 -62027 -19155.4 22781.6 -49504.2 -7.41542 
2178 1 32.012 8.186 3 6.02656 -130455 -147584 -110378 28562.9 -9538.35 -34067.8 -7.41316 
2179 1 32.705 6.949 3 6.02628 -148891 -163328 -10048.4 -6724.87 29953 -49389.4 -7.4184 
2180 1 31.981 5.73 3 6.02134 -139133 -165429 -97553.7 11496.5 -14239.5 -37564.8 -7.41395 
2181 1 32.674 4.493 3 6.02464 -141719 -146753 -26965.1 2260.31 28300.9 -48498.4 -7.41725 
2182 1 31.949 3.274 3 6.02359 -131569 -150439 -83045.5 21168.5 -18620.9 -40673.6 -7.41451 
2183 1 32.642 2.037 3 6.02279 -153891 -198413 -44804 -31534 26060.1 -46865 -7.41676 
2184 1 31.918 0.819 3 6.02009 -145985 -177388 -67379 -22977.5 -22330.2 -43397.4 -7.41548 
2313 1 34.848 8.15 3 6.0239 -140056 -146987 8745.37 1805.58 30931.1 -44776.5 -7.41934 
2314 1 34.123 6.931 3 6.02464 -135515 -146686 -99848 23246.5 -14846.1 -32205.2 -7.41328 
2315 1 34.816 5.694 3 6.02134 -148341 -163108 -9155.2 -7232.82 30183.3 -44135.5 -7.41858 
2316 1 34.092 4.475 3 6.02546 -143377 -164618 -84988.2 11561.8 -19089.4 -35153.4 -7.4143 
2317 1 34.785 3.238 3 6.02464 -140204 -146299 -27105.8 3918.92 28625.3 -43015.5 -7.41749 
2318 1 34.06 2.019 3 6.02471 -136164 -147297 -68419.7 22738.5 -22822.5 -37851.8 -7.41531 
2319 1 34.753 0.782 3 6.02331 -149170 -177228 -45901.9 -17095 26509.1 -41214.1 -7.41646 
2448 1 36.266 8.131 3 6.01969 -138954 -164890 -103429 5755.03 -15362.4 -26394.9 -7.4132 
2449 1 36.959 6.894 3 6.02431 -148538 -179364 8766.23 -14416.5 31319.1 -38671.7 -7.41966 
2450 1 36.234 5.676 3 6.02431 -141439 -180224 -88342.3 1625.04 -19534.7 -29225.8 -7.41436 
2451 1 36.927 4.439 3 6.01968 -147169 -165573 -10187.6 -12321.8 30514 -37953 -7.41828 
2452 1 36.203 3.22 3 6.02362 -146388 -164163 -70999.2 7678.67 -23193.3 -31571.3 -7.41483 
2453 1 36.896 1.983 3 6.02418 -139002 -146274 -29344.2 3859.29 29068.3 -36649 -7.41745 
2454 1 36.171 0.764 3 6.02468 -139500 -158357 -52857.8 25761.9 -26277.8 -33674.8 -7.41636 
7983 2 30.374 8.986 6.4 6.02221 -168619 -135530 -116778 21935.3 -5505.19 -36423.1 -7.41265 
7984 2 29.68 7.749 6.4 6.02292 -186562 -164071 -21512 16233.9 30281.7 -52752.5 -7.41818 
7985 2 30.405 6.531 6.4 6.02335 -137146 -187237 -105424 24619 -10366.3 -40248.3 -7.41319 
7986 2 29.712 5.294 6.4 6.0236 -135932 -151594 -36921.2 -14383 28324 -51721.6 -7.41661 
7987 2 30.437 4.075 6.4 6.02464 -175154 -133703 -92450.2 16427 -14994.9 -43886.8 -7.41385 
7988 2 29.743 2.838 6.4 6.02413 -177252 -130653 -52572.1 -8922.95 25452.8 -50156.3 -7.4164 
7989 2 30.468 1.619 6.4 6.02783 -133352 -152815 -77832.7 471.021 -19037.3 -46947.2 -7.41445 
7990 2 29.775 0.382 6.4 6.02835 -137967 -164255 -68200.6 -17633.6 22091.3 -48073.6 -7.41493 
8118 2 31.791 9.005 6.4 6.02221 -178568 -132017 -1136.25 2392.52 31275.5 -49248.5 -7.41897 
8119 2 32.516 7.786 6.4 6.02699 -132033 -151838 -107485 4341.65 -11220.4 -35466.9 -7.41264 
8120 2 31.823 6.549 6.4 6.02498 -137775 -149271 -17251.1 -19116.6 30145.1 -48483 -7.41794 
8121 2 32.548 5.33 6.4 6.02464 -125137 -133979 -94059.2 14775.3 -15650.4 -38969.3 -7.41365 
8122 2 31.854 4.093 6.4 6.02464 -178764 -131394 -33627.3 -6520.56 28153.9 -47323.9 -7.41731 
8123 2 32.579 2.874 6.4 6.02366 -133090 -151328 -78600.6 561.614 -19699.3 -42082.8 -7.41458 
8124 2 31.886 1.637 6.4 6.0265 -137482 -150561 -50956.3 -21583.1 25688.5 -45628.5 -7.41589 
8125 2 32.611 0.418 6.4 6.02352 -139812 -160859 -62029.4 -1987.56 -23091.5 -44733.1 -7.41548 
8253 2 34.627 9.041 6.4 6.02628 -139496 -163950 -110912 14462 -11855.2 -30127.3 -7.41291 
8254 2 33.934 7.804 6.4 6.02656 -139595 -145250 1971.64 -18011.1 31190.1 -44097.2 -7.4193 
8255 2 34.659 6.585 6.4 6.02417 -132868 -146311 -96800.8 1462.61 -16286.2 -33518.8 -7.41382 
8256 2 33.966 5.348 6.4 6.02217 -148312 -164382 -15281.7 -1885.59 30160.4 -43163.2 -7.41808 
8257 2 34.69 4.129 6.4 6.02107 -141161 -167380 -81377.5 18210.1 -20188.6 -36476.6 -7.41438 
8258 2 33.997 2.892 6.4 6.02434 -144159 -181606 -32865.2 -62.678 28290.9 -41811.9 -7.41758 
8259 2 34.722 1.674 6.4 6.02432 -144498 -180312 -63620.2 20555.1 -23680.9 -39051.3 -7.41577 
8260 2 34.029 0.437 6.4 6.01897 -141033 -144445 -50896.3 -14273 26003.6 -39965 -7.41585 
8388 2 36.045 9.059 6.4 6.02464 -144263 -144228 20529.3 -13279.5 31694.7 -38522.6 -7.41986 
8389 2 36.77 7.84 6.4 6.0239 -130857 -147318 -101225 5169 -16731.6 -27629.2 -7.41336 
8390 2 36.077 6.603 6.4 6.02311 -156297 -197544 2821.09 17446.1 31326.1 -37989 -7.4193 
8391 2 36.801 5.385 6.4 6.02311 -148973 -198567 -85004.4 33181.2 -20665.2 -30338 -7.4145 
8392 2 36.108 4.148 6.4 6.0239 -139399 -147662 -15167.4 -12713.7 30392.2 -36823.1 -7.41802 
8393 2 36.833 2.929 6.4 6.02464 -138445 -146458 -67487.1 108.417 -24086.4 -32845.7 -7.41505 
8394 2 36.14 1.692 6.4 6.02134 -146776 -164164 -34114.5 -6670.55 28596.5 -35486.1 -7.41717 
8395 2 36.864 0.473 6.4 6.02446 -147170 -176424 -48766.4 4826.14 -26905.2 -34973.5 -7.41656 
8524 2 38.188 7.859 6.4 6.01968 -148621 -163863 20333 2723.43 31977.8 -31690.7 -7.41995 
8526 2 38.219 5.403 6.4 6.02417 -141644 -143839 2050.34 -16194.1 31598.2 -30961.4 -7.41922 
8528 2 38.251 2.947 6.4 6.02546 -149151 -162673 -17812.5 -5091.65 30710.8 -30047 -7.41798 
8530 2 38.282 0.491 6.4 6.0246 -142624 -157353 -37000.5 -12020.8 28890.9 -28586.1 -7.41699 
2583 1 39.101 8.095 3 6.02546 -150605 -161243 24943.8 -4351.77 31922 -32371.2 -7.42034 
2584 1 38.377 6.876 3 6.02134 -141353 -161236 -92750 8655.16 -19790.5 -22936.1 -7.41404 
2585 1 39.07 5.639 3 6.02464 -143958 -144511 6567.45 5287.22 31710.4 -31934.4 -7.4191 
2586 1 38.345 4.42 3 6.0239 -134421 -146788 -75197.5 15477.3 -23499.5 -25092.6 -7.41476 
2587 1 39.038 3.183 3 6.0231 -155516 -197541 -13488.8 -28055.6 30934.9 -31034.5 -7.41841 
2588 1 38.314 1.965 3 6.02311 -153389 -196147 -56849.9 -14139.1 -26520.2 -27023.7 -7.41612 
2589 1 39.007 0.728 3 6.02182 -134393 -124921 -33457.1 10249.9 29393 -29935.3 -7.41685 
2718 1 40.519 8.077 3 6.02464 -134908 -142362 -98268.1 17697.5 -19696.3 -16969.8 -7.41342 
2719 1 41.212 6.84 3 6.02134 -150088 -160462 21426.6 -4286.05 32344 -25326.2 -7.42027 
2720 1 40.488 5.621 3 6.02546 -143274 -160827 -81003.9 6582.58 -23441 -18701.7 -7.41456 
2721 1 41.181 4.384 3 6.02464 -142351 -143500 1748.81 7564.39 32174.1 -24831.7 -7.41909 
2722 1 40.456 3.165 3 6.02417 -137003 -143188 -62260.3 18364.5 -26662.5 -20230.4 -7.41573 
2723 1 41.149 1.928 3 6.02362 -150070 -163123 -18822 -7806.09 31217.2 -23937.8 -7.41765 
2724 1 40.425 0.709 3 6.02337 -149862 -175050 -42365.8 6672.07 -29153.9 -21680.9 -7.41655 
2853 1 43.355 8.04 3 6.02431 -149763 -176689 35284.6 -11685 32413.5 -18130.7 -7.42113 
2854 1 42.63 6.822 3 6.02431 -140830 -176251 -87541.8 -4169.17 -23052.4 -12487.2 -7.41445 
2855 1 43.323 5.585 3 6.01968 -148831 -162859 15342 -8826.1 32852.8 -17958.2 -7.41969 
2856 1 42.599 4.366 3 6.02362 -146170 -160684 -69292.2 2429.25 -26416.5 -13697.3 -7.41496 
2857 1 43.292 3.129 3 6.02417 -141496 -142505 -4880.96 8253.4 32414.3 -17447.6 -7.41886 
2858 1 42.567 1.91 3 6.02467 -138451 -143725 -48799.2 16402.7 -29094.6 -14578.1 -7.4163 
2859 1 43.26 0.673 3 6.02547 -151088 -173459 -26246.8 -11592.7 31329.4 -16633.7 -7.41756 
2988 1 44.773 8.022 3 6.02134 -140371 -157655 -95122.9 2192.88 -22221.9 -6697.75 -7.41395 
2989 1 45.466 6.785 3 6.02464 -145115 -142128 27936.5 8526.62 33018.4 -10546.4 -7.42029 
2990 1 44.741 5.566 3 6.0239 -133727 -143520 -76834.9 9481.08 -25768.3 -7216.7 -7.41471 
2991 1 45.434 4.329 3 6.0231 -157029 -195078 7636.87 -23966.5 32996.5 -10338.4 -7.41958 
2992 1 44.71 3.111 3 6.02311 -152165 -194813 -56896.3 -19376.1 -28615.2 -7891.71 -7.41606 
2993 1 45.403 1.874 3 6.02389 -139260 -145648 -13571.7 4243.68 32436.5 -10114.7 -7.41809 
2994 1 44.678 0.655 3 6.02468 -142483 -155246 -36090.4 17351.3 -30850.1 -8409.14 -7.41706 
3123 1 47.608 7.986 3 6.02299 -151425 -159100 38195.2 -1226.06 32800.2 -2966.44 -7.42108 
3124 1 46.884 6.767 3 6.02546 -142222 -158239 -85461.1 28.8828 -24544.2 -1402.34 -7.41435 
3125 1 47.577 5.53 3 6.02464 -143357 -141725 18804.7 11296.5 33174.1 -3021.24 -7.42004 
3126 1 46.852 4.311 3 6.02417 -136255 -140849 -65837.6 12355.8 -27754.8 -1520.42 -7.41555 
3127 1 47.545 3.074 3 6.02362 -151879 -160443 -2350.65 -3141.92 33017.4 -3001.63 -7.4186 
3128 1 46.821 1.855 3 6.02019 -145878 -160541 -45520 -5518.51 -30247.5 -1593.08 -7.41646 
3129 1 47.514 0.618 3 6.02461 -143737 -154477 -23505.1 704.378 31996.5 -2895.66 -7.41775 
8523 2 38.881 9.096 6.4 6.02431 -138294 -177774 -105989 19423.3 -16914.9 -21682.2 -7.41343 
8525 2 38.912 6.64 6.4 6.02362 -143426 -162284 -90468.6 12067.7 -20839.8 -24045.2 -7.4138 
8527 2 38.944 4.184 6.4 6.02464 -136224 -144575 -72454 -2963.48 -24387.4 -26283.1 -7.41504 
8529 2 38.975 1.728 6.4 6.02287 -144778 -163414 -53651 8921.64 -27185.4 -28211.5 -7.41611 
8658 2 40.299 9.114 6.4 6.02134 -150287 -159939 36044.3 -1195.75 31910.2 -25005.4 -7.42108 
8659 2 41.023 7.895 6.4 6.02546 -140836 -160021 -96535.7 8367.42 -20623.5 -17948.7 -7.41373 
8660 2 40.33 6.658 6.4 6.02464 -143010 -143111 17922.1 -14899.1 32333 -24474.8 -7.41997 
8661 2 41.055 5.439 6.4 6.02417 -134675 -142639 -79045.4 -4384.54 -24226.2 -19751.5 -7.41482 
8662 2 40.362 4.202 6.4 6.02362 -151733 -162023 -1683.52 -1528.1 31925.4 -23740.5 -7.41863 
8663 2 41.086 2.983 6.4 6.01968 -143357 -163949 -59814.3 12723.4 -27251.7 -21390.2 -7.41558 
8664 2 40.393 1.746 6.4 6.02433 -148490 -177198 -21815.8 4286 30931.6 -22739.4 -7.41807 
8665 2 41.118 0.528 6.4 6.02372 -142641 -155480 -39536.4 25974.1 -29627.8 -22770.5 -7.41686 
8793 2 43.134 9.15 6.4 6.02134 -139060 -157874 -103643 6403.73 -19888.8 -12086.6 -7.4135 
8794 2 42.441 7.913 6.4 6.02464 -145042 -142520 32456.1 -11807 32443.7 -17478.3 -7.42054 
8795 2 43.166 6.694 6.4 6.0239 -132381 -143897 -86296.8 -1214.66 -23685.8 -13436.2 -7.41419 
8796 2 42.473 5.457 6.4 6.0231 -157185 -195565 12947.4 19608.7 32709.2 -16919.8 -7.41987 
8797 2 43.197 4.239 6.4 6.02311 -150813 -195221 -67526.6 27101.5 -26868.9 -14652.1 -7.41549 
8798 2 42.504 3.002 6.4 6.0239 -140206 -145371 -7097.22 -9759.24 32198.2 -16221.1 -7.41848 
8799 2 43.229 1.783 6.4 6.02467 -140010 -144170 -46945.2 -5570.96 -29491.5 -15764.7 -7.41615 
8800 2 42.536 0.546 6.4 6.02222 -151071 -173517 -28337 4089.47 31045.7 -15514 -7.41745 
8928 2 44.552 9.168 6.4 6.0243 -151454 -176521 45399.5 6936.21 32175.3 -10004 -7.42144 
8929 2 45.277 7.95 6.4 6.02261 -139547 -174987 -94326.1 12619.6 -22560.9 -7444.99 -7.41409 
8930 2 44.584 6.713 6.4 6.01968 -149273 -162131 26450.6 4870.2 32897.1 -9536.85 -7.4203 
8931 2 45.308 5.494 6.4 6.02362 -145031 -159543 -75976 5499.53 -26090.5 -8225.35 -7.41461 