ITEM: TIMESTEP
370
ITEM: NUMBER OF ATOMS
23816
ITEM: BOX BOUNDS pp pp pp
0.0000000000000000e+00 1.3400400500000001e+02
0.0000000000000000e+00 2.3210174599999999e+02
0.0000000000000000e+00 1.5000000000000000e+01
ITEM: ATOMS id type x y z c_csym c_2[1] c_2[2] c_2[3] c_2[4] c_2[5] c_2[6] c_3 
215 1 0.893612 8.57715 2.9824 6.0059 -202663 -151053 -8462.78 -52663 19332.5 -2437.99 -7.41324 
216 1 0.161377 7.36365 2.97534 6.00546 -162249 -178653 8912.03 -47659.8 42701.1 -5804.94 -7.4148 
217 1 0.845068 6.12157 2.96706 6.00002 -198989 -152023 -2913.59 -39652.3 30978.7 -4158.64 -7.41326 
218 1 0.111028 4.90906 2.95762 6.00913 -165270 -178935 2436.94 -29313.5 42140.9 -3948.77 -7.41367 
219 1 0.792828 3.66607 2.94905 6.0036 -189138 -157402 -2241.95 -18221.3 29512.2 -6500.42 -7.41299 
220 1 0.0568315 2.45459 2.94092 6.01721 -167731 -176486 -3140.49 -8955.07 25877.2 -1290.84 -7.41286 
221 1 0.737161 1.21088 2.93634 6.0186 -177185 -166433 -4723.15 -2662.71 12457.9 -7923.01 -7.41267 
222 1 5.60828e-06 -3.14393e-06 2.93392 6.02778 -171604 -171589 -5497.55 2.17288 3.1446 -2.00257 -7.41258 
405 1 2.31084 8.54571 2.98352 6.00033 -191703 -148334 9642.69 -44723.1 36036.8 -6584.72 -7.41518 
406 1 2.99411 7.30322 2.97831 6.00536 -227248 -123096 -1450 -42635.7 20658.6 -16014.2 -7.41373 
407 1 2.26224 6.08938 2.96937 5.99865 -193325 -152106 3579.8 -29607.6 42146.9 -12680.1 -7.41413 
408 1 2.944 4.84619 2.96331 6.00193 -215980 -130952 1394.37 -21943.7 27092.5 -23547.7 -7.41358 
409 1 2.20999 3.63351 2.95267 6.00217 -187332 -158868 -1150.48 -6741.64 33938.1 -16978.8 -7.41324 
410 1 2.89043 2.38976 2.94906 6.00955 -195751 -148794 -435.069 -1506.18 19942.9 -28839.3 -7.41321 
411 1 2.15436 1.1782 2.94091 6.01023 -176793 -167930 -3737.46 9268.98 12036.1 -20033.6 -7.41278 
594 1 5.14147 8.48726 2.98785 6.00091 -240225 -104485 2361.46 -39190.6 7458.41 -19258.7 -7.41451 
595 1 4.41117 7.2724 2.98173 5.99364 -216821 -130460 777.334 -23154.3 31571.6 -10408.5 -7.41424 
596 1 5.09305 6.02916 2.97849 6.0006 -234307 -109305 6251.41 -19459.8 17891 -29399.8 -7.41454 
597 1 4.36105 4.81518 2.96935 5.99464 -210667 -139455 -2164.78 1545.11 31224.7 -20188.6 -7.41351 
598 1 5.04179 3.57152 2.96714 6.00566 -215677 -127656 5685.02 4983.5 19829.5 -38603.9 -7.4142 
599 1 4.30753 2.35877 2.95758 5.9996 -193829 -155291 -2344.06 24270 17806.5 -28269.3 -7.41313 
600 1 4.98787 1.11511 2.95912 6.00341 -187568 -157787 1670.57 20455.6 10560.5 -41922.2 -7.41367 
783 1 6.55849 8.45778 2.99063 5.99871 -225077 -121722 -5488.68 -17430.8 16726.4 -2144.75 -7.41397 
784 1 7.24081 7.21471 2.98958 5.99708 -234862 -101572 12215.3 -17636.1 6994.65 -25522.4 -7.41558 
785 1 6.51004 5.99993 2.98367 5.99657 -224100 -128160 -7575.86 8279.95 20089.3 -12633.9 -7.41346 
786 1 7.19143 4.75656 2.98269 6.00103 -223992 -113782 12173.7 9337.05 14088 -34812.3 -7.41536 
787 1 6.45882 3.54271 2.97522 6.00018 -210504 -142652 -5689.25 36719.8 15010.8 -23010.8 -7.41326 
788 1 7.13969 2.29931 2.97612 6.00241 -202029 -140267 7689.65 32173.4 13410.2 -40848.2 -7.41474 
789 1 6.40501 1.0866 2.96931 6.00188 -185912 -164088 -879.647 53997.1 730.036 -31348 -7.41349 
972 1 9.38836 8.40157 2.9963 6.00051 -220567 -108416 19252.9 -20862.2 367.053 -19972 -7.41644 
973 1 8.65785 7.18665 2.99279 6.0044 -219858 -129236 -15279.8 7945.22 7248.35 -2405.34 -7.41315 
974 1 9.34023 5.94378 2.99247 6.00193 -216087 -114400 19035 6250.89 8165.78 -24350.1 -7.41639 
975 1 8.60846 4.7294 2.98785 6.00677 -214434 -138762 -12789.7 38980.9 6723.18 -10519.3 -7.4131 
976 1 9.29024 3.48644 2.98815 6.00382 -204458 -131165 14391.7 33884 12361.6 -29069 -7.41581 
977 1 8.55679 2.2729 2.98337 6.00981 -197711 -154726 -6170.71 64258.4 -68.9419 -18689.3 -7.41348 
978 1 9.23857 1.03018 2.98538 5.99623 -184164 -158488 5731.22 50790.4 10425.2 -29974.4 -7.41486 
11937 2 0.523593 8.60624 6.41732 6.001 -149298 -188368 12174.3 52307 37192.3 5203.65 -7.41536 
11938 2 0.572144 6.15208 6.43287 6.00562 -153968 -189345 5683.12 40658.3 43346.9 2126.3 -7.4142 
11939 2 0.624385 3.69807 6.45096 6.00958 -159385 -185324 -436.066 19597.3 34945.5 -2851.66 -7.41321 
11940 2 0.680071 1.24383 6.46367 6.01869 -166716 -176803 -4722.59 3331.42 13091.2 -6826.62 -7.41266 
11941 2 -5.15473e-06 1.74863e-06 6.4661 6.02779 -171637 -171666 -5499.9 31.6156 3.7308 -2.25587 -7.41258 
12123 2 1.94108 8.63783 6.41633 5.99655 -159261 -192962 -7576.8 45708.5 20985.3 -11077.4 -7.41346 
12124 2 2.67489 7.4253 6.42152 6.00057 -123621 -219929 6248.76 44321 34406.3 -795.87 -7.41454 
12125 2 1.98955 6.18438 6.43066 5.99463 -158686 -191525 -2164.59 31741.4 33097 -16947.8 -7.41351 
12126 2 2.72493 4.97268 6.4367 6.00184 -133137 -213792 1394.75 25861.7 33937.1 -11690.4 -7.41359 
12127 2 2.04172 3.73067 6.44735 6.00212 -160319 -186061 -1150.97 9050.27 31673 -20902.3 -7.41324 
12128 2 2.77849 2.51965 6.45097 6.00352 -149496 -196911 -2240.64 4744.6 20383.9 -22310.3 -7.41299 
12129 2 2.09733 1.27652 6.4591 6.01721 -166398 -177545 -3139.93 -8181.9 14056.9 -21768.2 -7.41286 
12130 2 2.83447 0.0655877 6.45694 6.00986 -171712 -173081 -3020.35 -5710.48 -1060.81 -28715 -7.4129 
12312 2 4.77946 8.69628 6.41215 6.00091 -104426 -240349 2358.42 39123.6 20406.8 3168.04 -7.41451 
12313 2 4.09251 7.45639 6.41827 5.99366 -132007 -215319 777.382 25840.1 24801.4 -22134.3 -7.41424 
12314 2 4.82772 6.2446 6.42169 6.00535 -112071 -238092 -1451.71 23809.5 24194.8 -9885.18 -7.41372 
12315 2 4.14244 5.00386 6.43064 5.99861 -136679 -208568 3582.6 3131.86 32054 -30160.2 -7.41413 
12316 2 4.8789 3.79264 6.43295 5.99999 -129495 -221650 -2912.86 457.268 19088.8 -24748.9 -7.41326 
12317 2 4.19586 2.5507 6.44239 6.0091 -150090 -194118 2440.09 -20660.5 24492.2 -34521 -7.41367 
12318 2 4.93283 1.3396 6.44091 5.99761 -156353 -192385 -1926.26 -17978.1 5286.87 -36800.2 -7.41326 
12319 2 4.25168 0.0965453 6.44735 6.00369 -171109 -174881 -408.369 -32122.9 4360.07 -33599.6 -7.41322 
12501 2 6.19722 8.72615 6.40991 5.9982 -117524 -223125 6221.36 18030.4 11890.5 -20023.5 -7.41507 
12502 2 6.93201 7.51404 6.41135 6.01253 -105781 -244888 -8069.25 19588.7 11909 -1286.8 -7.41356 
12503 2 6.24539 6.2741 6.41648 6.00035 -120392 -219678 9641.25 -3597.8 23723.8 -27914.7 -7.41518 
12504 2 6.98123 5.06247 6.41761 6.00591 -118387 -235333 -8462.7 -3923.77 11774.8 -15525.8 -7.41324 
12505 2 6.29642 3.82159 6.42467 6.00542 -133291 -207649 8914.14 -30936 26379.1 -34076.5 -7.4148 
12506 2 7.03292 2.61016 6.42391 5.99576 -141455 -211073 -5307.45 -27687.8 5289.94 -29739.8 -7.41338 
12507 2 6.35015 1.36814 6.43062 6.00257 -157080 -187645 4732.38 -51421 16348.4 -35532.1 -7.41411 
12508 2 7.08632 0.156353 6.42662 5.9939 -172066 -176041 749.95 -39540.2 -5172.07 -39300.9 -7.41396 
12690 2 9.03675 8.78226 6.40652 6.01357 -113405 -233072 -15983.7 19068.7 3678.87 6361.34 -7.41323 
12691 2 8.34973 7.5425 6.40817 6.00301 -119515 -213738 16421.6 -5874.37 11774 -21315.3 -7.41612 
12692 2 9.08464 6.33024 6.40831 6.01291 -121707 -229602 -16321.5 -3716.2 4084.39 -2731.34 -7.41299 
12693 2 8.39884 5.08988 6.41191 6.00293 -127229 -207058 15684.9 -33941 20304 -25074 -7.41593 
12694 2 9.13451 3.8779 6.41161 6.00212 -136768 -215555 -12304.4 -29932.3 1684.22 -14277.9 -7.41319 
12695 2 8.45036 2.63667 6.41619 5.99818 -145505 -193488 10562 -60118.1 20154.9 -26895.5 -7.4152 
12696 2 9.18619 1.42459 6.41442 5.99509 -159645 -189887 -4283.36 -48976.5 -4216.88 -24609.6 -7.41388 
12697 2 8.50355 0.182489 6.41828 6.00248 -172052 -174594 2503.42 -72618.7 11288 -24756.9 -7.41426 
1161 1 10.8055 8.37382 2.99827 6.01333 -202233 -138636 -23308.9 1337.92 -785.445 1939.55 -7.41284 
1162 1 11.4891 7.13158 2.99797 6.00865 -198828 -127078 26010 -2841.51 6883.01 -17917.9 -7.4171 
1163 1 10.7573 5.91725 2.99478 6.01494 -202164 -145323 -20902.6 31119.7 -1221.33 -494.078 -7.41281 
1164 1 11.4403 4.67488 2.9944 6.00653 -194146 -135200 21252.9 25850.8 12021.5 -17106.2 -7.41664 
1165 1 10.7074 3.46106 2.99156 6.01443 -196355 -153797 -13854.8 60351.6 -4007.91 -4790.45 -7.41322 
1166 1 11.3899 2.21869 2.99206 6.00107 -185411 -150165 12174.2 49093.7 13236.1 -16680.4 -7.41571 
1167 1 10.6558 1.00547 2.98999 6.0054 -181925 -164907 -3440.07 78054.7 -10171.3 -9680.04 -7.41406 
1350 1 13.6382 8.31912 3.00298 6.01329 -185487 -141493 32784.3 -11594.2 11474.8 -22195.9 -7.41755 
1351 1 12.9063 7.10499 2.99905 6.02074 -181868 -156324 -28762.7 20395.9 -3816.83 -3.98819 -7.41261 
1352 1 13.5905 5.86325 2.99787 6.00924 -180336 -148016 27637 15006.1 15608.7 -14443.1 -7.41718 
1353 1 12.8575 4.64956 2.99518 6.01758 -182312 -161260 -21921.3 48659.6 -6524.45 1508.63 -7.41292 
1354 1 13.541 3.40766 2.99451 6.00223 -177740 -153710 18638.1 40357.3 17111 -9237.48 -7.41634 
1355 1 12.8071 2.19433 2.99334 6.00766 -179831 -163970 -11005.9 71290.7 -10639.9 672.608 -7.41368 
1356 1 13.4903 0.952367 2.9939 6.00071 -174381 -161385 6268.42 56011.3 14606.1 -5610.95 -7.4152 
1539 1 15.0556 8.2926 3.00476 6.01885 -167043 -161489 -36327.5 15862.3 209.864 -9178.78 -7.41269 
1540 1 15.7407 7.0514 3.003 6.00628 -175049 -158360 34120.6 9831.82 22934.1 -23440 -7.41761 
1541 1 15.0078 5.83777 2.9983 6.01725 -165684 -169911 -29760.4 40039.4 -4249.9 -3310.39 -7.4128 
1542 1 15.6922 4.59635 2.9967 5.99959 -170426 -162755 24584.3 34349.9 24026.3 -12973.8 -7.41681 
1543 1 14.9583 3.38313 2.99437 6.00809 -168634 -169658 -19043.3 63024.3 -9233.41 686.583 -7.41334 
1544 1 15.642 2.14143 2.99409 5.99784 -170330 -162802 12353.6 53558.3 20823 -5738.33 -7.41575 
1545 1 14.9075 0.928367 2.99415 6.00268 -171783 -164684 -5259.48 77273.4 -14675.5 1453.1 -7.41429 
1727 1 17.2045 9.48145 3.01444 6.00491 -168477 -152599 -44670.6 22399.1 7713.55 -21557.2 -7.41298 
1728 1 17.8902 8.24057 3.01289 6.00142 -185710 -155058 42811.7 15140.3 30711.8 -38655.3 -7.41825 
1729 1 17.1581 7.02645 3.0052 6.01061 -158716 -169687 -37631.2 42390.7 2451.38 -15481.2 -7.41294 
1730 1 17.8432 5.78542 3.00315 5.99331 -173299 -166135 31643 37893 32985.2 -25922 -7.41736 
1731 1 17.1095 4.57205 2.99764 6.00561 -158502 -174291 -27077.5 63359 -4122.23 -9058.59 -7.41322 
1732 1 17.7938 3.33067 2.99668 5.99043 -168797 -167429 18465.9 58533.8 29756.9 -15293.1 -7.41629 
1733 1 17.0592 2.11764 2.99451 5.99919 -164305 -168818 -13437 79824.5 -11707.3 -4796.2 -7.4139 
1734 1 17.7427 0.875891 2.99568 5.99327 -169128 -162590 4347.83 70839.1 21207 -8609.34 -7.41517 
12879 2 10.4544 8.8105 6.40442 6.00654 -131316 -197755 23011 -2573 3533.5 -19223.4 -7.41678 
12880 2 11.1882 7.59752 6.40361 6.01964 -134218 -209388 -24388.7 2098.02 1161.93 4354.15 -7.41272 
12881 2 10.5022 6.35715 6.40484 6.00695 -135521 -192489 22638.1 -28938.5 12440.9 -17245.7 -7.41679 
12882 2 11.2368 5.14445 6.40451 6.01076 -143431 -203040 -20370.1 -24238 -835.536 -977.433 -7.41288 
12883 2 10.552 3.9035 6.40694 5.99885 -145318 -186180 17245.5 -56852.3 17894 -15811.9 -7.41621 
12884 2 11.2871 2.69095 6.4066 6.00217 -156664 -190072 -11740.4 -47416.2 -4806.61 -8039.36 -7.41352 
12885 2 10.6035 1.44937 6.40928 5.99789 -162798 -176680 7838.19 -76385.2 16511.9 -13571.4 -7.41518 
12886 2 11.3385 0.23663 6.40821 5.99922 -172168 -170497 129.437 -57419.3 -9981.69 -13922.4 -7.41455 
13068 2 13.2917 8.86518 6.39951 6.0213 -144280 -189829 -32094.1 9728.91 4620.64 823.453 -7.41264 
13069 2 12.6057 7.62464 6.40043 6.01195 -151544 -174850 29315 -20693.1 9511.23 -18258.9 -7.41734 
13070 2 13.3391 6.41121 6.39967 6.01851 -153766 -182775 -28206.7 -15153 1133.45 2269.75 -7.41267 
13071 2 12.6542 5.17015 6.40131 6.0047 -156104 -169914 24454.2 -47218.9 15519.4 -11387.2 -7.41693 
13072 2 13.3884 3.957 6.40157 6.00984 -161479 -177592 -19796.9 -39811.3 -3342.53 934.383 -7.41314 
13073 2 12.7044 2.71551 6.4037 5.99979 -163544 -167806 14822.2 -69882.6 17881.8 -6056.6 -7.416 
13074 2 13.439 1.50252 6.40433 6.00366 -168710 -170271 -7544.64 -55654.5 -9155.8 -2189.05 -7.41404 
13075 2 12.7557 0.260692 6.40605 6.0012 -172900 -166048 2132.88 -79483.8 15463.2 -2042.51 -7.4148 
13257 2 14.7091 8.89231 6.39458 6.0116 -163209 -167767 36103.3 -16331.8 14182.2 -28835.6 -7.41777 
13258 2 15.4415 7.67828 6.39345 6.0185 -156575 -169526 -35716.6 -9354.95 7345.04 -5391.53 -7.41275 
13259 2 14.7565 6.43718 6.39586 6.01101 -169191 -156403 31644.6 -39692.5 18111.7 -17636.7 -7.41741 
13260 2 15.4897 5.22344 6.39619 6.01305 -165360 -162917 -27540.5 -33634.5 1813.04 -1577.64 -7.41299 
13261 2 14.8057 3.98185 6.39896 6.0032 -171637 -154422 22478.9 -62331.6 20274.8 -8055.06 -7.41661 
13262 2 15.5397 2.76847 6.40043 6.00573 -169667 -161514 -15731.9 -53087.7 -5577 -331.224 -7.41363 
13263 2 14.8563 1.52663 6.403 6.00074 -172673 -158519 9460.67 -76811.6 19024.9 -1484.77 -7.41549 
13264 2 15.5908 0.313507 6.40448 6.00119 -170996 -162058 -1689.19 -60723.4 -13908.2 -1702.04 -7.41461 
13446 2 17.5448 8.94437 6.38392 6.00421 -144380 -173500 -44027.6 -11780.1 14173.8 -17877.6 -7.41303 
13447 2 16.8589 7.70376 6.38783 6.01081 -173292 -156468 39444 -40740.6 26409.1 -31229.8 -7.41793 
13448 2 17.5914 6.48956 6.38824 6.00621 -159467 -158635 -35233.1 -34860.4 9020.55 -12405.3 -7.41313 
13449 2 16.907 5.24813 6.3923 6.00492 -177918 -147231 30300.4 -62006.9 26904.5 -19440.5 -7.41714 
13450 2 17.6404 4.03434 6.3941 6.00263 -167497 -154030 -23597.4 -56477.3 896.487 -8049.2 -7.41351 
13451 2 16.9569 2.79247 6.39821 5.99979 -176548 -149120 17424.1 -79075.9 24466.6 -9939.39 -7.41608 
13452 2 17.6912 1.57912 6.40041 5.99727 -169879 -156675 -10013.4 -70046.8 -9915.84 -6391.18 -7.4142 
13453 2 17.008 0.337167 6.40357 5.99754 -171402 -158279 2097.93 -85920.7 19038.3 -4812.61 -7.41493 
13635 2 18.9622 8.96811 6.37691 6.00641 -161554 -173869 49388.3 -51688.2 36748.1 -44796.5 -7.41876 
13637 2 19.0087 6.51296 6.38289 6.00057 -173514 -153755 38997.6 -71926.2 37039.7 -34531.9 -7.41784 
13639 2 19.0576 4.05732 6.39025 5.99511 -176657 -146753 25784.1 -90884.5 33378.9 -24395.8 -7.41672 
13641 2 19.1084 1.60177 6.3977 5.99033 -173152 -151460 10221.7 -102903 26146.7 -17127.4 -7.41556 
1916 1 20.038 9.43269 3.02739 5.99733 -211462 -134845 55036.1 30382.5 35519.5 -52057.9 -7.41928 
1917 1 19.3076 8.21737 3.01769 5.9976 -168496 -154775 -46848.4 56591.1 9749.28 -27243.8 -7.41318 
1918 1 19.9931 6.97656 3.01609 5.98598 -190533 -155245 41976.2 52008.2 40843.8 -40984.1 -7.41823 
1919 1 19.2605 5.76244 3.00695 5.99885 -159440 -168987 -35374.2 76041.5 3202.47 -22438.3 -7.41332 
1920 1 19.9452 4.52134 3.0056 5.97997 -177144 -164491 26652.4 74047.8 39999.5 -29937.5 -7.41702 
1921 1 19.2111 3.30797 2.99943 5.99209 -159778 -170179 -21722.2 93725.9 -6016.8 -17296.8 -7.41374 
1922 1 19.8948 2.06644 3.00004 5.98039 -170924 -164065 11099 90433.5 31526.6 -21217.3 -7.41583 
1923 1 19.16 0.853344 2.99796 5.98898 -166108 -162048 -6195.93 103979 -16470.7 -14791.6 -7.41451 
2105 1 21.4552 9.41223 3.03407 5.98768 -193457 -126677 -58899.2 78120.8 13810.5 -33170.7 -7.41324 
2106 1 22.141 8.17151 3.03399 5.98093 -218667 -129629 55703.2 72922.9 44913.6 -51561.6 -7.41945 
2107 1 21.4103 6.956 3.02277 5.98982 -175291 -150319 -45276.1 97996.2 9190.12 -32471.1 -7.41343 
2108 1 22.0954 5.7151 3.02161 5.96993 -196927 -148701 38210.9 97121.6 48561.1 -43129.6 -7.41809 
2109 1 21.3624 4.50081 3.01156 5.98382 -165977 -162261 -30344.6 117842 546.72 -29657.5 -7.41373 
2110 1 22.0465 3.25955 3.01137 5.96573 -181248 -157780 20185.9 118432 43141.3 -34915.7 -7.41671 
2111 1 21.3121 2.046 3.00503 5.97762 -164829 -162133 -14601.9 132323 -11585.3 -26896.1 -7.41428 
2112 1 21.9954 0.804377 3.00733 5.96537 -170735 -158761 3564.63 129747 29286.2 -29055.5 -7.41553 
2294 1 24.2862 9.37134 3.05322 5.97954 -250753 -95771.5 71168.9 95465.5 44618.3 -55186.8 -7.42084 
2295 1 23.5581 8.15402 3.0422 5.98575 -202158 -121303 -57939.7 122800 11351.8 -36081.2 -7.41333 
2296 1 24.2435 6.9133 3.042 5.96376 -223977 -121548 52342.1 122149 52987 -50373.7 -7.41943 
2297 1 23.5125 5.69755 3.02992 5.97825 -183974 -143249 -40621.3 146300 5353.45 -36937.5 -7.41368 
2298 1 24.197 4.45656 3.02908 5.95338 -200458 -140511 31984.8 149130 53036.7 -44788.8 -7.41787 
2299 1 23.4637 3.24203 3.01896 5.96738 -172790 -154013 -23424.1 166572 -5939.86 -36073.5 -7.41413 
2300 1 24.1473 2.00073 3.01962 5.95042 -181191 -151564 12808.4 168293 42184 -39554.3 -7.41643 
2301 1 23.4126 0.786886 3.01377 5.96173 -167610 -155494 -6387.68 176897 -20755.9 -35808.6 -7.41485 
2483 1 25.7031 9.35701 3.0615 5.98111 -232895 -88339 -72637 144873 9689.77 -34439.9 -7.41299 
2484 1 26.3891 8.11649 3.0629 5.96221 -252095 -89533.1 67428.4 143982 52784.4 -51045.5 -7.42084 
2485 1 25.6605 6.89898 3.05093 5.97661 -209500 -116761 -53382.3 172199 6981.16 -38175.3 -7.41346 
2486 1 26.3455 5.65831 3.04994 5.9461 -224317 -115110 45513.2 176169 58738.7 -48362.5 -7.41921 
2487 1 25.614 4.44235 3.03783 5.96127 -190116 -137439 -33813.8 199256 -1230.95 -39782.3 -7.41394 
2488 1 26.2982 3.20143 3.03673 5.9372 -198424 -135444 23935.3 204149 53581.2 -45228.7 -7.41753 
2489 1 25.5645 1.98665 3.02742 5.95004 -175678 -148526 -15388.2 218046 -15320.4 -40374.2 -7.41457 
2490 1 26.2481 0.74559 3.0281 5.93304 -174939 -150626 4610.06 218142 37456.9 -42410 -7.4161 
2672 1 28.5321 9.32446 3.0816 5.96295 -276433 -59224.8 82034.3 159982 49198.7 -47248.1 -7.42215 
2673 1 27.8059 8.10519 3.07113 5.9783 -236169 -88459.3 -67725 191255 5621.05 -35271.8 -7.41307 
2674 1 28.4917 6.86489 3.0706 5.94424 -247869 -87441.4 59648.9 195510 59675.8 -46374.7 -7.42057 
2675 1 27.7625 5.64731 3.05828 5.95992 -212371 -115674 -46219.8 224159 1485.93 -38580.5 -7.41363 
2676 1 28.4473 4.40683 3.05586 5.92915 -218973 -113515 36298.5 231228 61075.7 -45284.1 -7.41875 
2677 1 27.7152 3.19076 3.04451 5.94357 -191000 -135324 -25682.5 252286 -9576.69 -40268.8 -7.41425 
2678 1 28.3994 1.95014 3.04257 5.92287 -190861 -136290 14691.4 256356 49970.4 -43955 -7.41703 
2679 1 27.6653 0.735126 3.03467 5.93274 -172549 -147837 -6642.11 265763 -26200.3 -41786 -7.41513 
13636 2 19.6944 7.75363 6.37794 5.99009 -140191 -171085 -44442.4 -44832.9 14695.9 -24367.9 -7.41337 
13638 2 19.7418 5.29883 6.38492 5.98855 -155375 -157258 -31701.3 -68264.4 7974.17 -20213 -7.41361 
13640 2 19.7917 2.84366 6.39274 5.98553 -163930 -154161 -17980.9 -87246.6 -3415.56 -16936.5 -7.41407 
13642 2 19.8431 0.388514 6.39891 5.98244 -168023 -158468 -3747.97 -95519.6 -17866.3 -16783.6 -7.41481 
13824 2 21.7997 9.01386 6.36752 5.97243 -110172 -198159 -56605.3 -60964 16347.4 -31756.1 -7.41341 
13825 2 21.1119 7.77454 6.37227 5.98974 -155401 -175069 49715.2 -89318.6 46879.4 -46663.9 -7.41887 
13826 2 21.8447 6.56019 6.37477 5.97076 -132872 -174692 -41655.7 -86075.6 12605.2 -30642 -7.41372 
13827 2 21.1591 5.31961 6.38011 5.98473 -166562 -156562 35168.1 -110783 44151 -38916.1 -7.4176 
13828 2 21.8929 4.10565 6.38272 5.96846 -149679 -161467 -26368 -110577 3299.45 -28345.1 -7.4141 
13829 2 21.2089 2.86425 6.38843 5.97942 -169804 -151174 19021.8 -128386 36279.5 -31481.3 -7.4163 
13830 2 21.9436 1.6507 6.38986 5.96607 -161479 -157677 -11567.5 -126903 -11871.5 -27052.6 -7.41466 
13831 2 21.2604 0.408977 6.39457 5.97641 -167830 -155465 2046.69 -136420 24720.3 -27066.4 -7.41515 
14013 2 23.2174 9.03157 6.36304 5.97557 -126805 -206017 62679.6 -109088 52739.1 -52515.4 -7.42017 
14014 2 23.9502 7.81703 6.36642 5.95443 -103916 -202771 -54326.4 -105510 13116 -35782 -7.41358 
14015 2 23.2622 6.57789 6.37041 5.97056 -146045 -178039 46279.5 -133441 53249.2 -48665.8 -7.41879 
14016 2 23.9959 5.36366 6.3732 5.95122 -127695 -179789 -36562.6 -134923 7709 -36261.8 -7.41404 
14017 2 23.3103 4.12328 6.37806 5.96558 -157981 -160598 28845.2 -157229 47314.5 -43200.9 -7.41729 
14018 2 24.0449 2.90939 6.37966 5.9485 -147429 -165366 -19986.8 -160123 -5183.48 -35686.7 -7.41457 
14019 2 23.3609 1.66823 6.38449 5.96163 -164177 -154890 11080.6 -173466 35647.9 -38207.8 -7.41592 
14020 2 24.0959 0.45455 6.38313 5.9476 -164540 -157913 -4164.01 -172621 -23870.8 -36315.7 -7.41532 
14202 2 26.0584 9.06885 6.36166 5.94218 -73731.1 -233715 -68673.1 -122859 10040.6 -35539 -7.41317 
14203 2 25.3679 7.83134 6.36368 5.95567 -119061 -205574 59021.6 -153399 57801.2 -52220.2 -7.42016 
14204 2 26.1013 6.61684 6.36677 5.9375 -102059 -205041 -48964.5 -155646 8418.97 -38941.6 -7.41377 
14205 2 25.4134 5.37786 6.36959 5.95056 -138483 -178731 39993.6 -182900 56075.3 -49595.9 -7.41853 
14206 2 26.1478 4.16363 6.37131 5.93334 -128086 -181705 -29973.2 -188932 29.4203 -40192.9 -7.41436 
14207 2 25.4623 2.92347 6.37479 5.94586 -153052 -162065 20963.8 -208421 46925.5 -45491.4 -7.4169 
14208 2 26.1973 1.70943 6.37403 5.9312 -152051 -164407 -12690.7 -212436 -16803.9 -40813.2 -7.41507 
14209 2 25.5132 0.468572 6.37676 5.94497 -164432 -154086 2547.21 -221607 32066.6 -41989.7 -7.41554 
14391 2 27.4763 9.07997 6.36089 5.94318 -90866.9 -232722 72350.3 -167841 57333.4 -50852.7 -7.42151 
14392 2 28.2093 7.86515 6.36443 5.92859 -77092.1 -230751 -62533.5 -170295 5820.11 -37157.2 -7.4133 
14393 2 27.519 6.62769 6.36491 5.9367 -115348 -200844 52270 -201090 60316.9 -50685.2 -7.41989 
14394 2 28.2529 5.41309 6.36669 5.92287 -106821 -202537 -41581.4 -209038 2265.57 -40210.8 -7.41399 
14395 2 27.5653 4.17422 6.368 5.93124 -136460 -175517 31834.8 -234870 55881.1 -48115.3 -7.41809 
14396 2 28.3 2.95979 6.36772 5.91871 -135298 -177802 -22383.4 -243195 -10060.8 -41610.6 -7.41471 
14397 2 27.6146 1.71987 6.36905 5.92894 -155079 -158965 12186.4 -259198 43449.1 -44534.4 -7.41642 
14398 2 28.3496 0.50537 6.36542 5.91841 -163261 -156687 -4415.32 -261125 -30016.5 -42653.6 -7.41566 
2861 1 29.9488 9.31575 3.08863 5.97548 -259091 -62580 -81880.4 202407 2295.28 -30602.1 -7.41258 
2862 1 30.6356 8.07587 3.08906 5.94656 -267591 -62387.3 73461.8 206154 56972.3 -41310.6 -7.42182 
2863 1 29.9085 6.85667 3.07762 5.96202 -234448 -93123 -59775.3 238677 1878.1 -34518 -7.41323 
2864 1 30.5944 5.61669 3.07458 5.92695 -238689 -90743.6 49266.8 246876 63992.7 -41248.5 -7.42 
2865 1 29.8643 4.39916 3.06253 5.94246 -209928 -118694 -37375.7 274661 -4748.45 -36872.9 -7.41388 
2866 1 30.5493 3.15905 3.05845 5.91453 -208860 -117728 25842.1 282211 59320.2 -41291.4 -7.41808 
2867 1 29.8165 1.94291 3.04843 5.92632 -186459 -137252 -16693.1 299451 -19037.9 -38404.8 -7.41467 
2868 1 30.5012 0.702827 3.04547 5.91097 -178978 -143177 4875.24 299631 42861.5 -41053.4 -7.41639 
3050 1 32.7771 9.29053 3.10468 5.94857 -282074 -42424.7 86206.8 209470 52244.9 -35469.5 -7.42289 
3051 1 32.0523 8.06989 3.09459 5.96295 -252672 -72710.7 -73176.5 243623 242.582 -29495.9 -7.4128 
3052 1 32.7392 6.83044 3.09162 5.92935 -255028 -70473.1 62205.5 251940 63128.4 -35468.9 -7.42118 
3053 1 32.0112 5.61146 3.07973 5.94501 -227997 -101373 -49827.3 284362 -1857.14 -31964.4 -7.41348 
3054 1 32.6972 4.37189 3.0743 5.91194 -226135 -98715.8 37703 294331 64690.5 -36083.3 -7.41918 
3055 1 31.9662 3.15449 3.06306 5.92547 -202687 -124488 -27544 319161 -12008.2 -33424.9 -7.41422 
3056 1 32.6516 1.91487 3.05771 5.90356 -196130 -126673 15116.9 324132 53651.1 -36834 -7.41725 
3057 1 31.9183 0.698696 3.04927 5.91109 -177566 -142340 -7011.78 335686 -29215.1 -35005.6 -7.41525 
3239 1 34.1937 9.28628 3.10893 5.9638 -265777 -56021.4 -85542.1 241215 -2704.69 -24673.9 -7.41237 
3240 1 34.8819 8.04737 3.10652 5.93469 -266885 -54485 74515.8 248777 59782.3 -29712.2 -7.42223 
3241 1 34.156 6.82707 3.0953 5.94978 -242794 -85645.4 -62254.5 283440 -1235 -26851.2 -7.41309 
3242 1 34.8432 5.58806 3.08931 5.91412 -240462 -81930.5 49768.6 294659 66374.7 -30155.8 -7.42029 
3243 1 34.1141 4.36939 3.07756 5.92852 -218279 -111314 -38852.8 325083 -6561.22 -28130 -7.4138 
3244 1 34.8004 3.13027 3.07052 5.9005 -212102 -109955 26063.9 334143 61428.3 -31320.7 -7.41822 
3245 1 34.0686 1.91303 3.06051 5.91047 -192768 -131771 -17207.7 353782 -20632.7 -29166.3 -7.41469 
3246 1 34.7547 0.673991 3.05459 5.89661 -182326 -138659 4747.91 353695 45174.2 -32289 -7.4164 
3428 1 37.0227 9.2668 3.11923 5.94016 -274598 -43153.2 85810.8 240238 55102.4 -24789.4 -7.42314 
3429 1 36.2986 8.04535 3.10897 5.95224 -253086 -72519.4 -74107.7 274919 -2489.97 -22240.8 -7.41272 
3430 1 36.9871 6.80691 3.10303 5.9195 -250893 -68587.1 61560.8 286270 65190.2 -24700.2 -7.42133 
3431 1 36.26 5.58705 3.09133 5.93423 -230837 -99119.1 -50255.3 319907 -3454.95 -23234 -7.41342 
3432 1 36.9474 4.34846 3.08333 5.90204 -225500 -95050.1 37320.5 331777 65936.8 -25694.8 -7.41925 
3433 1 36.2173 3.13011 3.07232 5.91385 -206895 -121174 -27628.7 358126 -13066.4 -23866.2 -7.41421 
3434 1 36.9041 1.89146 3.0647 5.89336 -198105 -122924 14997.1 363613 54737.3 -27117.5 -7.41723 
3435 1 36.1718 0.674328 3.05618 5.89866 -181539 -139435 -6710.96 376230 -30320.5 -25014.9 -7.41531 
14580 2 30.3199 9.10912 6.36563 5.92404 -55515.2 -252162 -75788.6 -178465 1430.52 -32809.5 -7.41273 
14581 2 29.6272 7.8731 6.3642 5.92628 -92611.2 -221833 64939.6 -210822 59916.4 -48093.2 -7.42122 
14582 2 30.3605 6.65807 6.36601 5.91732 -86643.2 -222704 -54033.1 -219619 1443.56 -36983.2 -7.4135 
14583 2 29.6706 5.42057 6.3651 5.91979 -117770 -191748 43550 -249903 60779.1 -46956.5 -7.41939 
14584 2 30.4048 4.20572 6.36506 5.91129 -117552 -194533 -33066.2 -261600 -5400.89 -39212.2 -7.41426 
14585 2 29.7175 2.96693 6.36462 5.91554 -141248 -168548 22663.2 -284620 52929.2 -43879.2 -7.41748 
14586 2 30.4523 1.75208 6.36202 5.90828 -148416 -168151 -14031.3 -291939 -21724.1 -40371.4 -7.41514 
14587 2 29.7668 0.512406 6.3608 5.91706 -163946 -151915 2827.77 -303422 37288.9 -40586.1 -7.41585 
14769 2 31.7379 9.11477 6.36648 5.9203 -73055.8 -239049 77158.9 -213453 56334.3 -43710.6 -7.42239 
14770 2 32.4704 7.89926 6.36834 5.91561 -69638.5 -238976 -66403.7 -222035 -1424.5 -32196.3 -7.41298 
14771 2 31.7782 6.66306 6.36569 5.91175 -99940 -207304 55609 -254331 61516.3 -43528.7 -7.42066 
14772 2 32.5117 5.44771 6.36563 5.90841 -101265 -210425 -44324.4 -267963 -3505.26 -34901.3 -7.41377 
14773 2 31.8224 4.21013 6.36352 5.90613 -126055 -180087 33837.5 -296250 59146.8 -41152.7 -7.41866 
14774 2 32.5566 2.99486 6.36156 5.90299 -132914 -182063 -23999.4 -308408 -14523.9 -36331.8 -7.4146 
14775 2 31.8696 1.75616 6.35927 5.90474 -151959 -159171 13036 -327039 47296.2 -37754.2 -7.41676 
14776 2 32.604 0.540683 6.35442 5.90226 -165073 -154341 -4976.9 -329857 -33825.3 -36983.6 -7.4157 
14958 2 34.5825 9.13744 6.37246 5.91654 -56156.5 -250330 -78051.1 -218485 -5151.83 -27114.4 -7.41249 
14959 2 33.8883 7.90237 6.36867 5.90805 -85050.7 -220099 67415.2 -250809 59170.9 -39196.6 -7.42181 
14960 2 34.6208 6.68649 6.36846 5.90826 -87252.4 -223250 -55748.2 -264945 -3979.68 -29954.2 -7.41329 
14961 2 33.9294 5.45005 6.36502 5.90038 -112124 -191572 45305.1 -296040 61774.1 -37446.6 -7.41986 
14962 2 34.6629 4.23431 6.3633 5.90093 -118697 -195684 -34248.7 -311712 -9615.1 -31508.4 -7.41409 
14963 2 33.9741 2.99663 6.3601 5.89669 -139034 -167970 23772.4 -336314 55074.4 -34267.6 -7.4178 
14964 2 34.7081 1.78084 6.35633 5.89741 -150707 -167267 -14646.9 -345401 -24790.5 -32320.6 -7.41504 
14965 2 34.0212 0.542264 6.35221 5.89926 -166371 -149157 3203.71 -358334 39405.5 -31115 -7.416 
15147 2 36.0004 9.13923 6.37295 5.90811 -73441.2 -229882 78524.8 -242150 55084.9 -34833.9 -7.4228 
15148 2 36.7319 7.92278 6.3726 5.90951 -76101.8 -232200 -66950.5 -255473 -5981.62 -25190.7 -7.41286 
15149 2 36.0385 6.68737 6.3682 5.8981 -100175 -201240 56649 -287277 61357.4 -33524.5 -7.42099 
15150 2 36.771 5.4711 6.36641 5.90075 -106386 -206663 -44758.6 -304739 -7218.47 -26703.1 -7.41364 
15151 2 36.0804 4.23441 6.36247 5.89288 -126994 -176569 34690.8 -333231 59955.3 -30739.9 -7.41891 
15152 2 36.8137 3.01822 6.35932 5.89478 -137252 -179743 -24265.2 -347580 -17270 -27587.2 -7.41448 
15153 2 36.1253 1.78049 6.35506 5.89164 -154420 -156549 13676 -366910 48519.4 -27460.6 -7.4169 
15154 2 36.8588 0.564068 6.3496 5.89198 -168385 -151521 -5070.96 -369971 -35542.1 -27858.6 -7.41562 
15337 2 38.1497 7.9227 6.37229 5.89956 -90852.5 -208724 67576.1 -273273 58813.9 -29808.9 -7.42202 
15339 2 38.1886 5.47009 6.36573 5.89092 -116680 -184011 45533.6 -321142 61927.7 -27445 -7.42002 
15341 2 38.2311 3.01653 6.35844 5.88819 -143119 -163508 24158.9 -363351 55585 -24316.1 -7.41791 
15343 2 38.2759 0.562115 6.34865 5.89068 -169906 -146394 3696.74 -386248 40099.7 -21499.1 -7.41607 
3617 1 38.4393 9.26573 3.12066 5.95575 -259304 -62327.1 -85075.2 261805 -4919.24 -18389.7 -7.41238 
3618 1 39.1291 8.02785 3.11523 5.92684 -257867 -59041.9 72746.6 272321 62043.2 -20200.8 -7.42228 
3619 1 38.4038 6.80691 3.10399 5.9407 -239631 -88783.2 -61468.1 306867 -2633.74 -19033.3 -7.41309 
3620 1 39.0925 5.56887 3.09568 5.90687 -235549 -83093.3 48532.1 320290 67434.8 -20675.3 -7.42027 
3621 1 38.3642 4.34945 3.0842 5.91988 -218424 -111431 -38160.9 351076 -7551.48 -19368.5 -7.41381 
3622 1 39.0519 3.11124 3.07542 5.8938 -211206 -108693 25536 361160 61809.2 -22096.2 -7.41817 
3623 1 38.3211 1.89317 3.06563 5.90195 -195274 -130062 -16641.3 381378 -21436.2 -19910.8 -7.41472 
3624 1 39.0084 0.655011 3.05831 5.89014 -184682 -136172 4708.76 381498 45830.6 -23382.3 -7.41633 
3806 1 41.2694 9.25035 3.12571 5.93498 -261492 -52802 83153.5 255460 57719.3 -16704.8 -7.42312 
3807 1 40.5458 8.0285 3.11526 5.94575 -244938 -80447.1 -72248.6 289257 -3566.01 -15591.6 -7.41279 
3808 1 41.2357 6.79099 3.10714 5.91398 -242243 -74379.5 59450.1 302906 66474.4 -16559.7 -7.42126 
3809 1 40.5093 5.57059 3.09568 5.92655 -226708 -103067 -48707.3 335899 -4400.14 -15673.6 -7.41348 
3810 1 41.1981 4.33285 3.0863 5.89751 -221298 -97137.1 36148.9 349179 66102.9 -17613.5 -7.41916 
3811 1 40.4688 3.11385 3.07567 5.90778 -206482 -121864 -26578.9 375226 -13932 -15824.6 -7.41425 
3812 1 41.1568 1.87599 3.06716 5.88953 -198111 -122204 14658.9 381349 54705 -19139.6 -7.41717 
3813 1 40.4255 0.658107 3.05886 5.89331 -184093 -137689 -6093.78 393928 -30938.8 -16664.6 -7.41536 
3995 1 42.6861 9.25138 3.12488 5.95113 -247061 -74047.4 -82407.8 269412 -5629.46 -12854.2 -7.41252 
3996 1 43.3773 8.0144 3.11732 5.92218 -245965 -68534.2 69925.4 282413 63712.2 -13371.9 -7.42217 
3997 1 42.6525 6.79312 3.10631 5.93399 -231590 -96200.8 -59131.6 315723 -3387.52 -12696.7 -7.41319 
3998 1 43.3425 5.55588 3.09681 5.90367 -228068 -88445.6 46683.5 330744 67737.3 -13864.9 -7.42016 