ITEM: TIMESTEP
0
ITEM: NUMBER OF ATOMS
23816
ITEM: BOX BOUNDS pp pp pp
0.0000000000000000e+00 1.3400400500000001e+02
0.0000000000000000e+00 2.3210174599999999e+02
0.0000000000000000e+00 1.5000000000000000e+01
ITEM: ATOMS id type x y z c_csym c_2[1] c_2[2] c_2[3] c_2[4] c_2[5] c_2[6] c_3 
215 1 0.788 8.589 3 6.02415 -146318 -128790 -50617.2 -25529 44429.3 -3359.81 -7.41249 
216 1 0.068 7.368 3 6.0234 -140281 -156809 -52524 -11494.3 43050.1 -818.799 -7.41258 
217 1 0.765 6.133 3 6.0237 -150388 -147745 -57038.4 -13660.6 35762.8 -4111.61 -7.41215 
218 1 0.045 4.912 3 6.02472 -133367 -137366 -59005.2 -26866.6 31095.6 -475.32 -7.41227 
219 1 0.743 3.677 3 6.02415 -140794 -131413 -61329.3 -25586.9 23521.6 -4487.87 -7.41194 
220 1 0.023 2.456 3 6.0234 -140929 -153497 -62865.7 -11577.3 16538.2 -130.282 -7.41204 
221 1 0.72 1.221 3 6.02246 -145051 -151110 -64165.5 -13747.2 7994.75 -4799.28 -7.41178 
222 1 0 0 3 6.02651 -136716 -145220 -64290.3 -21776.3 3.30476 -51.7 -7.41181 
405 1 2.206 8.576 3 6.02466 -142446 -158215 -48274.8 26664 47024.2 -11354.4 -7.41259 
406 1 2.903 7.342 3 6.02466 -151267 -148546 -52138.6 23490.6 39408.3 -16199.6 -7.41239 
407 1 2.183 6.12 3 6.0242 -135334 -138733 -55410.5 14558 36973.7 -12549.2 -7.41225 
408 1 2.881 4.886 3 6.02421 -141478 -132040 -57612.4 11341.1 29184.8 -17678.3 -7.41214 
409 1 2.161 3.664 3 6.02466 -142669 -154934 -60549.3 26265.3 23874.2 -13331.2 -7.41196 
410 1 2.858 2.43 3 6.02466 -145710 -151935 -61161 22927.2 15600.3 -18653.1 -7.41189 
411 1 2.138 1.208 3 6.02423 -138423 -144790 -62938.2 18935.5 7869.25 -13870.5 -7.41185 
594 1 5.041 8.55 3 6.02341 -150795 -148290 -45846.9 -13137.5 40474.8 -25850.7 -7.41293 
595 1 4.321 7.329 3 6.02415 -135933 -139190 -50142.3 -21221.6 40834.9 -22286.3 -7.41252 
596 1 5.019 6.094 3 6.02468 -141109 -131855 -51426.9 -28836.1 33057 -28609.7 -7.41266 
597 1 4.299 4.873 3 6.02369 -143080 -155320 -55817.6 -9675.56 29485.9 -24498.3 -7.4122 
598 1 4.996 3.638 3 6.02341 -145434 -151026 -56261.2 -13958 21539.8 -30560.4 -7.41239 
599 1 4.276 2.417 3 6.02417 -136327 -136684 -59388.3 -21971.9 15260.3 -26117.7 -7.41201 
600 1 4.974 1.182 3 6.02405 -138207 -143701 -58622.8 -34695.7 7975.31 -31243.6 -7.4123 
783 1 6.459 8.537 3 6.02392 -125205 -128121 -43983 32546.1 41751.2 -28446.5 -7.41265 
784 1 7.157 7.303 3 6.02637 -141621 -137034 -43662.9 8325 34367.8 -36479.7 -7.41265 
785 1 6.437 6.081 3 6.0257 -133494 -143873 -49910 17340.1 33096.6 -32235.3 -7.41234 
786 1 7.135 4.847 3 6.02367 -179503 -119374 -48722.3 24012.1 25678.6 -39620.1 -7.41276 
787 1 6.414 3.625 3 6.02392 -126308 -124606 -53998 30572.6 20639.4 -35146 -7.41213 
788 1 7.112 2.391 3 6.02705 -136291 -140535 -52406.4 7036.58 14149.4 -41268 -7.41217 
789 1 6.392 1.169 3 6.02382 -136530 -150119 -56035.6 20962.7 6676.48 -36887 -7.41204 
972 1 9.295 8.511 3 6.02369 -152972 -150162 -34701.9 -16311.1 33344.6 -40674.3 -7.41329 
973 1 8.575 7.29 3 6.02587 -133578 -143320 -43068.7 -19268.7 33884.8 -36225.3 -7.41288 
974 1 9.273 6.055 3 6.02413 -133817 -119737 -39881.2 -15716.8 27704.1 -44862.9 -7.41285 
975 1 8.552 4.834 3 6.02324 -174255 -124724 -47275.1 -3912.41 24235.8 -40461.9 -7.41284 
976 1 9.25 3.599 3 6.02629 -138980 -139139 -44629.1 -30312.7 18572.1 -47632.9 -7.4126 
977 1 8.53 2.378 3 6.02705 -134129 -143209 -49720.2 -20907.9 11943.8 -43473.9 -7.41229 
978 1 9.228 1.143 3 6.02391 -131143 -131615 -47188.5 -22168.1 7581.24 -48659.7 -7.4125 
11937 2 0.63 8.602 6.4 6.02572 -133315 -143891 -48703.9 -11280.2 47215.4 -2596.39 -7.41239 
11938 2 0.653 6.146 6.4 6.02391 -125587 -124420 -56001.2 -25067.4 37139.6 -3559.99 -7.41202 
11939 2 0.675 3.69 6.4 6.02572 -133509 -140565 -61168 -11308 24046.3 -4223.68 -7.41175 
11940 2 0.698 1.234 6.4 6.02331 -126878 -121983 -63612 -25703.8 8031.96 -4736.93 -7.41153 
11941 2 0 0 6.4 6.02712 -136390 -145887 -64281.7 -7583.56 1.83021 0.182145 -7.41182 
12123 2 2.048 8.615 6.4 6.02468 -144030 -129454 -49672.9 26527.9 44489.4 -12463.7 -7.41275 
12124 2 2.768 7.394 6.4 6.02369 -142826 -156613 -51597 15790 41277.7 -14192.5 -7.41242 
12125 2 2.071 6.159 6.4 6.0234 -148071 -148491 -56058.1 10963.5 35841.4 -13315 -7.41241 
12126 2 2.791 4.938 6.4 6.02415 -135920 -137280 -57607.7 27511.8 29919.9 -16353.7 -7.41213 
12127 2 2.093 3.703 6.4 6.02468 -138535 -132099 -60249.3 26046.9 23593.5 -13894.7 -7.4122 
12128 2 2.813 2.482 6.4 6.02369 -143532 -153377 -61380.2 15378.9 15620.1 -17946.2 -7.41191 
12129 2 2.116 1.247 6.4 6.02217 -142927 -151967 -63059.3 10470.9 8085.88 -14051.5 -7.41201 
12130 2 2.836 0.026 6.4 6.02417 -139410 -143268 -62612.6 22181.2 -100.942 -18549.2 -7.41189 
12312 2 4.884 8.641 6.4 6.02536 -132958 -141747 -45675 -6371.91 42529 -22260.3 -7.41297 
12313 2 4.186 7.407 6.4 6.0242 -144364 -131087 -50124.5 -13776.1 39665.4 -24287.3 -7.41253 
12314 2 4.906 6.185 6.4 6.02327 -139910 -158118 -52149.5 -21983.4 33809.2 -26114.1 -7.41261 
12315 2 4.209 4.951 6.4 6.02517 -148650 -150274 -55446.5 -26134.5 29452 -25804.6 -7.41222 
12316 2 4.929 3.729 6.4 6.02536 -133318 -138676 -56648.2 -6991.49 21303.5 -29043.6 -7.4124 
12317 2 4.231 2.495 6.4 6.0242 -139237 -133877 -59053.7 -14711.2 15900.2 -26758.3 -7.41207 
12318 2 4.951 1.273 6.4 6.02305 -140834 -155670 -58937.6 -22874.8 7287.31 -30827.8 -7.41222 
12319 2 4.254 0.039 6.4 6.0258 -146199 -162148 -60484.9 -22292 450.724 -26669.9 -7.41198 
12501 2 6.302 8.654 6.4 6.02629 -144304 -134269 -42702.7 24262.4 40850.3 -32191.8 -7.41269 
12502 2 7.022 7.433 6.4 6.02705 -133220 -144841 -45754 33041.8 34910.1 -32165.2 -7.41253 
12503 2 6.324 6.198 6.4 6.02413 -134002 -117713 -48120.3 9897.43 33473.8 -34951.9 -7.41243 
12504 2 7.045 4.977 6.4 6.02324 -173936 -124227 -50712.8 16309.6 25131.3 -36708.7 -7.41267 
12505 2 6.347 3.742 6.4 6.02629 -139055 -137058 -52858.4 23078.6 21989.8 -36828.9 -7.41217 
12506 2 7.067 2.521 6.4 6.02705 -134139 -141982 -53555.8 32040.6 12801.7 -39787.5 -7.41213 
12507 2 6.369 1.286 6.4 6.02401 -128984 -121247 -55203.1 8603.68 8466.41 -37481.9 -7.41203 
12508 2 7.09 0.065 6.4 6.02325 -177541 -130474 -54178.3 10252.3 -762.819 -41365.1 -7.41251 
12690 2 9.138 8.68 6.4 6.02392 -125514 -128968 -39051.6 -17880.1 33428.8 -34495.6 -7.41291 
12691 2 8.44 7.446 6.4 6.02705 -141881 -137657 -39613.7 -13530 34931 -40406 -7.41285 
12692 2 9.16 6.224 6.4 6.0257 -133301 -145547 -43859 -4463.02 26446.5 -40427.1 -7.41265 
12693 2 8.462 4.99 6.4 6.02367 -179834 -120015 -44732.7 -30509.4 26321.1 -43263.3 -7.41298 
12694 2 9.183 3.768 6.4 6.02392 -126220 -126457 -46879.6 -18861.1 16298.9 -45042.5 -7.4125 
12695 2 8.485 2.534 6.4 6.02705 -137038 -140571 -48239.5 -15089.8 14853.4 -44853.5 -7.41241 
12696 2 9.205 1.312 6.4 6.02445 -134448 -143543 -48208 -5853.01 4841.55 -47794.3 -7.41239 
12697 2 8.507 0.078 6.4 6.02391 -177525 -131844 -50161.7 -27362.9 1521.3 -44807.7 -7.41272 
1161 1 10.713 8.498 3 6.0242 -135376 -143248 -36574 21413.7 32159.4 -36047.3 -7.41323 
1162 1 11.411 7.264 3 6.0242 -144093 -135463 -30340.5 8378.26 27274.2 -46332.9 -7.41355 
1163 1 10.691 6.042 3 6.02327 -140302 -160594 -40696.2 34583.5 25211.1 -41432.1 -7.4132 
1164 1 11.388 4.808 3 6.02517 -148688 -154815 -34989.2 19552.7 21038.7 -50090 -7.41327 
1165 1 10.668 3.586 3 6.02536 -133943 -141518 -43030.7 18497.1 15147.8 -45714.3 -7.4131 
1166 1 11.366 2.352 3 6.02416 -138480 -138684 -38838.6 6915.97 12321.1 -52055.9 -7.4132 
1167 1 10.646 1.13 3 6.01996 -143624 -167371 -43944.6 37862.7 3770.2 -48258.7 -7.41305 
1350 1 13.549 8.472 3 6.02468 -143532 -135629 -20404.7 -31781.9 25074.2 -44275.6 -7.41426 
1351 1 12.829 7.251 3 6.02369 -143059 -160344 -33975.8 -3565.97 23719.6 -38746.8 -7.41332 
1352 1 13.526 6.016 3 6.02341 -148108 -154937 -25467.3 -17132.8 21401 -48716.9 -7.41398 
1353 1 12.806 4.795 3 6.02415 -136591 -141728 -36368.7 -16039.4 16366.8 -43979.8 -7.41323 
1354 1 13.504 3.56 3 6.02217 -137533 -141125 -29644.7 -33547.8 15386.4 -51475.3 -7.41366 
1355 1 12.784 2.339 3 6.02587 -152830 -193127 -36976.6 14100.5 6984.6 -47632.2 -7.41321 
1356 1 13.481 1.105 3 6.01816 -145185 -167779 -33194.5 14484.1 7250.73 -52448.6 -7.4136 
1539 1 14.967 8.459 3 6.0257 -133276 -148057 -28852.1 22502.6 20381.5 -32744 -7.41342 
1540 1 15.665 7.225 3 6.02367 -182034 -123112 -15483.2 20870 20084 -44305.8 -7.41447 
1541 1 14.944 6.003 3 6.02392 -126224 -129651 -30689.4 35898.2 15218.7 -38659.4 -7.41334 
1542 1 15.642 4.769 3 6.02705 -139338 -143693 -20171.4 3881.03 16475.1 -47606 -7.41386 
1543 1 14.922 3.547 3 6.02044 -133184 -149148 -31106.9 21664.7 8347.92 -43139.8 -7.41318 
1544 1 15.62 2.313 3 6.02303 -185987 -159312 -24000 299.755 10742.6 -49283.6 -7.41421 
1545 1 14.899 1.092 3 6.02276 -130410 -135957 -30346.7 1046.44 -191.134 -46203.3 -7.41337 
1727 1 17.105 9.668 3 6.02705 -132877 -147964 -24922.4 -15769.5 15607.4 -24886.2 -7.4136 
1728 1 17.803 8.433 3 6.02413 -136071 -122819 -6433.31 -18972.7 17945.5 -37779.1 -7.41457 
1729 1 17.082 7.212 3 6.02324 -173989 -128431 -25734.8 407.392 12624.3 -30846 -7.41395 
1730 1 17.78 5.977 3 6.02629 -141599 -142261 -11285.1 -33430.3 16286.6 -41123.2 -7.4143 
1731 1 17.06 4.756 3 6.02705 -134318 -147119 -25891.6 -16340.9 7666.94 -35832.3 -7.41355 
1732 1 17.758 3.521 3 6.02217 -130517 -128207 -15483.3 -20568.3 12796.7 -43182.1 -7.41398 
1733 1 17.037 2.3 3 6.02304 -183518 -161466 -24585.7 18133.1 1378.74 -39538.7 -7.41418 
1734 1 17.735 1.066 3 6.02202 -138938 -154761 -19677.9 -1622.58 7795.43 -43645.1 -7.4139 
12879 2 10.556 8.693 6.4 6.02341 -150877 -151316 -30204.4 8296.51 34070.5 -42167.4 -7.41373 
12880 2 11.276 7.472 6.4 6.02415 -135695 -142491 -37164.5 34017.9 25243.8 -39924.2 -7.41319 
12881 2 10.578 6.237 6.4 6.02468 -141474 -135029 -35038.6 22928.3 28452.1 -45950.3 -7.4135 
12882 2 11.298 5.016 6.4 6.02369 -143146 -159146 -40357.1 21605 17776.7 -45778.6 -7.413 
12883 2 10.601 3.781 6.4 6.02341 -146031 -154294 -39690 6699.97 19406.8 -48384.8 -7.41325 
12884 2 11.321 2.56 6.4 6.02415 -136970 -140257 -41634.3 32772.7 8336.04 -49874.4 -7.41296 
12885 2 10.623 1.325 6.4 6.02404 -136737 -138595 -42260 21166.2 8490.78 -49258 -7.4131 
12886 2 11.343 0.104 6.4 6.02493 -146952 -165863 -41201.1 15202.1 -2167.52 -52024.5 -7.41297 
13068 2 13.391 8.719 6.4 6.02327 -139556 -162906 -31020.5 -16219 22153.4 -35872.4 -7.41369 
13069 2 12.694 7.485 6.4 6.02517 -151510 -153794 -25497.5 -29089.2 28236.8 -44885.5 -7.41377 
13070 2 13.414 6.263 6.4 6.02536 -133024 -144249 -33747.8 -1217.4 16960 -42688.8 -7.41358 
13071 2 12.716 5.029 6.4 6.0242 -142162 -137487 -30031.1 -18002 22093.2 -48095.7 -7.41356 
13072 2 13.436 3.807 6.4 6.02327 -140720 -161190 -34973.2 -17193.2 9990.6 -47888.3 -7.41349 
13073 2 12.739 2.573 6.4 6.02517 -147057 -156786 -33871.6 -30885.4 13485.1 -49658.9 -7.41334 
13074 2 13.459 1.351 6.4 6.02475 -134528 -142817 -34961.6 -2691.15 1355.58 -51213.3 -7.41349 
13075 2 12.761 0.117 6.4 6.02418 -140064 -149215 -36311.3 -15077.5 3337.46 -49635.6 -7.41326 
13257 2 14.809 8.732 6.4 6.02413 -136598 -121242 -15450.8 6880.32 26139.4 -40981.5 -7.41411 
13258 2 15.53 7.511 6.4 6.02324 -173548 -128810 -28642 21213 14525.9 -36194.4 -7.41381 
13259 2 14.832 6.276 6.4 6.02629 -141962 -140709 -20228.3 19964.9 22561.2 -44586.7 -7.41384 
13260 2 15.552 5.055 6.4 6.02705 -133774 -147357 -29425.8 37092.1 9561.98 -42156.3 -7.41337 
13261 2 14.854 3.82 6.4 6.02413 -132227 -124267 -24355.3 5243.85 16675.3 -46754.3 -7.41365 
13262 2 15.575 2.599 6.4 6.02324 -175271 -127325 -29040.4 20118.5 3125.73 -46532.8 -7.41379 
13263 2 14.877 1.364 6.4 6.02505 -137567 -144147 -28168.7 18160.9 8660.89 -47383.3 -7.41341 
13264 2 15.597 0.143 6.4 6.02768 -137806 -154611 -27155 30790.2 -3959.71 -48962.2 -7.41351 
13446 2 17.645 8.758 6.4 6.0257 -132651 -148508 -24713.3 -747.484 10916.8 -27637.3 -7.41363 
13447 2 16.947 7.524 6.4 6.02367 -182562 -123182 -10999.8 -33637.5 21467.8 -38606.7 -7.41471 
13448 2 17.668 6.302 6.4 6.02392 -125779 -130367 -24876.6 -14739.1 7683.53 -33931.6 -7.41363 
13449 2 16.97 5.068 6.4 6.02705 -139960 -143751 -15312.7 -18155.6 17934.1 -41002.5 -7.4141 
13450 2 17.69 3.846 6.4 6.0257 -134335 -147590 -24228.9 -1393.25 3202.66 -38790.3 -7.41366 
13451 2 16.992 2.612 6.4 6.02367 -178506 -126029 -19553.9 -35286.8 12372.8 -42141.3 -7.41428 
13452 2 17.713 1.39 6.4 6.02332 -127645 -129624 -22464.3 -15892.2 -2302.81 -42237.7 -7.41372 
13453 2 17.015 0.156 6.4 6.0283 -138065 -155208 -22528.4 -15043.3 5651.7 -41695.7 -7.41375 
13635 2 19.063 8.771 6.4 6.02468 -145437 -137859 -2101.13 17796.1 19295.4 -31524.9 -7.41494 
13637 2 19.086 6.315 6.4 6.02341 -148826 -156587 -6743.05 3680.2 17788.5 -33718.1 -7.41493 
13639 2 19.108 3.859 6.4 6.02468 -139950 -140148 -10906.9 18294.8 14453.9 -34958.3 -7.41474 
13641 2 19.131 1.403 6.4 6.02217 -144702 -159713 -15458.8 2231.58 9618.45 -34985.9 -7.41446 
1916 1 19.941 9.642 3 6.02421 -145992 -137628 1692.16 4937.49 15284 -30532.8 -7.41518 
1917 1 19.221 8.42 3 6.02327 -139691 -162406 -23271.3 37569.7 8845.25 -21666.3 -7.41409 
1918 1 19.918 7.186 3 6.02517 -151084 -156936 -2681.96 16387.1 15218 -33378.3 -7.41492 
1919 1 19.198 5.964 3 6.02536 -133595 -144298 -22558.4 22023 5597.27 -26708.9 -7.41415 
1920 1 19.896 4.73 3 6.02421 -142104 -140460 -7398.74 3884.62 13482 -35414 -7.41472 
1921 1 19.176 3.508 3 6.01937 -140166 -164239 -21177.9 37169.1 1174.27 -30617.3 -7.41407 
1922 1 19.873 2.274 3 6.02587 -155438 -192901 -11641.2 -3875.42 10315.5 -36170.3 -7.41462 
1923 1 19.153 1.053 3 6.02276 -138221 -151386 -18561.2 -12410.3 -4235.47 -33614.7 -7.41437 
2105 1 21.359 9.629 3 6.02369 -142031 -160074 -21951.5 -1986.48 4761.45 -12915.6 -7.41392 
2106 1 22.056 8.394 3 6.02341 -150208 -155958 4340.19 -20347.3 14052.7 -25749 -7.4155 
2107 1 21.336 7.173 3 6.02415 -135924 -142423 -20630.2 -13813.3 2834.8 -17225.9 -7.41402 
2108 1 22.034 5.938 3 6.02468 -141427 -139487 -194.574 -36115 13637.9 -27156.9 -7.41528 
2109 1 21.314 4.717 3 6.02369 -144017 -159939 -18525.2 -2080.02 -221.648 -21081.2 -7.4141 
2110 1 22.011 3.482 3 6.01853 -145032 -160872 -5003.17 -21532.4 11872.9 -27877.3 -7.41489 
2111 1 21.291 2.261 3 6.02419 -145931 -176116 -15596.1 4469.12 -4094.91 -24189.8 -7.41445 
2112 1 21.989 1.027 3 6.02364 -138981 -151502 -9583.37 -3792.19 9196.05 -27623.8 -7.41482 
2294 1 24.195 9.603 3 6.02367 -183818 -123177 10928.6 17669.2 13071.3 -19302.2 -7.41581 
2295 1 23.474 8.381 3 6.02392 -125143 -128234 -20703.9 36725 -186.235 -8778.84 -7.41383 
2296 1 24.172 7.147 3 6.02705 -141543 -143414 6335.27 1106.79 13622.1 -19875.3 -7.4152 
2297 1 23.452 5.925 3 6.0257 -133862 -146072 -18050.9 23031.5 -2123.86 -11959.2 -7.41395 
2298 1 24.15 4.691 3 6.02367 -180237 -125423 1407.06 17009.9 12858.1 -20090.3 -7.41532 
2299 1 23.429 3.469 3 6.02094 -126094 -130657 -14904.6 36887.4 -5009.01 -14891.6 -7.414 
2300 1 24.127 2.235 3 6.02772 -146122 -178795 -3516.44 -18625 11265.3 -19714.6 -7.41485 
2301 1 23.407 1.014 3 6.02153 -138851 -153793 -10911.8 -10746.6 -8059.87 -17259.8 -7.41433 
2483 1 25.612 9.59 3 6.02324 -172480 -125197 -21589.2 -31.3986 -2521.18 -2319.8 -7.41412 
2484 1 26.31 8.355 3 6.02629 -143520 -141187 11715.5 -36036.9 14188.6 -14364 -7.41546 
2485 1 25.59 7.134 3 6.02705 -133123 -144643 -18615.7 -16083.2 -4022.67 -4514.36 -7.41389 
2486 1 26.288 5.899 3 6.02413 -134177 -124183 6821.8 -22419.1 14124.8 -13777.4 -7.41522 
2487 1 25.567 4.678 3 6.02324 -174914 -125518 -14942.6 361.849 -6109.8 -6836.32 -7.41447 
2488 1 26.265 3.443 3 6.01966 -138537 -145382 1243.34 -36726.4 13148.2 -12922.1 -7.41479 
2489 1 25.545 2.222 3 6.02772 -143519 -178867 -10736.1 2818.68 -8563.44 -8943.9 -7.41446 
2490 1 26.243 0.988 3 6.02214 -131852 -135607 -3916.85 10466.1 11405 -11910.6 -7.41469 
2672 1 28.448 9.564 3 6.02517 -152750 -155539 16797.8 14085.8 15391.8 -11441.5 -7.4159 
2673 1 27.728 8.342 3 6.02536 -131983 -140348 -20637.8 21093.9 -5332.36 361.519 -7.41421 
2674 1 28.426 7.108 3 6.02421 -144056 -138439 11667.2 2026.91 15652.6 -9800.34 -7.41567 
2675 1 27.706 5.886 3 6.02327 -140221 -158457 -16945.4 36754.3 -7053.98 -947.269 -7.41437 
2676 1 28.403 4.652 3 6.02517 -149300 -156951 5941.73 13844.2 15064.9 -8267.76 -7.41534 
2677 1 27.683 3.43 3 6.02179 -133288 -143154 -12390.1 21751.2 -9247.28 -2564.81 -7.41451 
2678 1 28.381 2.196 3 6.02416 -148693 -173047 343.996 -17178.2 13683.4 -6830.47 -7.41524 
2679 1 27.661 0.975 3 6.01977 -145512 -166574 -7492.54 3581.58 -11415.9 -4217.09 -7.41488 
13636 2 19.783 7.55 6.4 6.02125 -142451 -161044 -22563.1 24469.9 5024.77 -24155.8 -7.41391 
13638 2 19.806 5.094 6.4 6.02415 -136420 -143069 -21136.5 36170.2 1971.37 -29200.8 -7.414 
13640 2 19.828 2.638 6.4 6.02369 -144620 -160275 -19113.7 23850.2 -2023.86 -33071.1 -7.41409 
13642 2 19.851 0.182 6.4 6.02417 -140736 -150959 -15618 30361 -6263.33 -35473.8 -7.4143 
13824 2 21.899 8.797 6.4 6.02418 -141252 -175776 -21127.8 15708.6 2103.36 -14656.1 -7.41443 
13825 2 21.201 7.563 6.4 6.02364 -143253 -141199 1081.82 -21243.7 16858.3 -26105 -7.41502 
13826 2 21.921 6.341 6.4 6.02327 -139938 -161848 -19377.1 -15026.2 170.145 -19197.5 -7.41427 
13827 2 21.224 5.107 6.4 6.02517 -149833 -157800 -3643.86 -33558.5 15287.3 -27026.7 -7.41488 
13828 2 21.944 3.885 6.4 6.02536 -134160 -143737 -16841.8 168.281 -2701.17 -23105.8 -7.41444 
13829 2 21.246 2.651 6.4 6.0242 -140963 -141119 -8251.97 -22255.3 12322 -27197.3 -7.41468 
13830 2 21.966 1.429 6.4 6.02305 -142158 -161776 -13703.7 -15582.1 -5854.45 -26030 -7.41454 
13831 2 21.269 0.195 6.4 6.0258 -148069 -168784 -12123.1 -29922.6 8313.23 -26246.8 -7.41445 
14013 2 23.317 8.81 6.4 6.02587 -161186 -188594 7945.4 -14576.4 15526.5 -19506.3 -7.41566 
14014 2 24.037 7.589 6.4 6.02238 -131324 -146395 -19634.5 37766 -1752.24 -10126.2 -7.41394 
14015 2 23.339 6.354 6.4 6.02413 -134800 -124153 3356.38 2623.24 15366.1 -19773.1 -7.41506 
14016 2 24.06 5.133 6.4 6.02324 -174315 -126679 -16650.7 21681.9 -3790.25 -13549.8 -7.41439 
14017 2 23.362 3.898 6.4 6.02629 -140576 -143132 -1482.41 15985.6 13787.6 -19576.9 -7.41479 
14018 2 24.082 2.677 6.4 6.02705 -135212 -145672 -13062.2 37891.1 -6355.39 -16463.9 -7.4142 
14019 2 23.384 1.442 6.4 6.02401 -130837 -126745 -6500.6 1754.94 11321.3 -18871 -7.41452 
14020 2 24.105 0.221 6.4 6.02325 -178910 -135194 -8336.03 16546.4 -8858.46 -18548.3 -7.41483 
14202 2 26.153 8.836 6.4 6.02418 -132182 -160342 -20581.9 2731.35 -3136.08 -3072.99 -7.41401 
14203 2 25.455 7.602 6.4 6.02044 -140791 -145225 9118.74 -20853.3 15338.3 -13991.7 -7.41521 
14204 2 26.175 6.38 6.4 6.0257 -133061 -145046 -17556.8 -1098.95 -4812.42 -5598.83 -7.41395 
14205 2 25.477 5.146 6.4 6.02367 -181000 -124570 4088.83 -37251.4 14833.6 -13236.9 -7.41546 
14206 2 26.198 3.924 6.4 6.02392 -126836 -127279 -13435.9 -14759.9 -6956.75 -8082.9 -7.41418 
14207 2 25.5 2.69 6.4 6.02705 -138685 -144464 -1292.97 -21300.7 13418 -12171.6 -7.41481 
14208 2 26.22 1.468 6.4 6.02445 -135590 -145522 -9213.04 -1024.72 -9197.59 -10240.7 -7.41436 
14209 2 25.522 0.234 6.4 6.02391 -179251 -134903 -5981.65 -32975.4 11091.7 -10807.3 -7.41495 
14391 2 27.571 8.849 6.4 6.02303 -158853 -188793 14364.4 -17420.4 15620.9 -10697 -7.41619 
14392 2 28.291 7.628 6.4 6.02217 -133335 -141550 -19675 35554.7 -5234.69 -189.73 -7.41391 
14393 2 27.593 6.393 6.4 6.02468 -142208 -138053 9290.79 16509.1 15835.1 -9051.7 -7.41575 
14394 2 28.313 5.172 6.4 6.02369 -143107 -156974 -15665.9 23688.2 -7272.66 -1851.17 -7.41421 
14395 2 27.616 3.937 6.4 6.02341 -147348 -156515 3630 984.391 15072.9 -7373.27 -7.41543 
14396 2 28.336 2.716 6.4 6.02415 -137630 -139309 -10910.5 35787.2 -9589.87 -3639.47 -7.41449 
14397 2 27.638 1.481 6.4 6.02404 -138283 -139929 -1930.99 16246 13547.8 -5923.38 -7.41514 
14398 2 28.358 0.26 6.4 6.02493 -147951 -166039 -5397.18 19167.2 -11743.3 -5272.11 -7.41476 
2861 1 29.866 9.551 3 6.02415 -133988 -137682 -22809.4 -15630 -5537.61 2371.27 -7.41385 
2862 1 30.564 8.316 3 6.02468 -143126 -137532 16129 -37553.2 18050.1 -8639.49 -7.41609 
2863 1 29.844 7.095 3 6.02369 -142237 -155685 -18940.5 -3341.4 -7411.71 2065.23 -7.41403 
2864 1 30.541 5.86 3 6.02341 -148335 -155767 10181.7 -22251.2 17516.8 -6243.87 -7.41576 
2865 1 29.821 4.639 3 6.02415 -136664 -138209 -14464.3 -14920.8 -9515.16 1279.61 -7.41429 
2866 1 30.519 3.404 3 6.02217 -140460 -140388 4053.24 -36074 16289.8 -4236.65 -7.41513 
2867 1 29.799 2.183 3 6.02392 -152929 -190357 -9337.09 16063.1 -11752.1 117.985 -7.4147 
2868 1 30.496 0.949 3 6.02149 -148308 -165903 -2058.65 9520.74 14278.1 -2475.25 -7.41493 
3050 1 32.702 9.525 3 6.02705 -143065 -142064 20866.7 254.792 21002.5 -10285.9 -7.41592 
3051 1 31.982 8.303 3 6.0257 -131739 -141576 -21619 20983.2 -6737.49 2074.72 -7.41371 
3052 1 32.68 7.069 3 6.02367 -181881 -123308 14589.2 16486.5 20471.5 -7078.43 -7.41598 
3053 1 31.959 5.847 3 6.02392 -125531 -124067 -17262.7 35164.7 -9166.34 2156.78 -7.41395 
3054 1 32.657 4.613 3 6.02587 -139687 -140722 8182.11 699.689 19216.8 -4375.37 -7.41547 
3055 1 31.937 3.391 3 6.02023 -142225 -158618 -12252.8 34592.4 -11599 1751.45 -7.41425 
3056 1 32.634 2.157 3 6.02304 -153112 -190277 1468.92 -3171.23 17112.3 -2117.08 -7.41546 
3057 1 31.914 0.936 3 6.02276 -140651 -146617 -6408 -10615.1 -14100.9 657.481 -7.41472 
3239 1 34.12 9.512 3 6.02705 -130863 -140642 -23562.7 -18492.8 -5096.36 -583.496 -7.41358 
3240 1 34.818 8.277 3 6.02413 -135630 -123081 19475.5 -22335.9 24274.9 -10425.6 -7.41585 
3241 1 34.097 7.056 3 6.02324 -172593 -121733 -19388.8 -1800.78 -7857.9 383.784 -7.41418 
3242 1 34.795 5.821 3 6.02629 -141446 -141085 12372.5 -36103.1 22813.6 -7035.22 -7.41545 
3243 1 34.075 4.6 3 6.02705 -133600 -141169 -14680 -17751.1 -10700.1 662.289 -7.41404 
3244 1 34.773 3.365 3 6.02217 -129871 -126332 5571.58 -21324.6 20592.5 -4399.59 -7.415 
3245 1 34.052 2.144 3 6.02418 -135218 -157763 -9020.6 17342.6 -13758.5 189.292 -7.41454 
3246 1 34.75 0.91 3 6.02231 -138315 -151606 -1364.38 -3416.12 17546.1 -2246.51 -7.41476 
3428 1 36.956 9.486 3 6.02421 -145389 -138667 24712 2821.54 28294.7 -15678.7 -7.41632 
3429 1 36.236 8.264 3 6.02327 -137773 -155633 -21441.5 34312.3 -5520.78 -3768.23 -7.41408 
3430 1 36.933 7.03 3 6.02517 -150603 -156463 17261.5 14780.4 26841.5 -11885 -7.4159 
3431 1 36.213 5.808 3 6.02536 -132184 -137982 -16998.2 19276.5 -8988 -2867.78 -7.41435 
3432 1 36.911 4.574 3 6.02418 -141067 -138191 10081.7 3200.89 24376.9 -8751.21 -7.41567 
3433 1 36.191 3.352 3 6.01691 -139270 -158584 -11883.7 35182.2 -12469.9 -2665.6 -7.41445 
3434 1 36.888 2.118 3 6.02587 -155640 -190058 2649.57 -3676.21 21091.4 -6292.53 -7.41517 
3435 1 36.168 0.897 3 6.02276 -137806 -146618 -5746.99 -13379.9 -16064.2 -3290.4 -7.41495 
14580 2 30.406 8.875 6.4 6.02392 -148915 -189330 -21817.5 3869.15 -4717.94 2257.08 -7.41407 
14581 2 29.709 7.641 6.4 6.02023 -150382 -158061 13788.6 -35205.7 17278.8 -7498.23 -7.41562 
14582 2 30.429 6.419 6.4 6.02421 -134618 -139048 -17928.2 -2776.76 -6990.19 1524.21 -7.41411 
14583 2 29.731 5.185 6.4 6.02421 -143059 -138284 8063.85 -23184 16947.7 -5162.78 -7.41547 
14584 2 30.451 3.963 6.4 6.02466 -143102 -157031 -13122.6 -14374.9 -9437.99 482.617 -7.41433 
14585 2 29.754 2.729 6.4 6.02466 -148256 -156546 1928.05 -35147.6 15762.8 -3141.36 -7.41513 
14586 2 30.474 1.507 6.4 6.02422 -137383 -139888 -7894.02 -2236.38 -11995.4 -953.971 -7.41461 
14587 2 29.776 0.273 6.4 6.02418 -141240 -147953 -3717.55 -18308.3 13920.9 -1386.8 -7.41488 
14769 2 31.824 8.888 6.4 6.02418 -154167 -170170 18543.4 -4067.78 19260.5 -8857.86 -7.41621 
14770 2 32.544 7.667 6.4 6.01853 -137416 -157911 -20610.6 20881.3 -5736.02 1887.3 -7.41401 
14771 2 31.847 6.432 6.4 6.02369 -151433 -154579 12552.7 2753.18 19060.6 -5690.89 -7.41566 
14772 2 32.567 5.211 6.4 6.02468 -133326 -137950 -15994.5 36359 -8722.25 1580.12 -7.4144 
14773 2 31.869 3.976 6.4 6.02415 -142641 -137205 6174.44 14675.7 18047.4 -3054.95 -7.41535 
14774 2 32.589 2.755 6.4 6.02341 -141864 -155877 -10869.2 21369.8 -11651.5 829.335 -7.41465 
14775 2 31.892 1.52 6.4 6.02245 -147402 -155731 -358.169 2949.98 16304.2 -909.899 -7.41496 
14776 2 32.612 0.299 6.4 6.02532 -138339 -147349 -4646.14 32218 -14593.6 -431.477 -7.41502 
14958 2 34.66 8.914 6.4 6.02772 -138763 -174620 -22656 16518.3 -3749.86 -541.398 -7.41383 
14959 2 33.962 7.68 6.4 6.02154 -133026 -126750 17185.4 -37119 21869.1 -8822.34 -7.41561 
14960 2 34.683 6.458 6.4 6.02392 -123824 -124368 -18268.3 -17934.7 -7125.22 -21.2339 -7.41388 
14961 2 33.985 5.224 6.4 6.02637 -140321 -142159 10225.6 -21009.7 20816.7 -5501.62 -7.41535 
14962 2 34.705 4.002 6.4 6.02637 -132992 -142350 -13360.5 -1699.93 -10591.2 -92.7555 -7.41412 
14963 2 34.007 2.768 6.4 6.02392 -130760 -124502 3695.7 -36730.8 19038.1 -2930.01 -7.41503 
14964 2 34.728 1.546 6.4 6.02332 -126691 -125398 -7526.87 -17231.2 -14246.5 -898.851 -7.4144 
14965 2 34.03 0.312 6.4 6.02763 -138344 -151226 -3045.02 -15776 16503.5 -971.076 -7.41468 
15147 2 36.078 8.927 6.4 6.02654 -151560 -173229 22173.3 -2079.04 25232.4 -13962.8 -7.41639 
15148 2 36.798 7.706 6.4 6.01881 -139148 -156909 -20360.9 21494.5 -4582.52 -4033.69 -7.4138 
15149 2 36.101 6.471 6.4 6.02341 -148799 -155445 14968.6 1749.53 24034.8 -10150.8 -7.41599 
15150 2 36.821 5.25 6.4 6.02415 -134984 -136998 -15691 33478.7 -8753.28 -3518.79 -7.41419 
15151 2 36.123 4.015 6.4 6.02468 -139973 -137683 7957.41 17214.7 22052.9 -7131.69 -7.41564 
15152 2 36.843 2.794 6.4 6.02369 -143589 -154916 -10319 21931.4 -12976.6 -3683.39 -7.41444 
15153 2 36.146 1.559 6.4 6.02217 -144595 -155989 753.286 2176.99 19244.3 -4746.16 -7.4152 
15154 2 36.866 0.338 6.4 6.02417 -140074 -146603 -3968.89 29399.7 -17237.4 -4590.5 -7.41482 
15337 2 38.216 7.719 6.4 6.02179 -142895 -141247 20618.6 -22020.9 27908.7 -16415.1 -7.41597 
15339 2 38.239 5.263 6.4 6.02466 -149443 -156441 12992 -33669.1 25645 -12951.4 -7.41566 
15341 2 38.261 2.807 6.4 6.02421 -140434 -138502 5660.34 -21549.5 22633.7 -10274.2 -7.41531 
15343 2 38.284 0.351 6.4 6.02467 -147288 -165083 -1574.2 -28343.2 18866.9 -8440.18 -7.41492 
3617 1 38.374 9.473 3 6.02341 -139875 -154324 -22185.9 -5674.96 -2644.62 -9401.97 -7.41382 
3618 1 39.071 8.238 3 6.02341 -151870 -156266 23203.9 -22340.1 31136.5 -18060.7 -7.4162 
3619 1 38.351 7.017 3 6.02415 -134015 -136841 -18199 -17375.1 -6410.97 -8045.42 -7.41405 
3620 1 39.049 5.782 3 6.02217 -141538 -140875 15334.3 -34412.8 28680.6 -14731.8 -7.41568 
3621 1 38.329 4.561 3 6.02392 -151166 -188888 -13612.7 13802.9 -10520 -7358.94 -7.41435 
3622 1 39.026 3.327 3 6.0183 -145987 -159402 7512.22 15880.2 25020.1 -11911.4 -7.41525 
3623 1 38.306 2.105 3 6.02419 -135582 -138403 -7823.17 21224.6 -14782.3 -7442.93 -7.41469 
3624 1 39.004 0.871 3 6.02424 -141691 -145366 364.397 -582.64 20789.9 -9945.99 -7.41517 
3806 1 41.209 9.447 3 6.02327 -149675 -159056 29799.7 17903.1 35273.7 -24774.8 -7.41677 
3807 1 40.489 8.225 3 6.0242 -132587 -138404 -18532.2 19841 -3325.71 -14213.5 -7.41404 
3808 1 41.187 6.991 3 6.02536 -140800 -140939 21828.4 2550.27 32953.7 -21426.3 -7.41637 
3809 1 40.467 5.769 3 6.02023 -139360 -158887 -14479.3 32089.4 -7759.81 -13247.2 -7.41409 
3810 1 41.164 4.535 3 6.02303 -154306 -191342 13283 -917.789 29329.7 -18559.2 -7.41609 
3811 1 40.444 3.314 3 6.02217 -134491 -140327 -9287.11 -17787.1 -12678.5 -12871.2 -7.41439 
3812 1 41.142 2.079 3 6.02404 -136947 -140181 5966.21 -34921.7 24799.9 -16322.7 -7.41549 
3813 1 40.422 0.858 3 6.02493 -147790 -162478 -3330.91 -744.017 -17527.6 -13337.4 -7.41494 
3995 1 42.627 9.434 3 6.02413 -122256 -125074 -17643.3 -4075.96 -50.5983 -20319.5 -7.41389 
3996 1 43.325 8.199 3 6.02773 -141835 -145292 29208.9 -34372.3 37033.2 -27949.3 -7.41632 
3997 1 42.605 6.978 3 6.02773 -130905 -143080 -14056.1 -20050.9 -4627.73 -19348.3 -7.41405 
3998 1 43.303 5.743 3 6.02217 -130659 -129610 20664.7 -18670.9 33772.6 -25329.8 -7.41577 
3999 1 42.582 4.522 3 6.02418 -132524 -159047 -9403.8 14709.7 -9966.43 -18819 -7.41452 
4000 1 43.28 3.288 3 6.02044 -135685 -148099 12139.3 3712.07 29000.7 -23007 -7.4153 
4001 1 42.56 2.066 3 6.02512 -132905 -144988 -3987.67 17964.3 -15419.8 -18901.8 -7.41455 
4002 1 43.258 0.832 3 6.02424 -130702 -133978 4783.69 14966.8 23566.7 -21414.5 -7.4152 
4184 1 45.463 9.408 3 6.02517 -151547 -161221 37567 18027.6 40510.6 -33572.4 -7.41696 
4185 1 44.743 8.186 3 6.02536 -129893 -141506 -12549.9 17410 -1416.22 -24877 -7.41456 
4186 1 45.441 6.952 3 6.02421 -142493 -143157 28544.9 6055.51 37694.6 -31269.9 -7.41651 
4187 1 44.721 5.73 3 6.01937 -136416 -162013 -8817.64 32832.5 -6674.43 -24447.5 -7.4146 
4188 1 45.418 4.496 3 6.02587 -155948 -193456 19706.1 -924.028 33352.8 -29246.2 -7.41621 
4189 1 44.698 3.275 3 6.02217 -131451 -143351 -3700.17 -20688.1 -12678.9 -24314.3 -7.41489 
4190 1 45.396 2.04 3 6.02403 -138450 -142338 11790.4 -31595.3 27773.6 -27567.2 -7.41558 
4191 1 44.676 0.819 3 6.02394 -144636 -165567 2009.46 -400.948 -18735.6 -24827.1 -7.41543 
4373 1 46.881 9.395 3 6.02415 -132351 -141636 -10538.4 -18722.3 1517.11 -29086.8 -7.41446 
4374 1 47.579 8.16 3 6.02415 -143756 -143916 37444.6 -30747.6 41045.9 -35700.4 -7.41697 
4375 1 46.859 6.939 3 6.02341 -140056 -159431 -7031.87 -7158.03 -3583.72 -28884.2 -7.41461 
4376 1 47.556 5.704 3 6.01853 -147159 -163804 28129.3 -19122.5 37197 -34121.8 -7.41633 
4377 1 46.836 4.483 3 6.02418 -142155 -175585 -2519.2 -460.066 -9567.72 -28923.2 -7.41508 
4378 1 47.534 3.249 3 6.02179 -137444 -146758 19449.2 7180.21 31983.4 -32767.5 -7.4159 
4379 1 46.814 2.027 3 6.02391 -141725 -161472 2938.84 30433.8 -16096 -29239.2 -7.4151 
4380 1 47.511 0.793 3 6.02467 -147091 -168282 11651 14343.9 25487.5 -31675.3 -7.41573 
15336 2 38.914 8.953 6.4 6.02418 -140750 -170792 -21084.4 13817.2 -1624.82 -9589.99 -7.41411 
15338 2 38.936 6.497 6.4 6.02466 -140381 -156033 -16957.2 -16881.2 -6043.09 -8640.26 -7.4141 
15340 2 38.959 4.041 6.4 6.02421 -134844 -138424 -12048.8 -4673.94 -10987.3 -8313.25 -7.41438 
15342 2 38.981 1.585 6.4 6.02391 -143199 -157105 -6293.41 -16329.4 -15893.7 -8712.8 -7.41462 
15525 2 40.332 8.966 6.4 6.02587 -160622 -190422 27026.5 -14081 31892.8 -23255.8 -7.41661 
15526 2 41.052 7.745 6.4 6.02217 -129286 -141050 -17287.6 34230.7 -2988.07 -14834.1 -7.41419 