(written by TR)

23816	atoms
2	atom types
0	134.004005	xlo xhi
0	232.101746	ylo yhi
0	15.0	zlo zhi


Masses

1	12
2	12

Atoms

1 1 1 0 0.698 230.867 3.000 0 0 0
2 1 1 0 0.675 228.411 3.000 0 0 0
3 1 1 0 0.653 225.956 3.000 0 0 0
4 1 1 0 0.630 223.500 3.000 0 0 0
5 1 1 0 0.608 221.044 3.000 0 0 0
6 1 1 0 0.585 218.588 3.000 0 0 0
7 1 1 0 0.563 216.132 3.000 0 0 0
8 1 1 0 0.540 213.676 3.000 0 0 0
9 1 1 0 0.518 211.220 3.000 0 0 0
10 1 1 0 0.495 208.764 3.000 0 0 0
11 1 1 0 0.473 206.308 3.000 0 0 0
12 1 1 0 0.450 203.852 3.000 0 0 0
13 1 1 0 0.428 201.397 3.000 0 0 0
14 1 1 0 0.405 198.941 3.000 0 0 0
15 1 1 0 0.383 196.485 3.000 0 0 0
16 1 1 0 0.360 194.029 3.000 0 0 0
17 1 1 0 0.338 191.573 3.000 0 0 0
18 1 1 0 0.315 189.117 3.000 0 0 0
19 1 1 0 0.293 186.661 3.000 0 0 0
20 1 1 0 0.270 184.205 3.000 0 0 0
21 1 1 0 0.248 181.749 3.000 0 0 0
22 1 1 0 0.225 179.293 3.000 0 0 0
23 1 1 0 0.203 176.838 3.000 0 0 0
24 1 1 0 0.180 174.382 3.000 0 0 0
25 1 1 0 0.158 171.926 3.000 0 0 0
26 1 1 0 0.135 169.470 3.000 0 0 0
27 1 1 0 0.113 167.014 3.000 0 0 0
28 1 1 0 0.090 164.558 3.000 0 0 0
29 1 1 0 0.068 162.102 3.000 0 0 0
30 1 1 0 0.045 159.646 3.000 0 0 0
31 1 1 0 0.023 157.190 3.000 0 0 0
32 1 1 0 0.000 154.734 3.000 0 0 0
33 1 1 0 2.836 232.076 3.000 0 0 0
34 1 1 0 2.116 230.854 3.000 0 0 0
35 1 1 0 2.813 229.620 3.000 0 0 0
36 1 1 0 2.093 228.398 3.000 0 0 0
37 1 1 0 2.791 227.164 3.000 0 0 0
38 1 1 0 2.071 225.943 3.000 0 0 0
39 1 1 0 2.768 224.708 3.000 0 0 0
40 1 1 0 2.048 223.487 3.000 0 0 0
41 1 1 0 2.746 222.252 3.000 0 0 0
42 1 1 0 2.026 221.031 3.000 0 0 0
43 1 1 0 2.723 219.796 3.000 0 0 0
44 1 1 0 2.003 218.575 3.000 0 0 0
45 1 1 0 2.701 217.340 3.000 0 0 0
46 1 1 0 1.981 216.119 3.000 0 0 0
47 1 1 0 2.678 214.884 3.000 0 0 0
48 1 1 0 1.958 213.663 3.000 0 0 0
49 1 1 0 2.656 212.429 3.000 0 0 0
50 1 1 0 1.936 211.207 3.000 0 0 0
51 1 1 0 2.633 209.973 3.000 0 0 0
52 1 1 0 1.913 208.751 3.000 0 0 0
53 1 1 0 2.611 207.517 3.000 0 0 0
54 1 1 0 1.891 206.295 3.000 0 0 0
55 1 1 0 2.588 205.061 3.000 0 0 0
56 1 1 0 1.868 203.839 3.000 0 0 0
57 1 1 0 2.566 202.605 3.000 0 0 0
58 1 1 0 1.846 201.384 3.000 0 0 0
59 1 1 0 2.543 200.149 3.000 0 0 0
60 1 1 0 1.823 198.928 3.000 0 0 0
61 1 1 0 2.521 197.693 3.000 0 0 0
62 1 1 0 1.801 196.472 3.000 0 0 0
63 1 1 0 2.498 195.237 3.000 0 0 0
64 1 1 0 1.778 194.016 3.000 0 0 0
65 1 1 0 2.476 192.781 3.000 0 0 0
66 1 1 0 1.756 191.560 3.000 0 0 0
67 1 1 0 2.453 190.326 3.000 0 0 0
68 1 1 0 1.733 189.104 3.000 0 0 0
69 1 1 0 2.431 187.870 3.000 0 0 0
70 1 1 0 1.710 186.648 3.000 0 0 0
71 1 1 0 2.408 185.414 3.000 0 0 0
72 1 1 0 1.688 184.192 3.000 0 0 0
73 1 1 0 2.386 182.958 3.000 0 0 0
74 1 1 0 1.665 181.736 3.000 0 0 0
75 1 1 0 2.363 180.502 3.000 0 0 0
76 1 1 0 1.643 179.280 3.000 0 0 0
77 1 1 0 2.341 178.046 3.000 0 0 0
78 1 1 0 1.620 176.825 3.000 0 0 0
79 1 1 0 2.318 175.590 3.000 0 0 0
80 1 1 0 1.598 174.369 3.000 0 0 0
81 1 1 0 2.296 173.134 3.000 0 0 0
82 1 1 0 1.575 171.913 3.000 0 0 0
83 1 1 0 2.273 170.678 3.000 0 0 0
84 1 1 0 1.553 169.457 3.000 0 0 0
85 1 1 0 2.251 168.222 3.000 0 0 0
86 1 1 0 1.530 167.001 3.000 0 0 0
87 1 1 0 2.228 165.767 3.000 0 0 0
88 1 1 0 1.508 164.545 3.000 0 0 0
89 1 1 0 2.206 163.311 3.000 0 0 0
90 1 1 0 1.485 162.089 3.000 0 0 0
91 1 1 0 2.183 160.855 3.000 0 0 0
92 1 1 0 1.463 159.633 3.000 0 0 0
93 1 1 0 2.161 158.399 3.000 0 0 0
94 1 1 0 1.440 157.177 3.000 0 0 0
95 1 1 0 2.138 155.943 3.000 0 0 0
96 1 1 0 1.418 154.722 3.000 0 0 0
97 1 1 0 2.116 153.487 3.000 0 0 0
98 1 1 0 1.395 152.266 3.000 0 0 0
99 1 1 0 2.093 151.031 3.000 0 0 0
100 1 1 0 1.373 149.810 3.000 0 0 0
101 1 1 0 2.071 148.575 3.000 0 0 0
102 1 1 0 1.350 147.354 3.000 0 0 0
103 1 1 0 2.048 146.119 3.000 0 0 0
104 1 1 0 1.328 144.898 3.000 0 0 0
105 1 1 0 2.026 143.663 3.000 0 0 0
106 1 1 0 1.305 142.442 3.000 0 0 0
107 1 1 0 2.003 141.208 3.000 0 0 0
108 1 1 0 1.283 139.986 3.000 0 0 0
109 1 1 0 1.981 138.752 3.000 0 0 0
110 1 1 0 1.260 137.530 3.000 0 0 0
111 1 1 0 1.958 136.296 3.000 0 0 0
112 1 1 0 1.238 135.074 3.000 0 0 0
113 1 1 0 1.936 133.840 3.000 0 0 0
114 1 1 0 1.215 132.618 3.000 0 0 0
115 1 1 0 1.913 131.384 3.000 0 0 0
116 1 1 0 1.193 130.163 3.000 0 0 0
117 1 1 0 1.891 128.928 3.000 0 0 0
118 1 1 0 1.170 127.707 3.000 0 0 0
119 1 1 0 1.868 126.472 3.000 0 0 0
120 1 1 0 1.148 125.251 3.000 0 0 0
121 1 1 0 1.846 124.016 3.000 0 0 0
122 1 1 0 1.125 122.795 3.000 0 0 0
123 1 1 0 1.823 121.560 3.000 0 0 0
124 1 1 0 1.103 120.339 3.000 0 0 0
125 1 1 0 1.801 119.105 3.000 0 0 0
126 1 1 0 1.080 117.883 3.000 0 0 0
127 1 1 0 1.778 116.649 3.000 0 0 0
128 1 1 0 1.058 115.427 3.000 0 0 0
129 1 1 0 1.756 114.193 3.000 0 0 0
130 1 1 0 1.035 112.971 3.000 0 0 0
131 1 1 0 1.733 111.737 3.000 0 0 0
132 1 1 0 1.013 110.515 3.000 0 0 0
133 1 1 0 1.710 109.281 3.000 0 0 0
134 1 1 0 0.990 108.059 3.000 0 0 0
135 1 1 0 1.688 106.825 3.000 0 0 0
136 1 1 0 0.968 105.604 3.000 0 0 0
137 1 1 0 1.665 104.369 3.000 0 0 0
138 1 1 0 0.945 103.148 3.000 0 0 0
139 1 1 0 1.643 101.913 3.000 0 0 0
140 1 1 0 0.923 100.692 3.000 0 0 0
141 1 1 0 1.620 99.457 3.000 0 0 0
142 1 1 0 0.900 98.236 3.000 0 0 0
143 1 1 0 1.598 97.001 3.000 0 0 0
144 1 1 0 0.878 95.780 3.000 0 0 0
145 1 1 0 1.575 94.546 3.000 0 0 0
146 1 1 0 0.855 93.324 3.000 0 0 0
147 1 1 0 1.553 92.090 3.000 0 0 0
148 1 1 0 0.833 90.868 3.000 0 0 0
149 1 1 0 1.530 89.634 3.000 0 0 0
150 1 1 0 0.810 88.412 3.000 0 0 0
151 1 1 0 1.508 87.178 3.000 0 0 0
152 1 1 0 0.788 85.956 3.000 0 0 0
153 1 1 0 1.485 84.722 3.000 0 0 0
154 1 1 0 0.765 83.500 3.000 0 0 0
155 1 1 0 1.463 82.266 3.000 0 0 0
156 1 1 0 0.743 81.045 3.000 0 0 0
157 1 1 0 1.440 79.810 3.000 0 0 0
158 1 1 0 0.720 78.589 3.000 0 0 0
159 1 1 0 1.418 77.354 3.000 0 0 0
160 1 1 0 0.698 76.133 3.000 0 0 0
161 1 1 0 1.395 74.898 3.000 0 0 0
162 1 1 0 0.675 73.677 3.000 0 0 0
163 1 1 0 1.373 72.442 3.000 0 0 0
164 1 1 0 0.653 71.221 3.000 0 0 0
165 1 1 0 1.350 69.987 3.000 0 0 0
166 1 1 0 0.630 68.765 3.000 0 0 0
167 1 1 0 1.328 67.531 3.000 0 0 0
168 1 1 0 0.608 66.309 3.000 0 0 0
169 1 1 0 1.305 65.075 3.000 0 0 0
170 1 1 0 0.585 63.853 3.000 0 0 0
171 1 1 0 1.283 62.619 3.000 0 0 0
172 1 1 0 0.563 61.397 3.000 0 0 0
173 1 1 0 1.260 60.163 3.000 0 0 0
174 1 1 0 0.540 58.942 3.000 0 0 0
175 1 1 0 1.238 57.707 3.000 0 0 0
176 1 1 0 0.518 56.486 3.000 0 0 0
177 1 1 0 1.215 55.251 3.000 0 0 0
178 1 1 0 0.495 54.030 3.000 0 0 0
179 1 1 0 1.193 52.795 3.000 0 0 0
180 1 1 0 0.473 51.574 3.000 0 0 0
181 1 1 0 1.170 50.339 3.000 0 0 0
182 1 1 0 0.450 49.118 3.000 0 0 0
183 1 1 0 1.148 47.883 3.000 0 0 0
184 1 1 0 0.428 46.662 3.000 0 0 0
185 1 1 0 1.125 45.428 3.000 0 0 0
186 1 1 0 0.405 44.206 3.000 0 0 0
187 1 1 0 1.103 42.972 3.000 0 0 0
188 1 1 0 0.383 41.750 3.000 0 0 0
189 1 1 0 1.080 40.516 3.000 0 0 0
190 1 1 0 0.360 39.294 3.000 0 0 0
191 1 1 0 1.058 38.060 3.000 0 0 0
192 1 1 0 0.338 36.838 3.000 0 0 0
193 1 1 0 1.035 35.604 3.000 0 0 0
194 1 1 0 0.315 34.383 3.000 0 0 0
195 1 1 0 1.013 33.148 3.000 0 0 0
196 1 1 0 0.293 31.927 3.000 0 0 0
197 1 1 0 0.990 30.692 3.000 0 0 0
198 1 1 0 0.270 29.471 3.000 0 0 0
199 1 1 0 0.968 28.236 3.000 0 0 0
200 1 1 0 0.248 27.015 3.000 0 0 0
201 1 1 0 0.945 25.780 3.000 0 0 0
202 1 1 0 0.225 24.559 3.000 0 0 0
203 1 1 0 0.923 23.325 3.000 0 0 0
204 1 1 0 0.203 22.103 3.000 0 0 0
205 1 1 0 0.900 20.869 3.000 0 0 0
206 1 1 0 0.180 19.647 3.000 0 0 0
207 1 1 0 0.878 18.413 3.000 0 0 0
208 1 1 0 0.158 17.191 3.000 0 0 0
209 1 1 0 0.855 15.957 3.000 0 0 0
210 1 1 0 0.135 14.735 3.000 0 0 0
211 1 1 0 0.833 13.501 3.000 0 0 0
212 1 1 0 0.113 12.279 3.000 0 0 0
213 1 1 0 0.810 11.045 3.000 0 0 0
214 1 1 0 0.090 9.824 3.000 0 0 0
215 1 1 0 0.788 8.589 3.000 0 0 0
216 1 1 0 0.068 7.368 3.000 0 0 0
217 1 1 0 0.765 6.133 3.000 0 0 0
218 1 1 0 0.045 4.912 3.000 0 0 0
219 1 1 0 0.743 3.677 3.000 0 0 0
220 1 1 0 0.023 2.456 3.000 0 0 0
221 1 1 0 0.720 1.221 3.000 0 0 0
222 1 1 0 0.000 0.000 3.000 0 0 0
223 1 1 0 4.254 232.063 3.000 0 0 0
224 1 1 0 4.951 230.828 3.000 0 0 0
225 1 1 0 4.231 229.607 3.000 0 0 0
226 1 1 0 4.929 228.372 3.000 0 0 0
227 1 1 0 4.209 227.151 3.000 0 0 0
228 1 1 0 4.906 225.917 3.000 0 0 0
229 1 1 0 4.186 224.695 3.000 0 0 0
230 1 1 0 4.884 223.461 3.000 0 0 0
231 1 1 0 4.164 222.239 3.000 0 0 0
232 1 1 0 4.861 221.005 3.000 0 0 0
233 1 1 0 4.141 219.783 3.000 0 0 0
234 1 1 0 4.839 218.549 3.000 0 0 0
235 1 1 0 4.119 217.327 3.000 0 0 0
236 1 1 0 4.816 216.093 3.000 0 0 0
237 1 1 0 4.096 214.871 3.000 0 0 0
238 1 1 0 4.794 213.637 3.000 0 0 0
239 1 1 0 4.074 212.416 3.000 0 0 0
240 1 1 0 4.771 211.181 3.000 0 0 0
241 1 1 0 4.051 209.960 3.000 0 0 0
242 1 1 0 4.749 208.725 3.000 0 0 0
243 1 1 0 4.029 207.504 3.000 0 0 0
244 1 1 0 4.726 206.269 3.000 0 0 0
245 1 1 0 4.006 205.048 3.000 0 0 0
246 1 1 0 4.704 203.813 3.000 0 0 0
247 1 1 0 3.984 202.592 3.000 0 0 0
248 1 1 0 4.681 201.358 3.000 0 0 0
249 1 1 0 3.961 200.136 3.000 0 0 0
250 1 1 0 4.659 198.902 3.000 0 0 0
251 1 1 0 3.939 197.680 3.000 0 0 0
252 1 1 0 4.636 196.446 3.000 0 0 0
253 1 1 0 3.916 195.224 3.000 0 0 0
254 1 1 0 4.614 193.990 3.000 0 0 0
255 1 1 0 3.894 192.768 3.000 0 0 0
256 1 1 0 4.591 191.534 3.000 0 0 0
257 1 1 0 3.871 190.313 3.000 0 0 0
258 1 1 0 4.569 189.078 3.000 0 0 0
259 1 1 0 3.849 187.857 3.000 0 0 0
260 1 1 0 4.546 186.622 3.000 0 0 0
261 1 1 0 3.826 185.401 3.000 0 0 0
262 1 1 0 4.524 184.166 3.000 0 0 0
263 1 1 0 3.804 182.945 3.000 0 0 0
264 1 1 0 4.501 181.710 3.000 0 0 0
265 1 1 0 3.781 180.489 3.000 0 0 0
266 1 1 0 4.479 179.254 3.000 0 0 0
267 1 1 0 3.759 178.033 3.000 0 0 0
268 1 1 0 4.456 176.799 3.000 0 0 0
269 1 1 0 3.736 175.577 3.000 0 0 0
270 1 1 0 4.434 174.343 3.000 0 0 0
271 1 1 0 3.714 173.121 3.000 0 0 0
272 1 1 0 4.411 171.887 3.000 0 0 0
273 1 1 0 3.691 170.665 3.000 0 0 0
274 1 1 0 4.389 169.431 3.000 0 0 0
275 1 1 0 3.669 168.209 3.000 0 0 0
276 1 1 0 4.366 166.975 3.000 0 0 0
277 1 1 0 3.646 165.754 3.000 0 0 0
278 1 1 0 4.344 164.519 3.000 0 0 0
279 1 1 0 3.624 163.298 3.000 0 0 0
280 1 1 0 4.321 162.063 3.000 0 0 0
281 1 1 0 3.601 160.842 3.000 0 0 0
282 1 1 0 4.299 159.607 3.000 0 0 0
283 1 1 0 3.579 158.386 3.000 0 0 0
284 1 1 0 4.276 157.151 3.000 0 0 0
285 1 1 0 3.556 155.930 3.000 0 0 0
286 1 1 0 4.254 154.696 3.000 0 0 0
287 1 1 0 3.534 153.474 3.000 0 0 0
288 1 1 0 4.231 152.240 3.000 0 0 0
289 1 1 0 3.511 151.018 3.000 0 0 0
290 1 1 0 4.209 149.784 3.000 0 0 0
291 1 1 0 3.489 148.562 3.000 0 0 0
292 1 1 0 4.186 147.328 3.000 0 0 0
293 1 1 0 3.466 146.106 3.000 0 0 0
294 1 1 0 4.164 144.872 3.000 0 0 0
295 1 1 0 3.444 143.650 3.000 0 0 0
296 1 1 0 4.141 142.416 3.000 0 0 0
297 1 1 0 3.421 141.195 3.000 0 0 0
298 1 1 0 4.119 139.960 3.000 0 0 0
299 1 1 0 3.398 138.739 3.000 0 0 0
300 1 1 0 4.096 137.504 3.000 0 0 0
301 1 1 0 3.376 136.283 3.000 0 0 0
302 1 1 0 4.074 135.048 3.000 0 0 0
303 1 1 0 3.353 133.827 3.000 0 0 0
304 1 1 0 4.051 132.592 3.000 0 0 0
305 1 1 0 3.331 131.371 3.000 0 0 0
306 1 1 0 4.029 130.137 3.000 0 0 0
307 1 1 0 3.308 128.915 3.000 0 0 0
308 1 1 0 4.006 127.681 3.000 0 0 0
309 1 1 0 3.286 126.459 3.000 0 0 0
310 1 1 0 3.984 125.225 3.000 0 0 0
311 1 1 0 3.263 124.003 3.000 0 0 0
312 1 1 0 3.961 122.769 3.000 0 0 0
313 1 1 0 3.241 121.547 3.000 0 0 0
314 1 1 0 3.939 120.313 3.000 0 0 0
315 1 1 0 3.218 119.092 3.000 0 0 0
316 1 1 0 3.916 117.857 3.000 0 0 0
317 1 1 0 3.196 116.636 3.000 0 0 0
318 1 1 0 3.894 115.401 3.000 0 0 0
319 1 1 0 3.173 114.180 3.000 0 0 0
320 1 1 0 3.871 112.945 3.000 0 0 0
321 1 1 0 3.151 111.724 3.000 0 0 0
322 1 1 0 3.849 110.489 3.000 0 0 0
323 1 1 0 3.128 109.268 3.000 0 0 0
324 1 1 0 3.826 108.033 3.000 0 0 0
325 1 1 0 3.106 106.812 3.000 0 0 0
326 1 1 0 3.804 105.578 3.000 0 0 0
327 1 1 0 3.083 104.356 3.000 0 0 0
328 1 1 0 3.781 103.122 3.000 0 0 0
329 1 1 0 3.061 101.900 3.000 0 0 0
330 1 1 0 3.759 100.666 3.000 0 0 0
331 1 1 0 3.038 99.444 3.000 0 0 0
332 1 1 0 3.736 98.210 3.000 0 0 0
333 1 1 0 3.016 96.988 3.000 0 0 0
334 1 1 0 3.714 95.754 3.000 0 0 0
335 1 1 0 2.993 94.533 3.000 0 0 0
336 1 1 0 3.691 93.298 3.000 0 0 0
337 1 1 0 2.971 92.077 3.000 0 0 0
338 1 1 0 3.669 90.842 3.000 0 0 0
339 1 1 0 2.948 89.621 3.000 0 0 0
340 1 1 0 3.646 88.386 3.000 0 0 0
341 1 1 0 2.926 87.165 3.000 0 0 0
342 1 1 0 3.624 85.930 3.000 0 0 0
343 1 1 0 2.903 84.709 3.000 0 0 0
344 1 1 0 3.601 83.475 3.000 0 0 0
345 1 1 0 2.881 82.253 3.000 0 0 0
346 1 1 0 3.579 81.019 3.000 0 0 0
347 1 1 0 2.858 79.797 3.000 0 0 0
348 1 1 0 3.556 78.563 3.000 0 0 0
349 1 1 0 2.836 77.341 3.000 0 0 0
350 1 1 0 3.534 76.107 3.000 0 0 0
351 1 1 0 2.813 74.885 3.000 0 0 0
352 1 1 0 3.511 73.651 3.000 0 0 0
353 1 1 0 2.791 72.429 3.000 0 0 0
354 1 1 0 3.489 71.195 3.000 0 0 0
355 1 1 0 2.768 69.974 3.000 0 0 0
356 1 1 0 3.466 68.739 3.000 0 0 0
357 1 1 0 2.746 67.518 3.000 0 0 0
358 1 1 0 3.444 66.283 3.000 0 0 0
359 1 1 0 2.723 65.062 3.000 0 0 0
360 1 1 0 3.421 63.827 3.000 0 0 0
361 1 1 0 2.701 62.606 3.000 0 0 0
362 1 1 0 3.398 61.371 3.000 0 0 0
363 1 1 0 2.678 60.150 3.000 0 0 0
364 1 1 0 3.376 58.916 3.000 0 0 0
365 1 1 0 2.656 57.694 3.000 0 0 0
366 1 1 0 3.353 56.460 3.000 0 0 0
367 1 1 0 2.633 55.238 3.000 0 0 0
368 1 1 0 3.331 54.004 3.000 0 0 0
369 1 1 0 2.611 52.782 3.000 0 0 0
370 1 1 0 3.308 51.548 3.000 0 0 0
371 1 1 0 2.588 50.326 3.000 0 0 0
372 1 1 0 3.286 49.092 3.000 0 0 0
373 1 1 0 2.566 47.870 3.000 0 0 0
374 1 1 0 3.263 46.636 3.000 0 0 0
375 1 1 0 2.543 45.415 3.000 0 0 0
376 1 1 0 3.241 44.180 3.000 0 0 0
377 1 1 0 2.521 42.959 3.000 0 0 0
378 1 1 0 3.218 41.724 3.000 0 0 0
379 1 1 0 2.498 40.503 3.000 0 0 0
380 1 1 0 3.196 39.268 3.000 0 0 0
381 1 1 0 2.476 38.047 3.000 0 0 0
382 1 1 0 3.173 36.812 3.000 0 0 0
383 1 1 0 2.453 35.591 3.000 0 0 0
384 1 1 0 3.151 34.357 3.000 0 0 0
385 1 1 0 2.431 33.135 3.000 0 0 0
386 1 1 0 3.128 31.901 3.000 0 0 0
387 1 1 0 2.408 30.679 3.000 0 0 0
388 1 1 0 3.106 29.445 3.000 0 0 0
389 1 1 0 2.386 28.223 3.000 0 0 0
390 1 1 0 3.083 26.989 3.000 0 0 0
391 1 1 0 2.363 25.767 3.000 0 0 0
392 1 1 0 3.061 24.533 3.000 0 0 0
393 1 1 0 2.341 23.312 3.000 0 0 0
394 1 1 0 3.038 22.077 3.000 0 0 0
395 1 1 0 2.318 20.856 3.000 0 0 0
396 1 1 0 3.016 19.621 3.000 0 0 0
397 1 1 0 2.296 18.400 3.000 0 0 0
398 1 1 0 2.993 17.165 3.000 0 0 0
399 1 1 0 2.273 15.944 3.000 0 0 0
400 1 1 0 2.971 14.709 3.000 0 0 0
401 1 1 0 2.251 13.488 3.000 0 0 0
402 1 1 0 2.948 12.253 3.000 0 0 0
403 1 1 0 2.228 11.032 3.000 0 0 0
404 1 1 0 2.926 9.798 3.000 0 0 0
405 1 1 0 2.206 8.576 3.000 0 0 0
406 1 1 0 2.903 7.342 3.000 0 0 0
407 1 1 0 2.183 6.120 3.000 0 0 0
408 1 1 0 2.881 4.886 3.000 0 0 0
409 1 1 0 2.161 3.664 3.000 0 0 0
410 1 1 0 2.858 2.430 3.000 0 0 0
411 1 1 0 2.138 1.208 3.000 0 0 0
412 1 1 0 7.090 232.037 3.000 0 0 0
413 1 1 0 6.369 230.815 3.000 0 0 0
414 1 1 0 7.067 229.581 3.000 0 0 0
415 1 1 0 6.347 228.359 3.000 0 0 0
416 1 1 0 7.045 227.125 3.000 0 0 0
417 1 1 0 6.324 225.904 3.000 0 0 0
418 1 1 0 7.022 224.669 3.000 0 0 0
419 1 1 0 6.302 223.448 3.000 0 0 0
420 1 1 0 7.000 222.213 3.000 0 0 0
421 1 1 0 6.279 220.992 3.000 0 0 0
422 1 1 0 6.977 219.757 3.000 0 0 0
423 1 1 0 6.257 218.536 3.000 0 0 0
424 1 1 0 6.955 217.301 3.000 0 0 0
425 1 1 0 6.234 216.080 3.000 0 0 0
426 1 1 0 6.932 214.845 3.000 0 0 0
427 1 1 0 6.212 213.624 3.000 0 0 0
428 1 1 0 6.910 212.390 3.000 0 0 0
429 1 1 0 6.189 211.168 3.000 0 0 0
430 1 1 0 6.887 209.934 3.000 0 0 0
431 1 1 0 6.167 208.712 3.000 0 0 0
432 1 1 0 6.864 207.478 3.000 0 0 0
433 1 1 0 6.144 206.256 3.000 0 0 0
434 1 1 0 6.842 205.022 3.000 0 0 0
435 1 1 0 6.122 203.800 3.000 0 0 0
436 1 1 0 6.819 202.566 3.000 0 0 0
437 1 1 0 6.099 201.345 3.000 0 0 0
438 1 1 0 6.797 200.110 3.000 0 0 0
439 1 1 0 6.077 198.889 3.000 0 0 0
440 1 1 0 6.774 197.654 3.000 0 0 0
441 1 1 0 6.054 196.433 3.000 0 0 0
442 1 1 0 6.752 195.198 3.000 0 0 0
443 1 1 0 6.032 193.977 3.000 0 0 0
444 1 1 0 6.729 192.742 3.000 0 0 0
445 1 1 0 6.009 191.521 3.000 0 0 0
446 1 1 0 6.707 190.287 3.000 0 0 0
447 1 1 0 5.987 189.065 3.000 0 0 0
448 1 1 0 6.684 187.831 3.000 0 0 0
449 1 1 0 5.964 186.609 3.000 0 0 0
450 1 1 0 6.662 185.375 3.000 0 0 0
451 1 1 0 5.942 184.153 3.000 0 0 0
452 1 1 0 6.639 182.919 3.000 0 0 0
453 1 1 0 5.919 181.697 3.000 0 0 0
454 1 1 0 6.617 180.463 3.000 0 0 0
455 1 1 0 5.897 179.241 3.000 0 0 0
456 1 1 0 6.594 178.007 3.000 0 0 0
457 1 1 0 5.874 176.786 3.000 0 0 0
458 1 1 0 6.572 175.551 3.000 0 0 0
459 1 1 0 5.852 174.330 3.000 0 0 0
460 1 1 0 6.549 173.095 3.000 0 0 0
461 1 1 0 5.829 171.874 3.000 0 0 0
462 1 1 0 6.527 170.639 3.000 0 0 0
463 1 1 0 5.807 169.418 3.000 0 0 0
464 1 1 0 6.504 168.183 3.000 0 0 0
465 1 1 0 5.784 166.962 3.000 0 0 0
466 1 1 0 6.482 165.728 3.000 0 0 0
467 1 1 0 5.762 164.506 3.000 0 0 0
468 1 1 0 6.459 163.272 3.000 0 0 0
469 1 1 0 5.739 162.050 3.000 0 0 0
470 1 1 0 6.437 160.816 3.000 0 0 0
471 1 1 0 5.717 159.594 3.000 0 0 0
472 1 1 0 6.414 158.360 3.000 0 0 0
473 1 1 0 5.694 157.138 3.000 0 0 0
474 1 1 0 6.392 155.904 3.000 0 0 0
475 1 1 0 5.672 154.683 3.000 0 0 0
476 1 1 0 6.369 153.448 3.000 0 0 0
477 1 1 0 5.649 152.227 3.000 0 0 0
478 1 1 0 6.347 150.992 3.000 0 0 0
479 1 1 0 5.627 149.771 3.000 0 0 0
480 1 1 0 6.324 148.536 3.000 0 0 0
481 1 1 0 5.604 147.315 3.000 0 0 0
482 1 1 0 6.302 146.080 3.000 0 0 0
483 1 1 0 5.582 144.859 3.000 0 0 0
484 1 1 0 6.279 143.624 3.000 0 0 0
485 1 1 0 5.559 142.403 3.000 0 0 0
486 1 1 0 6.257 141.169 3.000 0 0 0
487 1 1 0 5.537 139.947 3.000 0 0 0
488 1 1 0 6.234 138.713 3.000 0 0 0
489 1 1 0 5.514 137.491 3.000 0 0 0
490 1 1 0 6.212 136.257 3.000 0 0 0
491 1 1 0 5.492 135.035 3.000 0 0 0
492 1 1 0 6.189 133.801 3.000 0 0 0
493 1 1 0 5.469 132.579 3.000 0 0 0
494 1 1 0 6.167 131.345 3.000 0 0 0
495 1 1 0 5.447 130.124 3.000 0 0 0
496 1 1 0 6.144 128.889 3.000 0 0 0
497 1 1 0 5.424 127.668 3.000 0 0 0
498 1 1 0 6.122 126.433 3.000 0 0 0
499 1 1 0 5.402 125.212 3.000 0 0 0
500 1 1 0 6.099 123.977 3.000 0 0 0
501 1 1 0 5.379 122.756 3.000 0 0 0
502 1 1 0 6.077 121.521 3.000 0 0 0
503 1 1 0 5.357 120.300 3.000 0 0 0
504 1 1 0 6.054 119.066 3.000 0 0 0
505 1 1 0 5.334 117.844 3.000 0 0 0
506 1 1 0 6.032 116.610 3.000 0 0 0
507 1 1 0 5.312 115.388 3.000 0 0 0
508 1 1 0 6.009 114.154 3.000 0 0 0
509 1 1 0 5.289 112.932 3.000 0 0 0
510 1 1 0 5.987 111.698 3.000 0 0 0
511 1 1 0 5.267 110.476 3.000 0 0 0
512 1 1 0 5.964 109.242 3.000 0 0 0
513 1 1 0 5.244 108.020 3.000 0 0 0
514 1 1 0 5.942 106.786 3.000 0 0 0
515 1 1 0 5.222 105.565 3.000 0 0 0
516 1 1 0 5.919 104.330 3.000 0 0 0
517 1 1 0 5.199 103.109 3.000 0 0 0
518 1 1 0 5.897 101.874 3.000 0 0 0
519 1 1 0 5.177 100.653 3.000 0 0 0
520 1 1 0 5.874 99.418 3.000 0 0 0
521 1 1 0 5.154 98.197 3.000 0 0 0
522 1 1 0 5.852 96.962 3.000 0 0 0
523 1 1 0 5.131 95.741 3.000 0 0 0
524 1 1 0 5.829 94.507 3.000 0 0 0
525 1 1 0 5.109 93.285 3.000 0 0 0
526 1 1 0 5.807 92.051 3.000 0 0 0
527 1 1 0 5.086 90.829 3.000 0 0 0
528 1 1 0 5.784 89.595 3.000 0 0 0
529 1 1 0 5.064 88.373 3.000 0 0 0
530 1 1 0 5.762 87.139 3.000 0 0 0
531 1 1 0 5.041 85.917 3.000 0 0 0
532 1 1 0 5.739 84.683 3.000 0 0 0
533 1 1 0 5.019 83.462 3.000 0 0 0
534 1 1 0 5.717 82.227 3.000 0 0 0
535 1 1 0 4.996 81.006 3.000 0 0 0
536 1 1 0 5.694 79.771 3.000 0 0 0
537 1 1 0 4.974 78.550 3.000 0 0 0
538 1 1 0 5.672 77.315 3.000 0 0 0
539 1 1 0 4.951 76.094 3.000 0 0 0
540 1 1 0 5.649 74.859 3.000 0 0 0
541 1 1 0 4.929 73.638 3.000 0 0 0
542 1 1 0 5.627 72.403 3.000 0 0 0
543 1 1 0 4.906 71.182 3.000 0 0 0
544 1 1 0 5.604 69.948 3.000 0 0 0
545 1 1 0 4.884 68.726 3.000 0 0 0
546 1 1 0 5.582 67.492 3.000 0 0 0
547 1 1 0 4.861 66.270 3.000 0 0 0
548 1 1 0 5.559 65.036 3.000 0 0 0
549 1 1 0 4.839 63.814 3.000 0 0 0
550 1 1 0 5.537 62.580 3.000 0 0 0
551 1 1 0 4.816 61.358 3.000 0 0 0
552 1 1 0 5.514 60.124 3.000 0 0 0
553 1 1 0 4.794 58.903 3.000 0 0 0
554 1 1 0 5.492 57.668 3.000 0 0 0
555 1 1 0 4.771 56.447 3.000 0 0 0
556 1 1 0 5.469 55.212 3.000 0 0 0
557 1 1 0 4.749 53.991 3.000 0 0 0
558 1 1 0 5.447 52.756 3.000 0 0 0
559 1 1 0 4.726 51.535 3.000 0 0 0
560 1 1 0 5.424 50.300 3.000 0 0 0
561 1 1 0 4.704 49.079 3.000 0 0 0
562 1 1 0 5.402 47.845 3.000 0 0 0
563 1 1 0 4.681 46.623 3.000 0 0 0
564 1 1 0 5.379 45.389 3.000 0 0 0
565 1 1 0 4.659 44.167 3.000 0 0 0
566 1 1 0 5.357 42.933 3.000 0 0 0
567 1 1 0 4.636 41.711 3.000 0 0 0
568 1 1 0 5.334 40.477 3.000 0 0 0
569 1 1 0 4.614 39.255 3.000 0 0 0
570 1 1 0 5.312 38.021 3.000 0 0 0
571 1 1 0 4.591 36.799 3.000 0 0 0
572 1 1 0 5.289 35.565 3.000 0 0 0
573 1 1 0 4.569 34.344 3.000 0 0 0
574 1 1 0 5.267 33.109 3.000 0 0 0
575 1 1 0 4.546 31.888 3.000 0 0 0
576 1 1 0 5.244 30.653 3.000 0 0 0
577 1 1 0 4.524 29.432 3.000 0 0 0
578 1 1 0 5.222 28.197 3.000 0 0 0
579 1 1 0 4.501 26.976 3.000 0 0 0
580 1 1 0 5.199 25.741 3.000 0 0 0
581 1 1 0 4.479 24.520 3.000 0 0 0
582 1 1 0 5.177 23.286 3.000 0 0 0
583 1 1 0 4.456 22.064 3.000 0 0 0
584 1 1 0 5.154 20.830 3.000 0 0 0
585 1 1 0 4.434 19.608 3.000 0 0 0
586 1 1 0 5.131 18.374 3.000 0 0 0
587 1 1 0 4.411 17.152 3.000 0 0 0
588 1 1 0 5.109 15.918 3.000 0 0 0
589 1 1 0 4.389 14.696 3.000 0 0 0
590 1 1 0 5.086 13.462 3.000 0 0 0
591 1 1 0 4.366 12.241 3.000 0 0 0
592 1 1 0 5.064 11.006 3.000 0 0 0
593 1 1 0 4.344 9.785 3.000 0 0 0
594 1 1 0 5.041 8.550 3.000 0 0 0
595 1 1 0 4.321 7.329 3.000 0 0 0
596 1 1 0 5.019 6.094 3.000 0 0 0
597 1 1 0 4.299 4.873 3.000 0 0 0
598 1 1 0 4.996 3.638 3.000 0 0 0
599 1 1 0 4.276 2.417 3.000 0 0 0
600 1 1 0 4.974 1.182 3.000 0 0 0
601 1 1 0 8.507 232.024 3.000 0 0 0
602 1 1 0 9.205 230.789 3.000 0 0 0
603 1 1 0 8.485 229.568 3.000 0 0 0
604 1 1 0 9.183 228.333 3.000 0 0 0
605 1 1 0 8.462 227.112 3.000 0 0 0
606 1 1 0 9.160 225.878 3.000 0 0 0
607 1 1 0 8.440 224.656 3.000 0 0 0
608 1 1 0 9.138 223.422 3.000 0 0 0
609 1 1 0 8.417 222.200 3.000 0 0 0
610 1 1 0 9.115 220.966 3.000 0 0 0
611 1 1 0 8.395 219.744 3.000 0 0 0
612 1 1 0 9.093 218.510 3.000 0 0 0
613 1 1 0 8.372 217.288 3.000 0 0 0
614 1 1 0 9.070 216.054 3.000 0 0 0
615 1 1 0 8.350 214.833 3.000 0 0 0
616 1 1 0 9.048 213.598 3.000 0 0 0
617 1 1 0 8.327 212.377 3.000 0 0 0
618 1 1 0 9.025 211.142 3.000 0 0 0
619 1 1 0 8.305 209.921 3.000 0 0 0
620 1 1 0 9.003 208.686 3.000 0 0 0
621 1 1 0 8.282 207.465 3.000 0 0 0
622 1 1 0 8.980 206.230 3.000 0 0 0
623 1 1 0 8.260 205.009 3.000 0 0 0
624 1 1 0 8.958 203.774 3.000 0 0 0
625 1 1 0 8.237 202.553 3.000 0 0 0
626 1 1 0 8.935 201.319 3.000 0 0 0
627 1 1 0 8.215 200.097 3.000 0 0 0
628 1 1 0 8.913 198.863 3.000 0 0 0
629 1 1 0 8.192 197.641 3.000 0 0 0
630 1 1 0 8.890 196.407 3.000 0 0 0
631 1 1 0 8.170 195.185 3.000 0 0 0
632 1 1 0 8.868 193.951 3.000 0 0 0
633 1 1 0 8.147 192.729 3.000 0 0 0
634 1 1 0 8.845 191.495 3.000 0 0 0
635 1 1 0 8.125 190.274 3.000 0 0 0
636 1 1 0 8.823 189.039 3.000 0 0 0
637 1 1 0 8.102 187.818 3.000 0 0 0
638 1 1 0 8.800 186.583 3.000 0 0 0
639 1 1 0 8.080 185.362 3.000 0 0 0
640 1 1 0 8.778 184.127 3.000 0 0 0
641 1 1 0 8.057 182.906 3.000 0 0 0
642 1 1 0 8.755 181.671 3.000 0 0 0
643 1 1 0 8.035 180.450 3.000 0 0 0
644 1 1 0 8.733 179.216 3.000 0 0 0
645 1 1 0 8.012 177.994 3.000 0 0 0
646 1 1 0 8.710 176.760 3.000 0 0 0
647 1 1 0 7.990 175.538 3.000 0 0 0
648 1 1 0 8.688 174.304 3.000 0 0 0
649 1 1 0 7.967 173.082 3.000 0 0 0
650 1 1 0 8.665 171.848 3.000 0 0 0
651 1 1 0 7.945 170.626 3.000 0 0 0
652 1 1 0 8.643 169.392 3.000 0 0 0
653 1 1 0 7.922 168.170 3.000 0 0 0
654 1 1 0 8.620 166.936 3.000 0 0 0
655 1 1 0 7.900 165.715 3.000 0 0 0
656 1 1 0 8.598 164.480 3.000 0 0 0
657 1 1 0 7.877 163.259 3.000 0 0 0
658 1 1 0 8.575 162.024 3.000 0 0 0
659 1 1 0 7.855 160.803 3.000 0 0 0
660 1 1 0 8.552 159.568 3.000 0 0 0
661 1 1 0 7.832 158.347 3.000 0 0 0
662 1 1 0 8.530 157.112 3.000 0 0 0
663 1 1 0 7.810 155.891 3.000 0 0 0
664 1 1 0 8.507 154.657 3.000 0 0 0
665 1 1 0 7.787 153.435 3.000 0 0 0
666 1 1 0 8.485 152.201 3.000 0 0 0
667 1 1 0 7.765 150.979 3.000 0 0 0
668 1 1 0 8.462 149.745 3.000 0 0 0
669 1 1 0 7.742 148.523 3.000 0 0 0
670 1 1 0 8.440 147.289 3.000 0 0 0
671 1 1 0 7.720 146.067 3.000 0 0 0
672 1 1 0 8.417 144.833 3.000 0 0 0
673 1 1 0 7.697 143.611 3.000 0 0 0
674 1 1 0 8.395 142.377 3.000 0 0 0
675 1 1 0 7.675 141.156 3.000 0 0 0
676 1 1 0 8.372 139.921 3.000 0 0 0
677 1 1 0 7.652 138.700 3.000 0 0 0
678 1 1 0 8.350 137.465 3.000 0 0 0
679 1 1 0 7.630 136.244 3.000 0 0 0
680 1 1 0 8.327 135.009 3.000 0 0 0
681 1 1 0 7.607 133.788 3.000 0 0 0
682 1 1 0 8.305 132.553 3.000 0 0 0
683 1 1 0 7.585 131.332 3.000 0 0 0
684 1 1 0 8.282 130.098 3.000 0 0 0
685 1 1 0 7.562 128.876 3.000 0 0 0
686 1 1 0 8.260 127.642 3.000 0 0 0
687 1 1 0 7.540 126.420 3.000 0 0 0
688 1 1 0 8.237 125.186 3.000 0 0 0
689 1 1 0 7.517 123.964 3.000 0 0 0
690 1 1 0 8.215 122.730 3.000 0 0 0
691 1 1 0 7.495 121.508 3.000 0 0 0
692 1 1 0 8.192 120.274 3.000 0 0 0
693 1 1 0 7.472 119.053 3.000 0 0 0
694 1 1 0 8.170 117.818 3.000 0 0 0
695 1 1 0 7.450 116.597 3.000 0 0 0
696 1 1 0 8.147 115.362 3.000 0 0 0
697 1 1 0 7.427 114.141 3.000 0 0 0
698 1 1 0 8.125 112.906 3.000 0 0 0
699 1 1 0 7.405 111.685 3.000 0 0 0
700 1 1 0 8.102 110.450 3.000 0 0 0
701 1 1 0 7.382 109.229 3.000 0 0 0
702 1 1 0 8.080 107.994 3.000 0 0 0
703 1 1 0 7.360 106.773 3.000 0 0 0
704 1 1 0 8.057 105.539 3.000 0 0 0
705 1 1 0 7.337 104.317 3.000 0 0 0
706 1 1 0 8.035 103.083 3.000 0 0 0
707 1 1 0 7.315 101.861 3.000 0 0 0
708 1 1 0 8.012 100.627 3.000 0 0 0
709 1 1 0 7.292 99.405 3.000 0 0 0
710 1 1 0 7.990 98.171 3.000 0 0 0
711 1 1 0 7.270 96.949 3.000 0 0 0
712 1 1 0 7.967 95.715 3.000 0 0 0
713 1 1 0 7.247 94.494 3.000 0 0 0
714 1 1 0 7.945 93.259 3.000 0 0 0
715 1 1 0 7.225 92.038 3.000 0 0 0
716 1 1 0 7.922 90.803 3.000 0 0 0
717 1 1 0 7.202 89.582 3.000 0 0 0
718 1 1 0 7.900 88.347 3.000 0 0 0
719 1 1 0 7.180 87.126 3.000 0 0 0
720 1 1 0 7.877 85.891 3.000 0 0 0
721 1 1 0 7.157 84.670 3.000 0 0 0
722 1 1 0 7.855 83.436 3.000 0 0 0
723 1 1 0 7.135 82.214 3.000 0 0 0
724 1 1 0 7.832 80.980 3.000 0 0 0
725 1 1 0 7.112 79.758 3.000 0 0 0
726 1 1 0 7.810 78.524 3.000 0 0 0
727 1 1 0 7.090 77.302 3.000 0 0 0
728 1 1 0 7.787 76.068 3.000 0 0 0
729 1 1 0 7.067 74.846 3.000 0 0 0
730 1 1 0 7.765 73.612 3.000 0 0 0
731 1 1 0 7.045 72.390 3.000 0 0 0
732 1 1 0 7.742 71.156 3.000 0 0 0
733 1 1 0 7.022 69.935 3.000 0 0 0
734 1 1 0 7.720 68.700 3.000 0 0 0
735 1 1 0 7.000 67.479 3.000 0 0 0
736 1 1 0 7.697 66.244 3.000 0 0 0
737 1 1 0 6.977 65.023 3.000 0 0 0
738 1 1 0 7.675 63.788 3.000 0 0 0
739 1 1 0 6.955 62.567 3.000 0 0 0
740 1 1 0 7.652 61.332 3.000 0 0 0
741 1 1 0 6.932 60.111 3.000 0 0 0
742 1 1 0 7.630 58.877 3.000 0 0 0
743 1 1 0 6.910 57.655 3.000 0 0 0
744 1 1 0 7.607 56.421 3.000 0 0 0
745 1 1 0 6.887 55.199 3.000 0 0 0
746 1 1 0 7.585 53.965 3.000 0 0 0
747 1 1 0 6.864 52.743 3.000 0 0 0
748 1 1 0 7.562 51.509 3.000 0 0 0
749 1 1 0 6.842 50.287 3.000 0 0 0
750 1 1 0 7.540 49.053 3.000 0 0 0
751 1 1 0 6.819 47.832 3.000 0 0 0
752 1 1 0 7.517 46.597 3.000 0 0 0
753 1 1 0 6.797 45.376 3.000 0 0 0
754 1 1 0 7.495 44.141 3.000 0 0 0
755 1 1 0 6.774 42.920 3.000 0 0 0
756 1 1 0 7.472 41.685 3.000 0 0 0
757 1 1 0 6.752 40.464 3.000 0 0 0
758 1 1 0 7.450 39.229 3.000 0 0 0
759 1 1 0 6.729 38.008 3.000 0 0 0
760 1 1 0 7.427 36.773 3.000 0 0 0
761 1 1 0 6.707 35.552 3.000 0 0 0
762 1 1 0 7.405 34.318 3.000 0 0 0
763 1 1 0 6.684 33.096 3.000 0 0 0
764 1 1 0 7.382 31.862 3.000 0 0 0
765 1 1 0 6.662 30.640 3.000 0 0 0
766 1 1 0 7.360 29.406 3.000 0 0 0
767 1 1 0 6.639 28.184 3.000 0 0 0
768 1 1 0 7.337 26.950 3.000 0 0 0
769 1 1 0 6.617 25.728 3.000 0 0 0
770 1 1 0 7.315 24.494 3.000 0 0 0
771 1 1 0 6.594 23.273 3.000 0 0 0
772 1 1 0 7.292 22.038 3.000 0 0 0
773 1 1 0 6.572 20.817 3.000 0 0 0
774 1 1 0 7.270 19.582 3.000 0 0 0
775 1 1 0 6.549 18.361 3.000 0 0 0
776 1 1 0 7.247 17.126 3.000 0 0 0
777 1 1 0 6.527 15.905 3.000 0 0 0
778 1 1 0 7.225 14.670 3.000 0 0 0
779 1 1 0 6.504 13.449 3.000 0 0 0
780 1 1 0 7.202 12.215 3.000 0 0 0
781 1 1 0 6.482 10.993 3.000 0 0 0
782 1 1 0 7.180 9.759 3.000 0 0 0
783 1 1 0 6.459 8.537 3.000 0 0 0
784 1 1 0 7.157 7.303 3.000 0 0 0
785 1 1 0 6.437 6.081 3.000 0 0 0
786 1 1 0 7.135 4.847 3.000 0 0 0
787 1 1 0 6.414 3.625 3.000 0 0 0
788 1 1 0 7.112 2.391 3.000 0 0 0
789 1 1 0 6.392 1.169 3.000 0 0 0
790 1 1 0 11.343 231.998 3.000 0 0 0
791 1 1 0 10.623 230.776 3.000 0 0 0
792 1 1 0 11.321 229.542 3.000 0 0 0
793 1 1 0 10.601 228.320 3.000 0 0 0
794 1 1 0 11.298 227.086 3.000 0 0 0
795 1 1 0 10.578 225.865 3.000 0 0 0
796 1 1 0 11.276 224.630 3.000 0 0 0
797 1 1 0 10.556 223.409 3.000 0 0 0
798 1 1 0 11.253 222.174 3.000 0 0 0
799 1 1 0 10.533 220.953 3.000 0 0 0
800 1 1 0 11.231 219.718 3.000 0 0 0
801 1 1 0 10.511 218.497 3.000 0 0 0
802 1 1 0 11.208 217.262 3.000 0 0 0
803 1 1 0 10.488 216.041 3.000 0 0 0
804 1 1 0 11.186 214.807 3.000 0 0 0
805 1 1 0 10.466 213.585 3.000 0 0 0
806 1 1 0 11.163 212.351 3.000 0 0 0
807 1 1 0 10.443 211.129 3.000 0 0 0
808 1 1 0 11.141 209.895 3.000 0 0 0
809 1 1 0 10.421 208.673 3.000 0 0 0
810 1 1 0 11.118 207.439 3.000 0 0 0
811 1 1 0 10.398 206.217 3.000 0 0 0
812 1 1 0 11.096 204.983 3.000 0 0 0
813 1 1 0 10.376 203.761 3.000 0 0 0
814 1 1 0 11.073 202.527 3.000 0 0 0
815 1 1 0 10.353 201.306 3.000 0 0 0
816 1 1 0 11.051 200.071 3.000 0 0 0
817 1 1 0 10.331 198.850 3.000 0 0 0
818 1 1 0 11.028 197.615 3.000 0 0 0
819 1 1 0 10.308 196.394 3.000 0 0 0
820 1 1 0 11.006 195.159 3.000 0 0 0
821 1 1 0 10.285 193.938 3.000 0 0 0
822 1 1 0 10.983 192.703 3.000 0 0 0
823 1 1 0 10.263 191.482 3.000 0 0 0
824 1 1 0 10.961 190.248 3.000 0 0 0
825 1 1 0 10.240 189.026 3.000 0 0 0
826 1 1 0 10.938 187.792 3.000 0 0 0
827 1 1 0 10.218 186.570 3.000 0 0 0
828 1 1 0 10.916 185.336 3.000 0 0 0
829 1 1 0 10.195 184.114 3.000 0 0 0
830 1 1 0 10.893 182.880 3.000 0 0 0
831 1 1 0 10.173 181.658 3.000 0 0 0
832 1 1 0 10.871 180.424 3.000 0 0 0
833 1 1 0 10.150 179.203 3.000 0 0 0
834 1 1 0 10.848 177.968 3.000 0 0 0
835 1 1 0 10.128 176.747 3.000 0 0 0
836 1 1 0 10.826 175.512 3.000 0 0 0
837 1 1 0 10.105 174.291 3.000 0 0 0
838 1 1 0 10.803 173.056 3.000 0 0 0
839 1 1 0 10.083 171.835 3.000 0 0 0
840 1 1 0 10.781 170.600 3.000 0 0 0
841 1 1 0 10.060 169.379 3.000 0 0 0