ITEM: TIMESTEP
75
ITEM: NUMBER OF ATOMS
9128
ITEM: BOX BOUNDS pp pp pp
0.0000000000000000e+00 8.3079096800000002e+01
0.0000000000000000e+00 1.4389721700000001e+02
0.0000000000000000e+00 1.8399999600000001e+01
ITEM: ATOMS id type x y z c_csym c_2[1] c_2[2] c_2[3] c_2[4] c_2[5] c_2[6] c_3 
1 1 -2.94447e-06 -9.3324e-07 7.34045 6.04825 -3115.65 -3098.54 -260.002 11.5309 -0.177276 0.00157522 -7.41135 
2 1 2.1533 1.18817 7.34159 6.04636 -5101.63 -711.739 -193.535 -972.843 2258.5 -4190.37 -7.41138 
3 1 3.57295 1.16086 7.34308 6.04339 -3940.66 -1956.24 -338.623 5647.92 1620.76 -6089.29 -7.41142 
4 1 6.41204 1.10673 7.34799 6.04104 -7360.8 1156.08 263.735 4365.03 3239.33 -11519.1 -7.41162 
5 1 7.83168 1.08058 7.35123 6.03906 -5938.39 211.862 -675.101 19769.3 -625.083 -11882 -7.41163 
40 1 0.0476577 2.45894 7.34159 6.04513 -5132.37 -1069.45 -282.051 -1501.57 4277.47 -107.874 -7.41138 
41 1 1.46731 2.4314 7.34197 6.04512 -2692.58 -3213.51 -233.349 237.463 4602.88 -2452.04 -7.41139 
42 1 2.20069 3.64727 7.34381 6.04316 -9709.71 3882.26 -189.299 -3844.76 6079.38 -4585.68 -7.41145 
43 1 3.62033 3.61997 7.34523 6.04148 -6207.57 348.477 -446.046 2773.42 6389.27 -5392.12 -7.41148 
44 1 4.30634 2.37674 7.34488 6.04437 -9899.95 3791.63 166.026 -413.669 4531.74 -8459.75 -7.41151 
45 1 5.72597 2.3499 7.34731 6.04052 -7439.13 1399 -777.208 10833.7 2960.56 -8700.02 -7.41151 
46 1 6.45892 3.56608 7.34997 6.04251 -16357.9 10161.2 1026.44 1549.02 6665.13 -12498.8 -7.41173 
47 1 7.87852 3.53993 7.35309 6.03739 -12367.3 6880.24 -1798.12 16836.3 3797.64 -10384.8 -7.41161 
48 1 8.56466 2.29679 7.35372 6.03883 -13301.4 7420.83 1318.44 8901.84 5838.25 -15023.6 -7.41186 
118 1 0.0948425 4.91792 7.34488 6.04194 -7163.77 1037.25 -527.614 -5787.39 7723.17 -194.102 -7.41146 
119 1 1.5145 4.89041 7.34524 6.04319 -2598.64 -3375.74 72.5845 -4015.65 9434.77 -2235.35 -7.41151 
120 1 2.24739 6.10654 7.34798 6.04036 -14053.6 8300.45 -535.403 -9300.71 8956.15 -4858.33 -7.41155 
121 1 3.66702 6.07928 7.34931 6.03883 -8507.48 2676.99 -159.487 -2832.73 11072 -4577.29 -7.41162 
122 1 4.35325 4.83612 7.34799 6.0413 -16639.5 10652.9 316.821 -4603.84 7745.68 -9037.95 -7.41161 
123 1 5.77285 4.8093 7.35028 6.03779 -11888.4 5971.38 -1142.52 6436.33 7603.55 -7470.28 -7.41158 
124 1 6.50515 6.02585 7.35372 6.03896 -24904.3 18776.3 1421.81 -4008.72 9183.8 -13193 -7.41187 
125 1 7.92473 5.99969 7.35663 6.03353 -18667.7 13375.3 -2521.94 10913.6 8242.34 -8681.63 -7.41167 
126 1 8.61089 4.7565 7.35638 6.03912 -23879.1 17953.9 2545.82 4627.49 8573.82 -16106.5 -7.41203 
196 1 0.141128 7.37694 7.34996 6.03856 -8987.28 3091.77 -1249.03 -12377.7 10138.4 -276.316 -7.41156 
197 1 1.56079 7.3495 7.35029 6.04126 -2637.33 -3335.78 875.834 -10592.6 13998.5 -1976.73 -7.41173 
198 1 2.29302 8.56598 7.3537 6.03818 -17982 12542.4 -1464.08 -16773.7 10791.4 -5041.86 -7.41165 
199 1 3.71265 8.53879 7.3549 6.03606 -10837.8 4980.45 714.405 -10573.9 15387.2 -3668.47 -7.41186 
200 1 4.39927 7.2958 7.35279 6.03878 -22883.4 17116.8 -12.5121 -11205.4 9966.67 -9420.28 -7.41173 
201 1 5.81887 7.26901 7.35489 6.03404 -16189.6 10484.2 -1003.67 -518.265 12054.9 -6086.42 -7.41173 
202 1 6.55035 8.48601 7.35886 6.03569 -32721.6 26973.5 1208.45 -11739.1 10720.8 -13651.1 -7.412 
203 1 7.9699 8.45986 7.3615 6.02932 -24733.2 19629.2 -2623.44 2536.13 12441.6 -6823.16 -7.41182 
204 1 8.65628 7.21672 7.36052 6.03472 -33733.1 27952.5 3258.99 -2281.73 10368.5 -16890.4 -7.4122 
274 1 0.186165 9.83601 7.35634 6.03523 -10566.7 5078.77 -2646.3 -20659 11516.6 -368.65 -7.41166 
275 1 1.60584 9.80867 7.35666 6.03946 -2912.19 -3103.73 2335.71 -18879.9 18077 -1671.91 -7.41203 
278 1 4.44409 9.75575 7.35884 6.03667 -28533.9 23175.4 -1027.33 -19569.8 11194.9 -9654.02 -7.41184 
279 1 5.86367 9.72902 7.36071 6.03072 -20419.7 14871 -181.307 -9426.46 16098.6 -4592.88 -7.41198 
282 1 8.70052 9.67741 7.36575 6.03077 -42784.6 37315.4 3237.59 -11183.7 11234.3 -17422.4 -7.41236 
6 1 10.6707 1.02857 7.35886 6.03337 -8481.06 2582.56 956.905 17115.1 5317.88 -16550.4 -7.412 
7 1 12.0903 1.00429 7.36301 6.03495 -7017.91 1778.93 -1232.32 38969.1 -3964.58 -15482.9 -7.41195 
8 1 14.9293 0.955189 7.37166 6.02502 -8836.88 3424.94 1683.87 35153.1 8228.96 -19132.9 -7.41245 
9 1 16.349 0.933214 7.37596 6.02746 -7304.02 2946.02 -1895.35 60727.1 -7852.98 -17131.7 -7.4123 
49 1 9.98428 2.2715 7.35747 6.03716 -10524.3 5196.99 -1889.23 27833.1 -123.162 -13100.5 -7.41174 
50 1 10.7167 3.48811 7.36051 6.03692 -20656.4 14617.2 3091.59 14250.8 8214.7 -18035.1 -7.4122 
51 1 12.1363 3.46381 7.3645 6.03495 -16259.5 11455.9 -3910 35962.9 5.11221 -13530.5 -7.41181 
52 1 12.8228 2.22093 7.36573 6.03091 -15358.6 9551.69 2848.62 24572.7 8117.11 -18999.1 -7.41235 
53 1 14.2424 2.19776 7.36996 6.03332 -12274.7 7723.27 -3385.2 48591.9 -4039.85 -15515.7 -7.41202 
54 1 14.9743 3.41484 7.373 6.02881 -22712.3 16819.7 5582.45 32225.8 10656.7 -20945.2 -7.41277 
55 1 16.3939 3.39281 7.37713 6.03204 -17894.9 14101.1 -6422.76 57674.7 -4289.34 -15024.7 -7.41203 
56 1 17.081 2.15032 7.37859 6.02254 -15876 10487.8 4481.01 44504.9 11105 -20620.9 -7.41287 
127 1 10.0305 4.73119 7.35994 6.03429 -18492.5 13518.9 -3566.65 23223.4 4156.79 -11220.4 -7.4117 
128 1 10.7621 5.94824 7.36363 6.0352 -32280.4 26192.3 4828.67 8429.13 10230 -19195.8 -7.41242 
129 1 12.1817 5.92388 7.36738 6.03064 -25280.6 20990.8 -6170.29 29690.9 4131.56 -11374.5 -7.41175 
130 1 12.8681 4.68086 7.3679 6.03409 -28367.4 22290.8 5664.5 20072.7 10337.9 -20521.4 -7.41262 
131 1 14.2876 4.65763 7.37193 6.03291 -22320 18252.3 -6790.54 43791.9 -143.039 -13359.1 -7.41184 
132 1 15.0187 5.87518 7.37553 6.03094 -36031.1 29819.1 9063.77 26027.1 12194 -22489.4 -7.41309 
133 1 16.4382 5.85303 7.37942 6.03016 -28260.3 25114.4 -10517.5 51083.6 -462.572 -12758.3 -7.41182 
134 1 17.1251 4.61036 7.38035 6.02583 -29837.7 23861.4 9158.51 39769.6 12907.9 -22393.3 -7.41325 
205 1 10.0758 7.19138 7.36379 6.02932 -26140.2 21596.5 -4709.25 15768.2 8387.41 -9150.19 -7.41174 
206 1 10.8066 8.40894 7.36792 6.0303 -42990.8 37221.7 5906.13 181.915 11311.5 -20066.2 -7.41262 
207 1 12.2261 8.3845 7.37136 6.02551 -33916.2 30216.8 -7753.1 20673.3 8162.87 -9055.77 -7.41177 
208 1 12.9126 7.14144 7.37128 6.03126 -40484.9 34538.7 7926.68 12716.1 11637.2 -21750.1 -7.41288 
209 1 14.3321 7.11809 7.37503 6.02737 -31912.7 28588.6 -9624.74 35855 3840.17 -11033.6 -7.41175 
210 1 15.0622 8.33618 7.37901 6.02753 -48362.3 42378.7 11837.5 17123.4 12794 -23770.1 -7.41339 
211 1 16.4817 8.31386 7.38262 6.02463 -38215.5 35939.8 -13886.1 41484.5 3385.71 -10349.4 -7.4117 
212 1 17.1686 7.07108 7.3831 6.02748 -43026.3 36823.1 13260.8 31879.8 13764.4 -23936.4 -7.41362 
283 1 10.12 9.65204 7.3687 6.02482 -33563.6 29362.3 -5103.71 6012.83 12351.7 -6940.97 -7.41188 
286 1 12.956 9.60262 7.37557 6.026 -51658.8 46153 9386.34 3090.71 12031.5 -22702.1 -7.41311 
287 1 14.3754 9.57913 7.379 6.02216 -41155.5 38734.8 -11635.5 25336.1 7690.58 -8568.63 -7.41174 
290 1 17.211 9.53249 7.38659 6.02419 -55211.7 49361.3 16503.4 21436.3 13683 -25235.5 -7.41396 
10 1 19.1881 0.88741 7.38439 6.01674 -8710.09 3829.44 2339.49 56517.9 11586.1 -19719.7 -7.41289 
11 1 20.6077 0.867894 7.38833 6.01879 -7238 3535.59 -2515.09 83111.2 -11782.3 -17214.8 -7.41264 
12 1 23.4471 0.825469 7.39576 6.00908 -8160.03 3894.97 2857.99 79435.1 14952.6 -18622.7 -7.41327 
13 1 24.8667 0.808367 7.39905 6.01034 -6820.23 3763.75 -2982.57 104504 -15327.7 -15859.7 -7.41294 
57 1 18.5006 2.12955 7.38268 6.0253 -12641.4 8987.62 -4995.91 70874.7 -8196.6 -16323.7 -7.4123 
58 1 19.232 3.3471 7.38548 6.02043 -22877.3 17103.4 8138.79 53514.3 13671.7 -21617.3 -7.41333 
59 1 20.6515 3.32751 7.38925 6.02349 -17838.1 14793.5 -8942.69 80072 -8532.27 -15170.9 -7.41223 
60 1 21.3393 2.08547 7.39068 6.01437 -15351.7 10256 6013.13 66865.2 14381.5 -20316.9 -7.41334 
61 1 22.7589 2.06716 7.39424 6.01662 -12018.4 9199.91 -6467.66 93017.8 -12123 -15754.4 -7.41255 
62 1 23.4898 3.28515 7.39667 6.01241 -21384 15974.8 10458 76361 16800.1 -20372.4 -7.41383 
63 1 24.9094 3.26796 7.39979 6.01488 -16355.3 13916 -11140.7 101469 -12323.1 -14043.6 -7.41241 
64 1 25.5978 2.02638 7.401 6.00703 -14201.5 9283.88 7274.99 89836.3 17499.6 -18297.6 -7.41373 
65 1 27.0174 2.01038 7.40382 6.00843 -10916.7 8493.89 -7623.04 113268 -15465.4 -13837.1 -7.41276 
135 1 18.5447 4.58948 7.38425 6.03067 -23313.9 20281.2 -10304.7 65961.1 -4619.16 -14155.6 -7.41199 
136 1 19.2752 5.8075 7.38756 6.02292 -36488.7 30137.1 13521.8 46961 14835.1 -23326 -7.41378 
137 1 20.6948 5.78774 7.39111 6.02826 -28225.3 25945.9 -14939.5 73221.3 -4957.34 -13008.3 -7.41189 
138 1 21.3823 4.54551 7.39214 6.01762 -28961.7 23010.3 12574.9 61931.1 15884.5 -22089.8 -7.41385 
139 1 22.8019 4.52705 7.39551 6.02201 -22126.2 20021.4 -13623.2 87981.7 -8800.28 -13754.9 -7.41211 
140 1 23.5321 5.74549 7.39843 6.01494 -34170.7 27860.2 17659.7 69451.4 17694.1 -21995.1 -7.41439 
141 1 24.9516 5.72809 7.40133 6.02043 -25725.1 24038.6 -18887.1 94353.3 -8966.48 -12136.6 -7.41195 
142 1 25.6399 4.48635 7.40226 6.01007 -26416.5 20353.9 15524.6 84674.9 18792.1 -19852.6 -7.41435 
143 1 27.0594 4.47018 7.40488 6.01357 -19490.4 17789.7 -16368.9 108080 -12357.2 -12146.9 -7.41221 
213 1 18.5881 7.05002 7.38675 6.02785 -33651.8 31439.7 -15022.1 57584.2 -865.911 -11853.7 -7.41175 
214 1 19.3177 8.26858 7.39042 6.02441 -49237.1 42814.8 18173.5 37342.3 15015.7 -24831.8 -7.4142 
215 1 20.7371 8.24857 7.39372 6.02622 -38246.3 37077.7 -20189.3 63072.9 -1293.95 -10726.1 -7.41163 
216 1 21.4247 7.00623 7.39443 6.02039 -41919.7 35447.4 18564.9 53489.8 16397.5 -23702.1 -7.41435 
217 1 22.8442 6.98753 7.39757 6.02621 -31981.5 30761.8 -20193.5 79233.3 -5256.62 -11648.8 -7.41174 
218 1 23.5735 8.20647 7.40085 6.01836 -46213 39496 24136.4 59155.2 17552.4 -23474 -7.41493 
219 1 24.9929 8.18876 7.40352 6.02457 -34800.7 34255.9 -25898.3 83659.7 -5491.12 -10130.1 -7.41156 
220 1 25.6812 6.94692 7.40424 6.01282 -37990.4 31198.5 23226 75693.8 19059.7 -21299.2 -7.41496 
221 1 27.1007 6.93048 7.40663 6.01869 -27741.8 27141.8 -24556.5 98924.7 -9011.02 -10372.9 -7.41173 
291 1 18.6304 9.51119 7.38994 6.02248 -43608.8 42551.6 -18860 46338.1 2843.06 -9424.89 -7.4116 
294 1 21.4661 9.46761 7.39732 6.0219 -53992.8 47636.4 23669.8 42182.3 15910.1 -25124.9 -7.4148 
295 1 22.8855 9.4486 7.40021 6.02514 -41560.5 41522.8 -25865 67267.4 -1711.23 -9431.34 -7.41146 
298 1 25.7216 9.40811 7.40671 6.01688 -48850 41872.5 30051.2 63543 18269.7 -22610.8 -7.41553 
299 1 27.1411 9.39128 7.40888 6.02349 -35797.2 36642.9 -31863 86337.5 -5643.28 -8505.97 -7.41133 
14 1 27.7063 0.769119 7.40502 6.00265 -7557.39 3702.25 3178.48 101881 17934.8 -15969.7 -7.41356 
15 1 29.1259 0.754189 7.40751 6.0029 -6311.65 3694.02 -3244.76 123116 -18181.1 -13116.4 -7.41317 
16 1 31.9656 0.717648 7.41182 5.99732 -7039.66 3318.45 3270.76 121551 20261.4 -11981.9 -7.41375 
17 1 33.3853 0.704451 7.41346 5.99717 -5865.54 3388.46 -3291.05 137029 -20181.6 -9188.4 -7.41333 
18 1 36.2252 0.669899 7.41607 5.99387 -6316.88 2911.25 3153.77 136266 21803.4 -7054.71 -7.41385 
66 1 27.7481 3.22875 7.40581 6.00537 -18896.5 13701.1 12294.2 98698.6 19611.9 -17399.2 -7.41422 
67 1 29.1676 3.21371 7.40811 6.00704 -13892.1 11898.8 -12798.3 119996 -15378.5 -11656.3 -7.41254 
68 1 29.8567 1.97257 7.40901 6.00091 -12455 7847.37 8143.7 111154 20107 -14743.6 -7.41402 
69 1 31.2763 1.95854 7.41099 6.00151 -9321.57 7046.09 -8370.2 129730 -17994.6 -10663.6 -7.41292 
70 1 32.0067 3.17719 7.41253 5.99891 -15668.7 10670.1 13510.1 118215 21820.4 -12989.9 -7.41449 
71 1 33.4263 3.16388 7.41397 6.00074 -10699 9075.66 -13824.2 133788 -17539.3 -8172.71 -7.41264 
72 1 34.1158 1.9231 7.41451 5.99572 -10247.4 6112.96 8581.14 128514 22002.3 -10001 -7.41419 
73 1 35.5354 1.91051 7.41563 5.99656 -7265.47 5183.27 -8695.54 140622 -19617.2 -6505.61 -7.41303 
74 1 36.2658 3.12934 7.41673 5.99457 -11748 7203.63 14095.8 132753 23294.7 -7594.53 -7.41464 
144 1 27.7894 5.68894 7.40736 6.00791 -29790.2 23572.2 21038.2 91391.2 20319.7 -18743.9 -7.41489 
145 1 29.2089 5.67367 7.40945 6.01273 -21284.7 20120.6 -21969.1 112598 -12216.4 -10129.4 -7.41199 
146 1 29.8979 4.43241 7.41013 6.00335 -22385.9 16505.5 17733.1 105752 21254.2 -15936.7 -7.41473 
147 1 31.3174 4.4182 7.4119 6.0062 -15530.8 14143.8 -18320.8 124349 -15067.7 -9391.38 -7.41229 
148 1 32.0473 5.63717 7.41393 6.00195 -23880.1 17912.1 23403.6 110566 22409.8 -13944.3 -7.41524 
149 1 33.4668 5.6236 7.41517 6.00591 -15320.2 14788.8 -24001.3 126104 -14539.5 -7117.76 -7.41201 
150 1 34.1564 4.38277 7.41554 5.9976 -17170.9 11908.6 19092.7 122867 23059.9 -10757.5 -7.41497 
151 1 35.576 4.37 7.41646 6.00061 -10460.6 9440.98 -19420.7 135000 -16827.7 -5721.37 -7.41234 
152 1 36.3059 5.58905 7.41805 5.99692 -16670.3 11343.6 24710.3 124792 23824.6 -8106.58 -7.41544 
222 1 27.8299 8.14968 7.40948 6.01136 -40054 33298.2 29085.4 80434.6 19955.5 -19992.3 -7.41553 
223 1 29.2494 8.13406 7.41135 6.01754 -28401 28533.2 -30438.1 101408 -8926.16 -8526.16 -7.4115 
224 1 29.9384 6.89275 7.4119 6.00653 -31675.2 24995.1 26806.6 96269.1 21360.6 -17060 -7.41544 
225 1 31.3579 6.87822 7.41346 6.01206 -21372.3 21265 -27748.8 114804 -11900.8 -8061.41 -7.41173 
226 1 32.0871 8.09757 7.41586 6.00593 -31471.3 24977.7 32637.7 99047.2 21911.8 -14840.3 -7.41597 
227 1 33.5066 8.08362 7.41689 6.01169 -19636.1 20699.7 -33517.1 114446 -11411.8 -6016.86 -7.41146 
228 1 34.1964 6.84279 7.41718 6.00115 -23433.8 17569.5 29119.1 112973 23076.3 -11474.7 -7.41574 
229 1 35.616 6.82969 7.41789 6.00589 -13226.4 13790.5 -29654.6 125118 -13802 -4911.19 -7.41173 
230 1 36.3453 8.04904 7.41987 6.00096 -21022.2 15393.3 34696.3 112831 23266.3 -8590.65 -7.41623 
302 1 29.978 9.35358 7.41411 6.01063 -40298.7 33385.9 35037.1 83394.2 20374.1 -18095.3 -7.4161 
303 1 31.3975 9.33862 7.41545 6.01707 -27006 28573.6 -36334.7 101654 -8706.22 -6665.31 -7.41124 
306 1 34.2354 9.30317 7.41921 6.00621 -29170.8 23029.2 38341.1 99535.9 21985.4 -12142.3 -7.41648 
307 1 35.655 9.2896 7.41973 6.01213 -15819.7 18399 -39087.3 111520 -10749.1 -4069.87 -7.41119 
19 1 37.6448 0.657837 7.41688 5.99376 -5227.77 2856.37 -3141.86 144672 -21293.8 -4434.02 -7.41343 
20 1 40.4849 0.62437 7.41786 5.99275 -5449.56 2381.05 2881.05 144392 22530.8 -1648.17 -7.41388 
21 1 41.9045 0.612741 7.41788 5.9928 -4483.82 1994.47 -2837.85 145100 -21541.6 740.234 -7.41348 
22 1 44.7447 0.579359 7.41726 5.99273 -4370.95 1662.77 2511.67 145176 22443.4 3805.97 -7.41383 
75 1 37.6854 3.11716 7.41734 5.99661 -6848.74 5512.07 -14229.6 141245 -18759.6 -3912.73 -7.4127 
76 1 38.3753 1.87663 7.4175 5.99292 -7688.88 4078.35 8626.35 140011 23115.3 -4535.38 -7.41427 
77 1 39.7949 1.86483 7.41781 5.99401 -4791.23 2979.15 -8637.71 144661 -20332.5 -1741.19 -7.41309 
78 1 40.5253 3.08369 7.41849 5.99259 -7291.21 3483.8 14120.5 140746 24007.9 -1704.77 -7.41469 
79 1 41.9449 3.07194 7.41831 5.9942 -2517.34 1502.43 -14078.7 141526 -19054.7 744.569 -7.41274 
80 1 42.635 1.83153 7.41808 5.99234 -4924 1801.02 8349.03 144460 23441.3 1191.31 -7.41426 
81 1 44.0547 1.8198 7.41761 5.9932 -2069.46 467.408 -8253.97 141285 -20164.7 3235.54 -7.41311 
82 1 44.7852 3.03854 7.41788 5.99263 -2652.58 -507.144 13658.8 141466 23961.7 4229.81 -7.41463 
153 1 37.7255 5.5766 7.41846 6.00064 -8122.53 8328.69 -24980 133297 -15872.1 -3383.43 -7.41204 
154 1 38.4156 4.3361 7.41849 5.99403 -11129.7 6725.13 19639.7 134114 24136.9 -4825.11 -7.41508 
155 1 39.8352 4.32411 7.4186 5.9967 -4474.35 4120.09 -19718.4 138837 -17622.9 -1480.61 -7.41238 
156 1 40.5653 5.54311 7.41977 5.99423 -8623.96 4411.17 25038.3 132549 24532.5 -1756.43 -7.41551 
157 1 41.9849 5.53109 7.41939 5.99727 -178.305 1049.84 -24988.5 133407 -16215.9 723.951 -7.41206 
158 1 42.6753 4.29079 7.41904 5.99302 -4775.09 1175.31 19463.9 138435 24480 1373.97 -7.41508 
159 1 44.0949 4.27887 7.41838 5.99505 1823.78 -1704.5 -19293.3 135364 -17469.6 2959 -7.4124 
160 1 44.8253 5.49766 7.41914 5.99419 -406.503 -2767.53 24478.9 133172 24533.9 4637.03 -7.41545 
231 1 37.7649 8.03618 7.42008 6.00599 -9135.45 11242.4 -35100.3 121303 -12860.2 -2844.6 -7.41144 
232 1 38.4552 6.79576 7.42005 5.9969 -14039.8 9213.98 30186.3 123939 24123.9 -5101.06 -7.4159 
233 1 39.8749 6.78343 7.41996 6.00095 -3841.43 5387.35 -30326.3 128667 -14680.8 -1229.47 -7.41174 
234 1 40.6045 8.00263 7.42153 5.99759 -9484.3 5235.36 35342.6 120314 23973.9 -1805.66 -7.41632 
235 1 42.0241 7.9902 7.42096 6.00187 2354.33 784.209 -35282 121244 -13254.6 673.819 -7.41145 
236 1 42.7149 6.75007 7.42057 5.99517 -4119.22 396.341 30114.3 128118 24491.4 1548.18 -7.41591 
237 1 44.1346 6.7378 7.41972 5.9985 6064.29 -3686.82 -29861.6 125085 -14542.1 2636.09 -7.41176 
238 1 44.8647 7.95671 7.42088 5.99683 2226.32 -5276.93 34680 120934 24028.6 5023.31 -7.41625 
310 1 38.494 9.25562 7.42199 6.00144 -16340.1 11497.1 39956.7 110107 23001.9 -5358.48 -7.41668 
311 1 39.9136 9.24281 7.42172 6.00661 -2925.78 6940.23 -40160.5 114790 -11712.9 -987.448 -7.41117 
314 1 42.7537 9.20937 7.42248 5.99901 -2877.74 -498.521 39995.2 114100 23397.2 1714.12 -7.4167 
315 1 44.1735 9.19661 7.42146 6.00338 10519.4 -5525.44 -39661 111165 -11588.6 2262.65 -7.41119 
23 1 46.1643 0.567421 7.41648 5.9935 -3541.66 916.492 -2429.04 138088 -20944.2 5932.8 -7.41348 
24 1 49.0045 0.533109 7.41423 5.99535 -3318.46 701.307 2092.24 138634 21525.7 8898.37 -7.41372 
25 1 50.4241 0.520147 7.41263 5.99623 -2570.7 -217.945 -1966.97 124351 -19504 10726 -7.41341 
26 1 53.2642 0.483986 7.40869 6.0004 -2444.8 -299.219 1653.77 125678 19749.1 13209.8 -7.41354 
27 1 54.6839 0.469381 7.40625 6.00099 -1741.69 -1182.51 -1498.46 105364 -17244.3 14674.7 -7.41327 
83 1 46.2049 3.02649 7.41691 5.9943 2020.05 -2844.71 -13434.2 134431 -18441.1 5414.67 -7.41275 
84 1 46.895 1.78607 7.41627 5.99325 -2226.06 -686.511 7807.27 141474 22976.7 6755.44 -7.41418 
85 1 48.3146 1.77367 7.41499 5.99475 551.769 -2256.9 -7596.83 130743 -19123.3 8026.74 -7.41309 
86 1 49.0454 2.99216 7.41484 5.99451 1724.71 -4470.99 12751.7 134925 23141.7 9784.51 -7.41449 
87 1 50.4651 2.97909 7.41307 5.99676 6288.95 -7113.25 -12337.4 120717 -16925.4 9695.82 -7.41272 
88 1 51.155 1.73853 7.41199 5.9968 248.545 -3075.12 7029.81 131604 21694.4 11735.5 -7.414 
89 1 52.5747 1.72478 7.40989 5.9984 2873.88 -4916.82 -6707.01 114184 -17216.7 12207.9 -7.41301 
90 1 53.3059 2.94291 7.4093 5.99892 5360.77 -8196.02 11408.2 122088 21517.9 14515.5 -7.41424 
91 1 54.7256 2.9282 7.4067 6.0007 9882.46 -10889.9 -10818.2 101891 -14540.6 13170.5 -7.41265 
161 1 46.245 5.48534 7.41799 5.99657 7946.69 -6565.18 -24102.7 126316 -15582.6 4838.34 -7.41208 
162 1 46.9355 4.24512 7.41723 5.99364 1436.95 -4497.45 18629.3 135462 24087.1 7401.13 -7.41498 
163 1 48.3552 4.23252 7.41577 5.99609 7989.48 -7636.38 -18198.6 124830 -16378.2 7214.88 -7.41241 
164 1 49.086 5.45098 7.41612 5.99538 7172.96 -9854.43 23067.9 126773 23815.8 10632.4 -7.41527 
165 1 50.5057 5.43765 7.41418 5.99853 15434.5 -13998.8 -22355.4 112791 -13983 8575.7 -7.4121 
166 1 51.1962 4.19737 7.41296 5.99648 6925.94 -9826 17150.1 125716 22932.1 12815 -7.41475 
167 1 52.6159 4.18343 7.41069 5.99943 13331.8 -13308.8 -16459.1 108457 -14364.4 10883.7 -7.41239 
168 1 53.3472 5.40146 7.41061 5.99914 13501.8 -16291.3 20798.1 114257 22351.3 15760.2 -7.41495 
169 1 54.767 5.38651 7.40788 6.00193 21691.2 -20602 -19765.4 94318.4 -11462.6 11547.2 -7.41209 
239 1 46.2844 7.94397 7.41956 6.00037 13991.8 -10163.9 -34149.2 114193 -12599.8 4193.39 -7.41149 
240 1 46.9755 6.70401 7.41876 5.9957 5501.36 -8429.62 28973.4 125212 24176.1 8016.32 -7.41577 
241 1 48.3952 6.69107 7.41714 5.99874 15626.3 -12929.7 -28316.1 114686 -13395.8 6321.16 -7.41179 
242 1 49.1258 7.90957 7.41789 5.99785 12992.6 -15464.3 32741.9 114755 23419.1 11435 -7.41603 
243 1 50.5457 7.89584 7.41582 6.00153 24670 -20815.8 -31728.8 100969 -10911.1 7351.34 -7.41154 
244 1 51.2367 6.65589 7.41453 5.99783 13992 -16666.9 26767 115750 23155.1 13841.1 -7.41549 
245 1 52.6565 6.64164 7.41213 6.00157 23907.6 -21712.7 -25702.7 98670.6 -11266.6 9445.8 -7.41183 
246 1 53.3877 7.85963 7.41247 6.00095 21886 -24659.3 29513.6 102686 22125.1 16932.4 -7.41564 
247 1 54.8076 7.84431 7.40965 6.00453 33423.7 -30277.1 -28037.9 83103.6 -8248.57 9790.23 -7.4116 
318 1 47.0146 9.16275 7.42068 5.9992 10028.2 -12574.5 38532.6 111321 23164.7 8596.79 -7.41654 
319 1 48.4344 9.14934 7.41892 6.00283 23357.5 -18110.7 -37648.1 100999 -10384.5 5337.41 -7.41125 
322 1 51.2764 9.11411 7.41652 6.00069 21377.2 -23794.9 35567.3 102273 22287 14802.9 -7.4162 
323 1 52.6963 9.09941 7.41402 6.00488 34440.7 -29960 -34130.9 85548.1 -8135.88 7884.91 -7.41134 
324 1 53.4273 10.3174 7.41466 6.00416 30483.1 -33169.8 37234.8 88136.4 20819.4 18014.2 -7.41628 
325 1 54.8472 10.3016 7.41177 6.00834 44840.5 -39855.7 -35323 68968.8 -5088.04 7898.12 -7.4112 
28 1 57.5239 0.430613 7.40061 6.00739 -2022.44 -1264.55 1220.2 107778 17130.6 16347.7 -7.41327 
29 1 58.9435 0.413895 7.39736 6.00688 -1440.91 -2094.01 -1059.52 83256.1 -14275.9 17386.3 -7.41304 
30 1 61.7834 0.372009 7.39019 6.01558 -1730.57 -1936.11 819.384 86776.7 13809 18054.3 -7.41293 
31 1 63.2031 0.352903 7.38627 6.01418 -1381.67 -2798.51 -672.425 60334.5 -10842.1 18638.8 -7.41274 
92 1 55.4152 1.68739 7.40516 6.0026 2224.45 -5145.82 6034.82 116004 19577.8 15698.6 -7.41374 
93 1 56.8348 1.67174 7.40223 6.00323 4618.62 -7252.53 -5624.09 93431.4 -14509.3 15362 -7.41288 
94 1 57.5665 2.88943 7.40121 6.00541 7801.4 -11226.3 9652.85 104409 19105.6 17990.7 -7.41388 
95 1 58.9862 2.87262 7.39783 6.00599 12155.6 -13978.5 -8932.25 80091.6 -11407 15488.3 -7.41252 
96 1 59.6753 1.63146 7.39586 6.01007 3465.22 -6859.46 4858.87 96436.5 16695.5 18283 -7.41338 
97 1 61.095 1.61354 7.39218 6.00964 5754.51 -8839.98 -4401.07 70755.1 -11177.6 17197.1 -7.41266 
98 1 61.8271 2.83074 7.39081 6.01331 9193.97 -13117.5 7579.14 83731.6 16052.3 19899.7 -7.41342 
99 1 63.2468 2.81155 7.3868 6.01289 13195.8 -16073.6 -6794.89 57519.1 -7764.02 16479.5 -7.41233 
100 1 63.9353 1.56999 7.38445 6.01853 3752.94 -7972.11 3586.95 74746.8 13277.2 19298.1 -7.41295 
170 1 55.4571 4.14604 7.40616 6.00171 11330.4 -14302.1 15029.4 110404 20998.9 17151 -7.4144 
171 1 56.8769 4.13022 7.4031 6.0034 17494.5 -18120.6 -14112.7 88059.6 -11506.2 13583.4 -7.41233 
172 1 57.6087 5.34775 7.40261 6.00511 17940.3 -21314.5 17701.7 97031 20158.7 19546.4 -7.4145 
173 1 59.0285 5.33072 7.39915 6.00664 25842.9 -25917.9 -16415.6 73026.5 -8156.74 13442.2 -7.41206 
174 1 59.7182 4.08996 7.39691 6.00876 14127.3 -17652.5 12336.7 91248.9 18360 19997.2 -7.41394 
175 1 61.138 4.0719 7.39315 6.00929 20063.5 -21540.3 -11269.7 65828.4 -7987.96 15066.7 -7.41222 
176 1 61.8704 5.2889 7.39236 6.01269 20324.1 -24437.4 13945.5 76896.8 17398 21619.3 -7.41393 
177 1 63.2902 5.26953 7.38832 6.0131 27757.3 -29269.3 -12522.4 51081.1 -4309.56 14132.6 -7.41199 
178 1 63.9794 4.0284 7.38561 6.01703 14990.1 -19397.1 9267.02 69983.7 15265.2 21102.2 -7.41339 
248 1 55.4985 6.60425 7.40782 6.00246 20686.2 -23599 23492.9 100914 21417.8 18523.8 -7.41506 
249 1 56.9184 6.58814 7.40467 6.00502 30324.6 -29007.3 -22067.3 78835.6 -8249.43 11664 -7.41185 
250 1 57.6502 7.80559 7.40463 6.00639 28209.3 -31698.9 25046.8 86127.4 20174.1 20996.8 -7.41509 
251 1 59.0701 7.78822 7.40113 6.00866 39349.8 -37744.7 -23199.9 62599.8 -4767.17 11239.2 -7.41167 
252 1 59.7606 6.54793 7.39874 6.00908 24929.6 -28585.9 19262.7 82330.6 19045.3 21598.4 -7.4145 
253 1 61.1805 6.5296 7.39495 6.01042 34203.1 -34219.6 -17588.1 57363 -4543.4 12767.7 -7.41185 
254 1 61.9129 7.74651 7.39465 6.01361 31485.6 -35852.2 19596.8 66743.5 17739.5 23190.6 -7.41441 
255 1 63.3329 7.72684 7.39065 6.0147 41917.6 -42327.4 -17547.1 41588.7 -723.75 11605.6 -7.41172 
256 1 64.0229 6.48622 7.38771 6.01712 26218.9 -30909.1 14393.3 61776.1 16305.7 22743.6 -7.41383 
326 1 55.539 9.06203 7.40996 6.0047 30219.2 -33112.4 31105.8 88095.5 20764.9 19797.9 -7.41569 
327 1 56.959 9.0455 7.40676 6.00795 42878.4 -39818.4 -29177.4 66539.2 -4956.84 9597.42 -7.41145 
328 1 57.6906 10.2629 7.40706 6.00905 38527.7 -42210.3 31374.2 72388.1 19140.7 22312.9 -7.41563 
329 1 59.1106 10.2451 7.40356 6.01188 52272 -49477.8 -28981.8 49528.1 -1434.05 8885.18 -7.41136 
330 1 59.8022 9.00537 7.40114 6.01087 35765 -39676 25319.5 70360.5 18692.7 23059.2 -7.41501 
331 1 61.2221 8.98668 7.39737 6.01282 47870.1 -46680.8 -23051.8 46048.6 -1066.87 10305.2 -7.41156 
332 1 61.9544 10.2036 7.39746 6.01589 42435.5 -47375.5 24236.5 54022 17080 24577.1 -7.41483 
333 1 63.3744 10.1835 7.39357 6.01744 55236.9 -55099.8 -21586.8 29767 2791.93 8922.03 -7.41153 
334 1 64.0655 8.94347 7.39052 6.01866 37303.5 -42440.5 18661.8 50725.5 16351.8 24192.9 -7.41422 
32 1 66.0428 0.30765 7.37798 6.02427 -1877.78 -2585.93 479.862 64535.3 10084.2 18241.8 -7.41253 
33 1 67.4625 0.286078 7.37366 6.0223 -1671.92 -3261.24 -363.59 38662.3 -7301.5 18337.8 -7.41237 
34 1 70.302 0.237487 7.36497 6.03277 -2265.89 -3041.45 210.076 42636.2 6380.31 16794.7 -7.41212 
35 1 71.7217 0.213573 7.36071 6.03073 -2213.97 -3503.18 -181.521 20015.9 -4071.37 16238.1 -7.41198 
101 1 65.355 1.54962 7.38024 6.01727 5812.89 -9862.25 -3126.76 48362.3 -7517.88 17606.4 -7.41238 
102 1 66.0876 2.76633 7.37865 6.02196 9130.38 -13912.3 5365.89 61820.6 12688.7 20100.1 -7.4129 
103 1 67.5074 2.74469 7.37429 6.02082 12778.3 -16791.7 -4601.78 36227.9 -3939.13 16105.2 -7.41209 
104 1 68.1952 1.50269 7.37169 6.02729 3282.17 -8290.5 2334.06 52622.8 9711.23 18656.9 -7.41247 
105 1 69.6149 1.4799 7.36731 6.02557 5065.06 -9983.68 -1937.57 28126.5 -3905.41 16487.7 -7.41206 
106 1 70.348 2.69616 7.36575 6.03077 7547.61 -13101.2 3237.46 40292 9471.28 18440.2 -7.41236 
107 1 71.7677 2.6722 7.3615 6.02932 10690.9 -15873.4 -2623.49 17923.5 -311.635 14186.1 -7.41182 
108 1 72.4548 1.42976 7.35886 6.03569 1903.55 -7651.97 1208.35 31704.5 6461.67 16110.2 -7.41201 
179 1 65.3992 4.00791 7.38138 6.01662 20521.1 -23365.4 -8154.43 43968.2 -4094.34 15274.6 -7.41207 
180 1 66.132 5.22442 7.38045 6.02126 20243.3 -25213.3 9864.96 55581.4 14426.7 21772.6 -7.41328 
181 1 67.5519 5.20263 7.37613 6.02082 27066.2 -30119.7 -8457.09 30442.3 -229.475 13628.7 -7.41187 
182 1 68.2404 3.96107 7.37305 6.02588 13924.7 -19094.2 6125.38 48325.4 12138.1 20328.8 -7.41279 
183 1 69.6602 3.93818 7.3687 6.02483 18861 -23036.2 -5103.69 24252.6 -164.885 14167.4 -7.41188 
184 1 70.3935 5.15429 7.36792 6.0303 17303 -23026.3 5906.17 34647.9 11722.2 19829.1 -7.41262 
185 1 71.8133 5.13023 7.36379 6.02933 23285.8 -27912.7 -4709.19 12793.5 3730.55 11838.8 -7.41174 
186 1 72.5011 3.8882 7.36052 6.03472 10523 -16395.3 3258.79 27871.5 9443.28 17424.4 -7.41221 
257 1 65.4428 6.46552 7.38352 6.01741 34860.3 -36727.8 -12636.6 36307.7 -432.814 12736.9 -7.41182 
258 1 66.1757 7.68193 7.38317 6.02207 31166.4 -36478.7 13666.9 46235.8 15195.8 23238.5 -7.41364 
259 1 67.5956 7.65992 7.379 6.02218 40700 -43119 -11635.5 21929.9 3575.54 10944.5 -7.41174 
260 1 68.285 6.41888 7.37557 6.02601 24403.4 -29884.1 9386.33 40834.6 13644.7 21770.6 -7.41311 
261 1 69.7049 6.39584 7.37136 6.0255 32143.6 -35754.8 -7752.95 17404.2 3760.74 11597.3 -7.41177 
262 1 70.4382 7.61189 7.37128 6.03126 26752.5 -32745.8 7926.8 26157.5 13017.8 20953.1 -7.41288 
263 1 71.858 7.58769 7.36738 6.03067 35129.4 -39392.7 -6170.25 5172.12 7784.72 9265.45 -7.41175 
264 1 72.5467 6.34615 7.36363 6.0352 18936.7 -24947.8 4828.63 21096.9 11508.8 18457.4 -7.41242 
335 1 65.4855 8.92248 7.38646 6.01945 48521.2 -49699.3 -16285.5 26079.2 3238.41 10022.5 -7.41166 
336 1 66.2182 10.1389 7.38659 6.02419 41726.3 -47690.4 16503.3 34600.4 15013.1 24467.3 -7.41396 
337 1 67.6383 10.1166 7.38262 6.02462 53348.6 -55541.2 -13886 11338.9 7269.93 8107.04 -7.4117 
338 1 68.3287 8.87613 7.37901 6.02753 34560.1 -40415.5 11837.4 30736 14188.5 22965.1 -7.41339 
339 1 69.7486 8.85289 7.37503 6.02738 44523.8 -47903.6 -9624.8 8238.91 7635.15 8842.37 -7.41175 
340 1 70.4817 10.069 7.37553 6.03096 35871.1 -42147.4 9063.65 15496 13379.4 21805 -7.4131 
341 1 71.9017 10.0446 7.37193 6.03293 46065.1 -50054.6 -6790.67 -4341.34 11640.7 6555.79 -7.41184 
342 1 72.5913 8.80364 7.3679 6.03409 27077.4 -33039.6 5664.61 11900.5 12602.8 19213.8 -7.41262 
36 1 74.5611 0.16198 7.35279 6.03881 -2514.81 -3140.91 -12.6689 22926.5 3174.62 13341.6 -7.41173 
37 1 75.9808 0.136091 7.34931 6.03882 -2569.19 -3391.52 -159.678 6312.58 -1572.01 11877.3 -7.41162 
38 1 78.8201 0.0822176 7.34381 6.04315 -3005.83 -3172.29 -189.384 7846.92 931.991 7557.58 -7.41145 
39 1 80.2398 0.0550276 7.34197 6.04504 -3036.24 -3185.19 -233.431 -378.402 -177.991 5212.53 -7.4114 
109 1 73.8745 1.40478 7.35489 6.03406 3452.44 -8985.34 -1003.83 11807.2 -756.541 13483 -7.41173 
110 1 74.608 2.6207 7.35372 6.03896 4592.7 -10393.4 1421.92 20905.3 6832.96 14550.1 -7.41187 
111 1 76.0277 2.59478 7.35028 6.03781 7258.17 -12940.2 -1142.6 4493.84 2667.46 10320 -7.41158 
112 1 76.7143 1.35196 7.34799 6.04133 -214.538 -5833.13 316.699 14091.6 3954.45 11227 -7.41161 
113 1 78.134 1.32531 7.34523 6.04148 1010.96 -7132.79 -446.243 1491.76 1475.26 8229.26 -7.41148 
114 1 78.8676 2.54103 7.34488 6.04437 -49.9912 -6168.08 165.839 6109.83 5060.7 8154.36 -7.41151 
115 1 80.2873 2.51383 7.34308 6.0434 2315.42 -8532.53 -338.612 -1915.26 4463.31 4448.13 -7.41142 
116 1 80.9735 1.27072 7.34159 6.04637 -2984.66 -3403.2 -193.796 2448.26 2499.92 4050.89 -7.41138 
117 1 82.3931 1.24323 7.34083 6.04664 -1842.62 -4552.8 -252.229 -830.742 2352.48 1182.61 -7.41136 
187 1 73.9209 3.86316 7.35663 6.03352 14868.1 -20016.4 -2521.93 8401.31 3397.3 11479 -7.41167 
188 1 74.6544 5.07899 7.35638 6.03911 11554.4 -17392.5 2545.85 15845.4 9661.61 15478.3 -7.41203 
189 1 76.0742 5.05304 7.35309 6.03735 16686.6 -22139.3 -1798.11 -114.976 7094.71 8481.22 -7.41162 
190 1 76.7613 3.81055 7.34997 6.04252 4906.93 -10993.5 1026.55 10689.3 7491.62 12021.7 -7.41173 
191 1 78.181 3.78388 7.34731 6.04056 8596.34 -14560.7 -777.255 -1586.96 6054.23 6913.86 -7.41151 
192 1 78.9146 4.99962 7.34799 6.04106 2849.68 -8931.34 263.716 1515.07 8356.15 8564.99 -7.41161 
193 1 80.3343 4.97243 7.34628 6.04154 7432.08 -13533.3 -138.497 -6213.69 9206.01 3528.23 -7.41153 