ITEM: TIMESTEP
0
ITEM: NUMBER OF ATOMS
9128
ITEM: BOX BOUNDS pp pp pp
0.0000000000000000e+00 8.3079096800000002e+01
0.0000000000000000e+00 1.4389721700000001e+02
0.0000000000000000e+00 1.8399999600000001e+01
ITEM: ATOMS id type x y z c_csym c_2[1] c_2[2] c_2[3] c_2[4] c_2[5] c_2[6] c_3 
1 1 0 0 7.5 6.0491 5148.47 5073.39 -158785 -3.04386 -0.01385 0.166505 -7.40754 
2 1 2.14797 1.19809 7.5 6.04915 3890 6603.32 -157797 -2623.25 4253.69 -7585.09 -7.40759 
3 1 3.56781 1.17707 7.5 6.0492 6646.81 3711.78 -156742 4533.88 3424.5 -11489.2 -7.40766 
4 1 6.4075 1.13504 7.5 6.0492 4130.97 5315.22 -151991 -7417.64 5668.03 -21273 -7.40794 
5 1 7.82735 1.11402 7.5 6.0492 6514.51 2912.1 -150171 9320.1 493.435 -23041.7 -7.40805 
40 1 0.0364063 2.45924 7.5 6.04911 1972.79 8145.14 -157891 -135.805 8060.48 -85.5228 -7.40759 
41 1 1.45625 2.43822 7.5 6.04915 8089.16 2346.59 -157535 1981.48 8516.21 -4557.52 -7.40761 
42 1 2.18438 3.65734 7.5 6.04915 603.548 9601.2 -155984 -2574.67 11704.3 -8044.23 -7.4077 
43 1 3.60422 3.63632 7.5 6.0492 9307.69 833.069 -155074 4829.32 12074.8 -10448.6 -7.40776 
44 1 4.29594 2.39619 7.5 6.0492 2377.49 7533.25 -154714 -4997.68 8523.23 -15232.2 -7.40778 
45 1 5.71578 2.37517 7.5 6.0492 7981.59 2035.09 -153678 7240.04 6382.57 -16883.3 -7.40784 
46 1 6.44391 3.59428 7.5 6.0492 792.915 8043.64 -149460 -7045.41 12559.5 -22482.3 -7.40809 
47 1 7.86375 3.57326 7.5 6.0492 9245.92 450.732 -149743 9772.11 8546.92 -20806.2 -7.40808 
48 1 8.55547 2.33313 7.5 6.0492 2592.73 5622.02 -145832 -9278.59 10316.4 -27689.4 -7.40831 
118 1 0.0728125 4.91849 7.5 6.04911 -1331.77 11133.4 -155455 -264.823 14961.4 -151.969 -7.40774 
119 1 1.49266 4.89747 7.5 6.04915 10465.1 -594.833 -154520 2166.78 17259 -4163.73 -7.40779 
120 1 2.22078 6.11658 7.5 6.04915 -2688.09 12499.5 -152842 -2486.47 17786.4 -8329.97 -7.40789 
121 1 3.64063 6.09556 7.5 6.0492 11414.2 -1942.96 -151307 5054.7 20541.1 -9201.5 -7.40798 
122 1 4.33235 4.85543 7.5 6.0492 -962.127 10393.3 -151928 -4742.26 15122 -15906.9 -7.40795 
123 1 5.75219 4.83441 7.5 6.0492 10409.7 -622.887 -151518 7573.75 14777.2 -15043.8 -7.40797 
124 1 6.48032 6.05352 7.5 6.0492 -2556.81 10710.2 -145709 -6577.88 18126 -23249.6 -7.40832 
125 1 7.90016 6.0325 7.5 6.0492 11423.2 -1890.19 -147348 10088.8 16526.7 -18177.4 -7.40822 
126 1 8.59188 4.79237 7.5 6.0492 -820.241 8117.97 -142082 -8720.71 16178.9 -28981.8 -7.40854 
196 1 0.109219 7.37773 7.5 6.04911 -4528.47 13982.3 -151911 -381.752 20311.7 -210.38 -7.40795 
197 1 1.52906 7.35671 7.5 6.04915 12236.8 -3401.17 -149344 2313.28 25544.6 -3693.01 -7.4081 
198 1 2.25719 8.57582 7.5 6.04915 -5768.58 15225.7 -148837 -2356.93 22209.1 -8473.22 -7.40813 
199 1 3.67703 8.5548 7.5 6.0492 12879.1 -4555.64 -145415 5197.61 28363.8 -7783.84 -7.40834 
200 1 4.36875 7.31467 7.5 6.0492 -4199.86 13135.4 -148078 -4419.64 20207.8 -16281.8 -7.40818 
201 1 5.7886 7.29365 7.5 6.0492 12234.1 -3135.09 -147282 7790.48 22796.7 -12919.5 -7.40823 
202 1 6.51672 8.51276 7.5 6.0492 -5703.61 13245.9 -141196 -6017.2 22108.7 -23631.1 -7.40859 
203 1 7.93657 8.49174 7.5 6.0492 12948.7 -4063.76 -142924 10259.7 24005.7 -15235.9 -7.40849 
204 1 8.62829 7.25161 7.5 6.0492 -4139.71 10548.2 -137424 -8044.35 20605.8 -29769 -7.40882 
274 1 0.145625 9.83697 7.5 6.04911 -7411.54 16615.3 -147740 -481.408 23918.5 -276.076 -7.4082 
275 1 1.56547 9.81595 7.5 6.04915 13345.1 -6025.98 -142052 2417.58 32975.1 -3151.69 -7.40853 
278 1 4.40516 9.77391 7.5 6.0492 -7132.26 15683.9 -143644 -4030.51 23601.2 -16411.8 -7.40844 
279 1 5.825 9.75289 7.5 6.0492 13385.1 -5466.12 -140985 7890.25 30057.7 -10579 -7.4086 
282 1 8.66469 9.71086 7.5 6.0492 -7166.77 12840 -132323 -7250.2 23448.1 -30125.3 -7.40912 
6 1 10.667 1.07198 7.5 6.0492 4393.92 3270.2 -141496 -11321.1 8549.44 -31313 -7.40857 
7 1 12.0869 1.05096 7.5 6.0492 6487.56 1533.86 -139901 12969.5 -4089.17 -30748.4 -7.40867 
8 1 14.9266 1.00892 7.5 6.0492 4697.12 769.438 -128026 -13919 12604.3 -36866.5 -7.40938 
9 1 16.3464 0.987901 7.5 6.0492 6570.52 -318.747 -127446 15150.1 -9731.97 -34419 -7.40942 
49 1 9.97532 2.31211 7.5 6.0492 7940.86 1184.92 -145868 11580.9 2162.69 -26127.6 -7.40831 
50 1 10.7034 3.53122 7.5 6.0492 973.566 5508.05 -137624 -10729.9 14546.5 -33207 -7.4088 
51 1 12.1233 3.5102 7.5 6.0492 9306.31 -316.416 -141429 13504.7 3084.51 -27682.6 -7.40858 
52 1 12.815 2.27007 7.5 6.0492 2831.4 3030.74 -132790 -12493.6 13343.2 -35816.2 -7.40909 
53 1 14.2349 2.24905 7.5 6.0492 8011.98 -103.792 -135400 14548.5 -3514.31 -31453.4 -7.40894 
54 1 14.963 3.46816 7.5 6.0492 1185.77 2379.33 -122310 -13225.8 17615.3 -39299.7 -7.40972 
55 1 16.3828 3.44714 7.5 6.0492 9455.23 -1491.64 -131403 15708.1 -3495.65 -30932.6 -7.40918 
56 1 17.0745 2.20701 7.5 6.0492 3117.26 14.9795 -117451 -14319.7 17351.6 -39452.4 -7.41002 
127 1 10.0117 4.77135 7.5 6.0492 10451.5 -931.179 -145422 12010.9 9854.49 -23194.9 -7.40834 
128 1 10.7398 5.99046 7.5 6.0492 -2470.66 7740.33 -132724 -9996.69 19275.7 -34514.5 -7.4091 
129 1 12.1597 5.96944 7.5 6.0492 11562.4 -2032.59 -141174 13874 10344.3 -24156.4 -7.40859 
130 1 12.8514 4.72931 7.5 6.0492 -680.202 4982.01 -127537 -11758.9 18255.8 -37696 -7.40941 
131 1 14.2713 4.70829 7.5 6.0492 10598.5 -1555.14 -137280 15021.7 3318.71 -27890.6 -7.40883 
132 1 14.9994 5.92741 7.5 6.0492 -2377.2 4032.25 -115790 -12362.9 21402.1 -41135.8 -7.41012 
133 1 16.4192 5.90639 7.5 6.0492 11760.5 -2529.65 -133770 16105.5 2990.1 -27018.2 -7.40904 
134 1 17.1109 4.66626 7.5 6.0492 -497.319 1322.54 -110274 -13526.3 21316.9 -41783.8 -7.41045 
205 1 10.0481 7.23059 7.5 6.0492 12350.1 -2893.73 -143039 12275.3 17335.6 -19863.3 -7.40848 
206 1 10.7763 8.44971 7.5 6.0492 -5726.92 9903.09 -127247 -9122.44 22525.1 -35296.3 -7.40943 
207 1 12.1961 8.42869 7.5 6.0492 13149 -3584.99 -139018 14070.2 17309.9 -20264.7 -7.40872 
208 1 12.8878 7.18856 7.5 6.0492 -4118.98 6926.84 -121589 -10864.3 21813 -38993.2 -7.40977 
209 1 14.3077 7.16754 7.5 6.0492 12556.7 -2853.9 -137390 15319.4 10135.2 -23917.8 -7.40882 
210 1 15.0358 8.38665 7.5 6.0492 -5782.94 5674.35 -108910 -11320.2 23795.9 -42419.9 -7.41053 
211 1 16.4556 8.36563 7.5 6.0492 13375.2 -3418.46 -134376 16336.6 9389.68 -22758.9 -7.409 
212 1 17.1474 7.1255 7.5 6.0492 -4080 2668.92 -102619 -12549.8 23977.4 -43563.1 -7.41091 
283 1 10.0845 9.68984 7.5 6.0492 13553.6 -4680.34 -138683 12378.7 24251.9 -16234.1 -7.40874 
286 1 12.9242 9.6478 7.5 6.0492 -7288.92 8800.11 -115397 -9803.1 23899.5 -39774.6 -7.41014 
287 1 14.3441 9.62678 7.5 6.0492 13793.3 -3993.71 -135631 15447.1 16614.1 -19634.6 -7.40893 
290 1 17.1838 9.58474 7.5 6.0492 -7435.61 4000.73 -94932.6 -11371.4 25241.9 -44830.3 -7.41138 
10 1 19.1861 0.945862 7.5 6.0492 5036.1 -2102.93 -113304 -14996.7 17402.8 -38376.1 -7.41027 
11 1 20.6059 0.924843 7.5 6.0492 6733.52 -2730.25 -114208 15754.5 -15791.8 -34739.7 -7.41022 
12 1 23.4456 0.882805 7.5 6.0492 5370.2 -5429.22 -98739.6 -14526.6 22432 -36689.1 -7.41115 
13 1 24.8655 0.861786 7.5 6.0492 6921.05 -5814.01 -101300 14834.7 -21663.9 -32360.5 -7.41099 
57 1 18.4944 2.18599 7.5 6.0492 8165.18 -1879.67 -123656 15942.7 -9910.09 -33222.5 -7.40965 
58 1 19.2225 3.40511 7.5 6.0492 1452.06 -1163.51 -105409 -14289.4 21519 -41105.9 -7.41074 
59 1 20.6424 3.38409 7.5 6.0492 9633.43 -3248.28 -120823 16305.7 -10390.1 -31197.3 -7.40982 
60 1 21.3341 2.14396 7.5 6.0492 3439.62 -3405.7 -101492 -14622.4 21925.5 -39329.7 -7.41098 
61 1 22.7539 2.12294 7.5 6.0492 8343.12 -4309.48 -111782 15760.4 -16338.1 -32180.9 -7.41036 
62 1 23.482 3.34205 7.5 6.0492 1755.53 -5123.97 -88527 -13854.4 25813.8 -39398.7 -7.41177 
63 1 24.9019 3.32103 7.5 6.0492 9775.53 -5740.96 -110580 15362.6 -16943 -29057.9 -7.41043 
64 1 25.5936 2.0809 7.5 6.0492 3754.9 -7260.94 -86271.1 -13435.4 26545.4 -36150.9 -7.4119 
65 1 27.0135 2.05988 7.5 6.0492 8489.62 -7421.79 -100669 14105.7 -22223.8 -28707.3 -7.41103 
135 1 18.5308 4.64524 7.5 6.0492 10785.3 -2659.01 -128209 16428.9 -3907.24 -29463 -7.40937 
136 1 19.2589 5.86435 7.5 6.0492 -2231.89 -155.301 -96917.4 -13409 24425.4 -43312.5 -7.41126 
137 1 20.6788 5.84333 7.5 6.0492 11932 -3642.78 -126028 16724.8 -4607 -27302.5 -7.40951 
138 1 21.3705 4.6032 7.5 6.0492 -256.213 -2752.04 -92134.9 -13849.2 25070.8 -41853.1 -7.41155 
139 1 22.7903 4.58218 7.5 6.0492 10935.9 -4468.09 -119110 16248.6 -11042.2 -28562.2 -7.40992 
140 1 23.5184 5.80129 7.5 6.0492 -2025.17 -4738.32 -77887.7 -13031.1 27973.3 -41680.2 -7.41241 
141 1 24.9383 5.78027 7.5 6.0492 12009.1 -5548.08 -118608 15795.7 -11751.9 -25475.2 -7.40995 
142 1 25.63 4.54014 7.5 6.0492 20.0162 -7198.74 -74685 -12731.6 29023.4 -38531.7 -7.41261 
143 1 27.0499 4.51912 7.5 6.0492 11000.7 -7023.92 -110661 14577.1 -17505.5 -25492.2 -7.41043 
213 1 18.5672 7.10448 7.5 6.0492 12756.4 -3297.91 -131156 16760.3 2252.43 -25345.9 -7.4092 
214 1 19.2953 8.32359 7.5 6.0492 -5811.27 884.741 -88269.8 -12331.3 25979.8 -45017 -7.41178 
215 1 20.7152 8.30257 7.5 6.0492 13522.9 -3903.19 -129609 17004.9 1254.98 -23114.8 -7.40929 
216 1 21.4069 7.06244 7.5 6.0492 -3982.85 -2034.91 -82489.3 -12896.2 26921.6 -43905.9 -7.41213 
217 1 22.8267 7.04142 7.5 6.0492 12862.6 -4496.08 -124987 16616.1 -5464.13 -24652.5 -7.40957 
218 1 23.5549 8.26053 7.5 6.0492 -5773.01 -4295.82 -67263 -12020.6 28776.7 -43536.3 -7.41306 
219 1 24.9747 8.23951 7.5 6.0492 13530.2 -5221.65 -125145 16122.7 -6372.93 -21650.2 -7.40956 
220 1 25.6664 6.99938 7.5 6.0492 -3821.94 -7057.08 -62960.7 -11875.4 30188.1 -40527.3 -7.41332 
221 1 27.0863 6.97836 7.5 6.0492 12839.3 -6486.43 -119342 14961.9 -12427.3 -22043 -7.4099 
291 1 18.6036 9.56372 7.5 6.0492 13984.9 -3796.58 -132345 16939.1 8275.17 -20947.6 -7.40913 
294 1 21.4433 9.52168 7.5 6.0492 -7542.84 -1291.83 -73002.1 -11732.1 27395.2 -45499.9 -7.41271 
295 1 22.8631 9.50066 7.5 6.0492 14040.1 -4393.36 -129220 16859.4 121.12 -20501 -7.40931 
298 1 25.7028 9.45863 7.5 6.0492 -7572.58 -6859.3 -51553.4 -10828.5 29952.9 -42133.2 -7.41402 
299 1 27.1227 9.43761 7.5 6.0492 13938.5 -5805.45 -126492 15248.1 -7251.66 -18390.4 -7.40947 
14 1 27.7052 0.819747 7.5 6.0492 5640.88 -9166.85 -85472.4 -12620.1 27165.5 -32276 -7.41195 
15 1 29.125 0.798728 7.5 6.0492 7080.55 -9419.96 -89666 12533.6 -26813.4 -27415.1 -7.4117 
16 1 31.9647 0.75669 7.5 6.0492 5807.14 -12893.6 -74569.7 -9489.01 31122 -25147.6 -7.41261 
17 1 33.3845 0.735671 7.5 6.0492 7193.95 -12972 -80265.9 9064.83 -30783.7 -19778.7 -7.41226 
18 1 36.2242 0.693632 7.5 6.0492 5865.88 -15830.7 -67101.4 -5432.05 33900.4 -15393.2 -7.41306 
66 1 27.7416 3.27899 7.5 6.0492 2047.21 -9406.94 -73026.5 -12017.9 29960.8 -34633.1 -7.41271 
67 1 29.1614 3.25797 7.5 6.0492 9845.88 -8830.13 -101399 13007.3 -22640.4 -24605.2 -7.41099 
68 1 29.8531 2.01784 7.5 6.0492 4007.23 -11319 -72985.8 -10925.3 30687.6 -30129.2 -7.41271 
69 1 31.273 1.99682 7.5 6.0492 8579.84 -10863.8 -91141.2 11144.6 -27085.6 -22721.2 -7.4116 
70 1 32.0011 3.21593 7.5 6.0492 2275.15 -13557.3 -60218.1 -9004.6 33458.9 -26870.7 -7.41348 
71 1 33.421 3.19491 7.5 6.0492 9861.24 -11962.1 -94001.8 9424.18 -27044.5 -17697.2 -7.41143 
72 1 34.1127 1.95478 7.5 6.0492 4160.12 -14941.1 -62833.9 -7357.79 33905.3 -21264.8 -7.41332 
73 1 35.5325 1.93376 7.5 6.0492 8632.17 -13899 -84062.3 7121.38 -30513.4 -14197.4 -7.41203 
74 1 36.2606 3.15287 7.5 6.0492 2406.36 -16775.1 -51411.9 -5128.75 35926.8 -16295.8 -7.41402 
144 1 27.778 5.73823 7.5 6.0492 -1785.53 -9553.98 -60287.4 -11304.1 31510.7 -36645 -7.41348 
145 1 29.1978 5.71721 7.5 6.0492 11978.7 -8104.62 -112019 13419.2 -17943.2 -21575.6 -7.41034 
146 1 29.8895 4.47708 7.5 6.0492 281.373 -11735.5 -59359.1 -10334.2 32633.3 -32045.5 -7.41354 
147 1 31.3094 4.45606 7.5 6.0492 10984.9 -9980.53 -103456 11550 -22838.1 -20150.4 -7.41086 
148 1 32.0375 5.67518 7.5 6.0492 -1564.49 -14104.5 -45678.9 -8452.79 34533 -28327.3 -7.41437 
149 1 33.4574 5.65416 7.5 6.0492 11892.1 -10782.7 -106738 9745.63 -22747.2 -15467.1 -7.41066 
150 1 34.1491 4.41403 7.5 6.0492 476.819 -15697.8 -47603.8 -6935.73 35457.2 -22482.4 -7.41425 
151 1 35.5689 4.39301 7.5 6.0492 10947.1 -12642.1 -98110.5 7386.62 -26622.4 -12507.7 -7.41118 
152 1 36.2971 5.61212 7.5 6.0492 -1411.39 -17573.5 -35611.5 -4798.26 36686.5 -17029.5 -7.41498 
222 1 27.8144 8.19748 7.5 6.0492 -5666.92 -9621.31 -47699.7 -10438.6 31676.2 -38309.1 -7.41425 
223 1 29.2342 8.17646 7.5 6.0492 13406.8 -7223.11 -121272 13752.4 -12992.9 -18352.2 -7.40979 
224 1 29.926 6.93633 7.5 6.0492 -3629.28 -12052.6 -45712.7 -9635.11 33240.1 -33655.4 -7.41437 
225 1 31.3458 6.91531 7.5 6.0492 12721.4 -8928.85 -114584 11895.4 -18184.3 -17404.2 -7.41019 
226 1 32.0739 8.13442 7.5 6.0492 -5528.7 -14546.6 -31397.2 -7800.08 34194.7 -29519.4 -7.41525 
227 1 33.4938 8.1134 7.5 6.0492 13236 -9408.17 -118212 10011.4 -18155.9 -13109.5 -7.40997 
228 1 34.1855 6.87327 7.5 6.0492 -3456.69 -16328.5 -32444.2 -6453.77 35654 -23483 -7.41518 
229 1 35.6053 6.85225 7.5 6.0492 12603.7 -11178.4 -111066 7611.69 -22294.4 -10726.1 -7.4104 
230 1 36.3335 8.07136 7.5 6.0492 -5410.54 -18241.5 -20143.3 -4419.1 36019.4 -17605.2 -7.41593 
302 1 29.9624 9.39557 7.5 6.0492 -7526.66 -12287.1 -32510.4 -8790.23 32410.6 -34952.9 -7.41518 
303 1 31.3822 9.37455 7.5 6.0492 13742.7 -7698.23 -124287 12164.5 -13377.7 -14504.6 -7.40961 
306 1 34.2219 9.33251 7.5 6.0492 -7443.98 -16848.6 -17824.4 -5882.69 34386.4 -24268.3 -7.41608 
307 1 35.6417 9.31149 7.5 6.0492 13570.4 -9496.64 -122678 7782.99 -17776.9 -8870.2 -7.4097 
19 1 37.6441 0.672613 7.5 6.0492 7275.94 -15616.4 -74080.3 4733.37 -33218.5 -9705.22 -7.41264 
20 1 40.4838 0.630575 7.5 6.0492 5844.84 -17169.3 -63962.9 -831.992 35202.5 -3752.21 -7.41325 
21 1 41.9036 0.609556 7.5 6.0492 7347.67 -16598.4 -71894.1 -52.7842 -33907.9 1784.06 -7.41277 
22 1 44.7433 0.567517 7.5 6.0492 5776.38 -16482.2 -65575.3 3864.31 34856.2 8319.9 -7.41315 
75 1 37.6805 3.13186 7.5 6.0492 9876.26 -14327.8 -89129.1 4907.84 -29775.2 -8559.78 -7.41172 
76 1 38.3722 1.89172 7.5 6.0492 4211.41 -17269.3 -56945.1 -3078.34 35865.2 -9973.14 -7.41368 
77 1 39.7921 1.87071 7.5 6.0492 8688.24 -15692.5 -80242.9 2397.75 -32197.7 -3734.83 -7.41226 
78 1 40.5202 3.08982 7.5 6.0492 2436.24 -18233 -47694.9 -765.464 37112.4 -3752.82 -7.41424 
79 1 41.94 3.0688 7.5 6.0492 9942.7 -15220.7 -87381.6 -106.031 -30573.6 1859.25 -7.41183 
80 1 42.6317 1.82867 7.5 6.0492 4180.03 -17630.4 -56088.5 1504.87 36350.1 2564.4 -7.41373 
81 1 44.0516 1.80765 7.5 6.0492 8770.23 -15705.9 -80197.3 -2553.05 -31996.6 7350.69 -7.41226 
82 1 44.7797 3.02676 7.5 6.0492 2374.77 -17496 -49579.8 3676.9 36870.2 9209.89 -7.41413 
153 1 37.7169 5.5911 7.5 6.0492 11841.6 -12837.5 -103250 5060.93 -25748.7 -7366.96 -7.41087 
154 1 38.4086 4.35097 7.5 6.0492 574.488 -18214.4 -40768.3 -2884.64 37200.4 -10371.8 -7.41467 
155 1 39.8285 4.32995 7.5 6.0492 10963.6 -14235 -95206.1 2457.74 -28503.6 -3118.55 -7.41136 
156 1 40.5566 5.54906 7.5 6.0492 -1357 -19133.1 -31354 -704.024 37764.6 -3708.95 -7.41524 
157 1 41.9764 5.52804 7.5 6.0492 11903.9 -13631.7 -101956 -166.231 -26636.4 1858.86 -7.41095 
158 1 42.6681 4.28791 7.5 6.0492 567.52 -18606.8 -39763 1434.25 37686.2 3007.37 -7.41473 
159 1 44.088 4.26689 7.5 6.0492 11075.6 -14266.5 -95122.2 -2715.17 -28296.9 6809.92 -7.41136 
160 1 44.8161 5.486 7.5 6.0492 -1407.98 -18349.5 -33502.4 3455.27 37643.9 10013.2 -7.41511 
231 1 37.7533 8.05034 7.5 6.0492 13137 -11117.2 -116177 5178.63 -21400.4 -6144.21 -7.41009 
232 1 38.445 6.81021 7.5 6.0492 -3353.65 -19010.1 -24718.3 -2675.01 37179.1 -10669.4 -7.41565 
233 1 39.8649 6.78919 7.5 6.0492 12589 -12548.2 -109120 2494.54 -24350.4 -2523.73 -7.41052 
234 1 40.593 8.0083 7.5 6.0492 -5358.76 -19887.5 -15380.4 -642.685 36990.3 -3638.26 -7.41622 
235 1 42.0128 7.98728 7.5 6.0492 13202.2 -11804.8 -115351 -241.427 -22361.1 1770.76 -7.41014 
236 1 42.7046 6.74715 7.5 6.0492 -3347.26 -19426.2 -23577.8 1341.95 37676.3 3417.38 -7.41572 
237 1 44.1244 6.72613 7.5 6.0492 12731.8 -12605.4 -108982 -2883.8 -24124.5 6127.69 -7.41052 
238 1 44.8525 7.94525 7.5 6.0492 -5393 -19061.7 -17780.5 3188.06 37003.4 10707.6 -7.41608 
310 1 38.4814 9.26945 7.5 6.0492 -7379.34 -19674.5 -9266.01 -2433.79 35681.2 -10876.3 -7.4166 
311 1 39.9013 9.24843 7.5 6.0492 13540.3 -10618.8 -121729 2503.62 -19985 -1961.83 -7.40976 
314 1 42.741 9.2064 7.5 6.0492 -7370.85 -20109.4 -8001.61 1225.39 36192 3777.65 -7.41668 
315 1 44.1608 9.18538 7.5 6.0492 13712.5 -10709.3 -121518 -3052.2 -19733.3 5300.81 -7.40977 
23 1 46.1631 0.546498 7.5 6.0492 7405.82 -15635.1 -74020.2 -4813.87 -32826.8 13113 -7.41264 
24 1 49.0028 0.50446 7.5 6.0492 5672.12 -13955.9 -71704.7 8198.77 32845.3 19163.4 -7.41278 
25 1 50.4227 0.483441 7.5 6.0492 7411.81 -13052.8 -80179.4 -9074.65 -30134.4 22798.8 -7.41227 
26 1 53.2624 0.441402 7.5 6.0492 5526.61 -10304.9 -81548 11762.4 29327.3 27596.2 -7.41219 
27 1 54.6822 0.420383 7.5 6.0492 7317.51 -9608.1 -89628.7 -12432.4 -26134.6 30019.5 -7.4117 
83 1 46.1996 3.00574 7.5 6.0492 10063.3 -14376.5 -89010.7 -5081.76 -29389.4 12100.7 -7.41173 
84 1 46.8913 1.76561 7.5 6.0492 4084.26 -15893.1 -60379.8 5956.32 35264.7 14656.8 -7.41347 
85 1 48.3111 1.74459 7.5 6.0492 8853.36 -13961.7 -83947.5 -7215.95 -29980 17499.4 -7.41204 
86 1 49.0392 2.9637 7.5 6.0492 2237.33 -14757.5 -56796.3 7787.17 35163 20856.3 -7.41369 
87 1 50.4591 2.94268 7.5 6.0492 10183.2 -12098.3 -93823.7 -9493.92 -26408.4 20806.7 -7.41144 
88 1 51.1508 1.70255 7.5 6.0492 3932.52 -12547.3 -69223.2 9856.4 32659.3 24772 -7.41293 
89 1 52.5707 1.68153 7.5 6.0492 8874.9 -11025.8 -91026.5 -11128.5 -26408 25570.2 -7.41161 
90 1 53.2988 2.90064 7.5 6.0492 2042.82 -10749.4 -68389.8 11182.9 32101.6 29937.2 -7.41299 
91 1 54.7186 2.87963 7.5 6.0492 10218.5 -9096.94 -101277 -12924.6 -21986.9 27251 -7.41099 
161 1 46.236 5.46498 7.5 6.0492 12088.3 -12928 -103043 -5340.87 -25337.4 10898.5 -7.41088 
162 1 46.9277 4.22485 7.5 6.0492 465.637 -16743.8 -44730.2 5627.98 36820.7 15894 -7.41443 
163 1 48.3475 4.20383 7.5 6.0492 11253.9 -12756 -97896.3 -7556.48 -26074.1 15860 -7.41119 
164 1 49.0757 5.42295 7.5 6.0492 -1546.76 -15420.1 -41750.1 7309.14 36264.1 22352.5 -7.41461 
165 1 50.4955 5.40193 7.5 6.0492 12326.3 -10993.5 -106417 -9882.6 -22066.6 18543 -7.41068 
166 1 51.1872 4.16179 7.5 6.0492 289.917 -13123.7 -54978.2 9314.57 34614.1 26695.8 -7.4138 
167 1 52.6071 4.14078 7.5 6.0492 11409.5 -10219.2 -103220 -11567.1 -22142.6 23009.2 -7.41088 
168 1 53.3352 5.35989 7.5 6.0492 -1735.67 -11080.2 -54998 10500.2 33688.7 32000.3 -7.4138 
169 1 54.755 5.33887 7.5 6.0492 12503.8 -8469.15 -111752 -13356.1 -17236.8 24156.1 -7.41036 
239 1 46.2724 7.92423 7.5 6.0492 13444.5 -11264.8 -115849 -5592.75 -20943.5 9501.66 -7.41011 
240 1 46.9641 6.6841 7.5 6.0492 -3435.53 -17451 -29187.1 5241.4 37049.8 16973.1 -7.41538 
241 1 48.3839 6.66308 7.5 6.0492 12999.5 -11362 -110707 -7884.17 -21692.7 13983.5 -7.41042 
242 1 49.1121 7.88219 7.5 6.0492 -5495.57 -15960.8 -27001.5 6740.34 35973.7 23625.7 -7.41551 
243 1 50.5319 7.86117 7.5 6.0492 13785.9 -9716.35 -117689 -10241.6 -17392.2 16012.4 -7.41 
244 1 51.2236 6.62104 7.5 6.0492 -3587.38 -13580.1 -40762.9 8674.61 35269.3 28365.3 -7.41467 
245 1 52.6435 6.60002 7.5 6.0492 13284.2 -9265.8 -114164 -11968 -17411.8 20151.2 -7.41022 
246 1 53.3716 7.81913 7.5 6.0492 -5617.56 -11311.8 -41805.5 9681.53 33916.7 33756.2 -7.41461 
247 1 54.7914 7.79811 7.5 6.0492 14092.1 -7706.97 -120786 -13731.4 -12177.9 20753.1 -7.40982 
318 1 47.0005 9.14334 7.5 6.0492 -7422.57 -18033.9 -14214.5 4777.26 35819.8 17871.9 -7.4163 
319 1 48.4203 9.12232 7.5 6.0492 14052.1 -9768.65 -122124 -8185.26 -17102.1 11876.3 -7.40973 
322 1 51.26 9.08028 7.5 6.0492 -7498.37 -13936.4 -27034.5 7905.37 34494 29753.1 -7.41551 
323 1 52.6799 9.05926 7.5 6.0492 14443.2 -8156.61 -123612 -12318.2 -12494.9 17013.6 -7.40965 
324 1 53.408 10.2784 7.5 6.0492 -9397.71 -11465.3 -29280 8693.91 32703.7 35176.3 -7.41538 
325 1 54.8278 10.2574 7.5 6.0492 14929.8 -6804.73 -128164 -14033.9 -7082.41 17073.9 -7.40937 
28 1 57.5219 0.378345 7.5 6.0492 5339.75 -6412.07 -94024.1 14230.8 24624.6 33224.9 -7.41143 
29 1 58.9417 0.357326 7.5 6.0492 7099.71 -6098.51 -101429 -14583.5 -21225.2 34647.6 -7.41099 
30 1 61.7814 0.315287 7.5 6.0492 5140.5 -2929.73 -108044 15365.4 19189.6 36138.7 -7.41059 
31 1 63.2013 0.294268 7.5 6.0492 6783.02 -3005.37 -114630 -15312.4 -15865.8 36730.5 -7.41019 
92 1 55.4103 1.63949 7.5 6.0492 3735.91 -8458.56 -81537.7 12842.1 28756.3 32090.2 -7.41219 
93 1 56.8302 1.61848 7.5 6.0492 8776.26 -7708.45 -100673 -13939.8 -21659.6 31164.9 -7.41103 
94 1 57.5583 2.83759 7.5 6.0492 1824.01 -6377.78 -83057.8 13535.9 27984.8 35995.5 -7.4121 
95 1 58.9782 2.81657 7.5 6.0492 10106.7 -6130.41 -110678 -15090.8 -16550.1 31362.6 -7.41043 
96 1 59.6699 1.57644 7.5 6.0492 3524.01 -4448.76 -96097.2 14625.2 23948.3 36504.7 -7.41131 
97 1 61.0897 1.55542 7.5 6.0492 8540.48 -4666.47 -112055 -15406.5 -16166.5 34353.8 -7.41034 
98 1 61.8178 2.77453 7.5 6.0492 1634.92 -2315.13 -99471.5 14590.8 23286.1 39067.4 -7.4111 
99 1 63.2377 2.75351 7.5 6.0492 9843.03 -3659.55 -121315 -15809.8 -10537.5 33225 -7.40979 
100 1 63.9294 1.51338 7.5 6.0492 3348.79 -971.721 -111727 14998.5 18752.7 38082.6 -7.41036 
170 1 55.4467 4.09874 7.5 6.0492 78.2415 -8624.5 -69236.5 12142 31247.8 34524.2 -7.41294 
171 1 56.8666 4.07772 7.5 6.0492 11445.3 -7410.01 -110573 -14400.7 -16929.8 27924.3 -7.41043 
172 1 57.5947 5.29683 7.5 6.0492 -1920.04 -6243.33 -71726.5 12701 30190.2 38416.9 -7.41279 
173 1 59.0146 5.27581 7.5 6.0492 12519.7 -6058.64 -118614 -15501 -11307.7 27694.2 -7.40995 
174 1 59.7063 4.03568 7.5 6.0492 -115.22 -4085.22 -86043.4 13812.7 27112.9 39199.5 -7.41192 
175 1 61.1261 4.01466 7.5 6.0492 11306.3 -4953.31 -119370 -15847.6 -10873.7 30704.2 -7.4099 
176 1 61.8543 5.23377 7.5 6.0492 -2036.72 -1606.96 -90363.3 13648.7 26256 41562 -7.41165 
177 1 63.2741 5.21275 7.5 6.0492 12336.4 -4204.02 -126531 -16171.2 -4706.48 29258.8 -7.40947 
178 1 63.9658 3.97262 7.5 6.0492 -230.583 8.63105 -103985 14111.1 22756 40740.1 -7.41083 
248 1 55.4832 6.55798 7.5 6.0492 -3747.35 -8690.91 -56851.4 11303.9 32472.7 36630.4 -7.41369 
249 1 56.903 6.53696 7.5 6.0492 13458.1 -6990.73 -119092 -14792.1 -11762.7 24343.1 -7.40992 
250 1 57.6311 7.75607 7.5 6.0492 -5695.11 -6028.86 -60459.8 11693.2 31070.6 40460.8 -7.41347 
251 1 59.051 7.73505 7.5 6.0492 14233.6 -5867.74 -124981 -15822.9 -5802.97 23682 -7.40957 
252 1 59.7427 6.49492 7.5 6.0492 -3851.29 -3634.93 -75754.6 12829.5 29039.9 41492 -7.41254 
253 1 61.1625 6.4739 7.5 6.0492 13431 -5122.02 -125164 -16181.7 -5199.97 26658.7 -7.40956 
254 1 61.8907 7.69302 7.5 6.0492 -5670.08 -835.009 -81144.5 12515.4 27918.8 43603.7 -7.41221 
255 1 63.3105 7.672 7.5 6.0492 14142 -4624.31 -130045 -16409.9 1302.23 24899.1 -7.40926 
256 1 64.0022 6.43187 7.5 6.0492 -3845.43 1063.65 -95813.6 13041 25532.1 42909.4 -7.41132 
326 1 55.5196 9.01722 7.5 6.0492 -7537.38 -8680.68 -44830.5 10291.7 32304.7 38379.5 -7.41443 
327 1 56.9394 8.9962 7.5 6.0492 14737.2 -6447.46 -125998 -15107.3 -6449.05 20456.2 -7.40951 
328 1 57.6675 10.2153 7.5 6.0492 -9298.43 -5763.52 -49708.8 10478.6 30550.6 42100.5 -7.41413 
329 1 59.0874 10.1943 7.5 6.0492 15179.4 -5559 -129589 -16048.7 -318.9 19380.3 -7.40929 
330 1 59.7791 8.95417 7.5 6.0492 -7479.37 -3129.7 -65669.8 11646.1 29604.3 43359.6 -7.41316 
331 1 61.1989 8.93315 7.5 6.0492 14819.3 -5172.82 -129227 -16409.3 550.839 22279.6 -7.40931 
332 1 61.9271 10.1523 7.5 6.0492 -9067.1 -41.9822 -72253.5 11165.9 28200.3 45180.7 -7.41275 
333 1 63.3469 10.1312 7.5 6.0492 15180.7 -4923.02 -131703 -16528 7194.62 20232.9 -7.40916 
334 1 64.0386 8.89111 7.5 6.0492 -7292.33 2147.21 -87645.2 11770.2 26943.6 44586.1 -7.41182 
32 1 66.041 0.25223 7.5 6.0492 4982.72 -86.2194 -122560 15006.3 13559.1 36266 -7.40971 
33 1 67.4608 0.231211 7.5 6.0492 6423.96 -403.562 -128232 -14488.5 -10565.5 35898.9 -7.40937 
34 1 70.3005 0.189172 7.5 6.0492 4918.59 2187.11 -136394 13093 8307.31 33014.3 -7.40888 
35 1 71.7203 0.168153 7.5 6.0492 6077.12 1825.95 -140985 -12097.7 -5867.2 31320.3 -7.4086 
101 1 65.3493 1.49236 7.5 6.0492 8201.31 -2157.84 -124332 -15364.2 -10397.4 35045.2 -7.40961 
102 1 66.0774 2.71147 7.5 6.0492 1533.27 1177.02 -116356 14186.3 18569.5 39052.9 -7.41008 
103 1 67.4972 2.69045 7.5 6.0492 9475.29 -1736.78 -132406 -14957.6 -4429.34 32506.4 -7.40912 
104 1 68.1889 1.45032 7.5 6.0492 3265.91 1904.48 -127233 13852.5 13732 36486.4 -7.40943 
105 1 69.6088 1.4293 7.5 6.0492 7822.2 -100.076 -136512 -13728 -4880.25 32607.2 -7.40887 
106 1 70.3369 2.64841 7.5 6.0492 1555.99 4108.66 -132323 12290 14365.2 35369.3 -7.40912 
107 1 71.7568 2.6274 7.5 6.0492 9073.61 -188.193 -142924 -12497.4 1191.86 28407.5 -7.40849 
108 1 72.4485 1.38726 7.5 6.0492 3304.45 4247.66 -141196 11213.6 9410.75 30962.2 -7.40859 
179 1 65.3857 3.9516 7.5 6.0492 11004.1 -3095.16 -128998 -15770.5 -4411.96 31292.9 -7.40933 
180 1 66.1138 5.17071 7.5 6.0492 -2036.06 2521.58 -109400 13191.5 22467.2 41315.4 -7.4105 
181 1 67.5336 5.1497 7.5 6.0492 11986.4 -2953.53 -134939 -15265.1 2111.69 28577.5 -7.40897 
182 1 68.2253 3.90956 7.5 6.0492 -222.675 3539.3 -121649 12946.1 18737.3 38813.8 -7.40976 
183 1 69.6452 3.88855 7.5 6.0492 10601.9 -1728.98 -138683 -14082.9 1933.15 29119.8 -7.40874 
184 1 70.3733 5.10766 7.5 6.0492 -1904.44 6080.87 -127247 11329 19304.9 37155.5 -7.40943 
185 1 71.7932 5.08664 7.5 6.0492 11548.6 -2092.56 -143039 -12736.3 8534.33 24944.7 -7.40848 
186 1 72.4849 3.84651 7.5 6.0492 -87.7101 6495.95 -137424 10383.7 15477.8 32729.6 -7.40882 
257 1 65.4221 6.41085 7.5 6.0492 13188.7 -3904.36 -131991 -16036 1858.06 27075.4 -7.40915 
258 1 66.1502 7.62996 7.5 6.0492 -5515.57 3904.22 -102114 12012.3 25040.6 43051.6 -7.41094 
259 1 67.57 7.60894 7.5 6.0492 13830.7 -4031.45 -135631 -15423.1 8696.95 24205.5 -7.40893 
260 1 68.2618 6.36881 7.5 6.0492 -3709.02 5220.02 -115397 11869.6 22496 40584.9 -7.41014 
261 1 69.6816 6.34779 7.5 6.0492 12786.1 -3221.69 -139018 -14282 8894.79 25123.1 -7.40872 
262 1 70.4097 7.5669 7.5 6.0492 -5246.82 8045.49 -121589 10216.5 22862.6 38387.2 -7.40977 
263 1 71.8296 7.54588 7.5 6.0492 13380.7 -3850.62 -141174 -12824.5 15747.9 21036.6 -7.40859 
264 1 72.5213 6.30575 7.5 6.0492 -3463.59 8742.26 -132724 9419.68 20252.6 33950.5 -7.4091 
335 1 65.4585 8.87009 7.5 6.0492 14648.8 -4582.67 -133136 -16166.2 8087.84 22487.6 -7.40908 
336 1 66.1866 10.0892 7.5 6.0492 -8710.03 5265.54 -94932.7 10639 26203.2 44275.3 -7.41138 
337 1 67.6064 10.0682 7.5 6.0492 14926.7 -4970.59 -134376 -15440.7 15015 19511.2 -7.409 
338 1 68.2982 8.82805 7.5 6.0492 -6987.52 6887.94 -108910 10621.6 24838.7 41817.8 -7.41053 
339 1 69.718 8.80703 7.5 6.0492 14269.1 -4566.58 -137390 -14330.6 15645.8 20736.3 -7.40882 
340 1 70.4461 10.0261 7.5 6.0492 -8276.96 9932.48 -115790 8956.58 24923.6 39102.7 -7.41012 
341 1 71.866 10.0051 7.5 6.0492 14492.6 -5449.72 -137280 -12771.3 22494.7 16819.4 -7.40883 
342 1 72.5577 8.76499 7.5 6.0492 -6614.53 10915.9 -127537 8332.71 23517.8 34658 -7.40941 
36 1 74.56 0.126115 7.5 6.0492 4970.79 3952.41 -148078 9718.37 3996.52 25641.4 -7.40818 
37 1 75.9799 0.105096 7.5 6.0492 5769.44 3686.76 -151307 -8303.15 -2301.9 22389.9 -7.40798 
38 1 78.8196 0.0630574 7.5 6.0492 5122.72 5079.75 -155983 5183.24 1114.41 14158.2 -7.4077 
39 1 80.2394 0.0420382 7.5 6.04915 5498.9 4955.87 -157536 -3488.94 -311.054 9653.89 -7.40761 
109 1 73.8683 1.36625 7.5 6.0492 7458.22 1639.69 -147282 -10548 -209.777 26202.3 -7.40823 
110 1 74.5964 2.58536 7.5 6.0492 1697.04 6456.42 -145709 9033.73 11071.7 27322.4 -7.40832 
111 1 76.0163 2.56434 7.5 6.0492 8694.87 1091.21 -151518 -8561.81 5639.67 20319.4 -7.40797 
112 1 76.708 1.32421 7.5 6.0492 3450.42 5980.75 -151928 7290.23 6214.75 21049.5 -7.40795 
113 1 78.1279 1.30319 7.5 6.0492 7136.63 3004.18 -155074 -6085.18 3011.32 15681.4 -7.40776 
114 1 78.856 2.5223 7.5 6.0492 1912.82 7988.73 -154715 4733.03 8929.85 14997.4 -7.40778 
115 1 80.2758 2.50128 7.5 6.04915 8373.84 1999.51 -156742 -3530.31 8237.76 8710.36 -7.40766 
116 1 80.9675 1.26115 7.5 6.04915 3619.2 6852.6 -157797 2489.64 4442.05 7476.25 -7.40759 
117 1 82.3874 1.24013 7.5 6.04911 6685.41 3515.99 -158470 -837.349 4298.59 2294.44 -7.40756 
187 1 73.9047 3.82549 7.5 6.0492 10177.7 -644.173 -147348 -10809.7 7478.75 23401.2 -7.40822 
188 1 74.6329 5.0446 7.5 6.0492 -1672.95 8961.46 -142082 8232.34 17009.6 28502.2 -7.40854 
189 1 76.0527 5.02358 7.5 6.0492 11111 -1414.37 -149743 -8695.34 13745.2 17804.9 -7.40808 
190 1 76.7444 3.78345 7.5 6.0492 135.775 8710.24 -149460 6662.04 13190.5 22118 -7.40809 
191 1 78.1643 3.76243 7.5 6.0492 9796.13 221.346 -153678 -6192.02 11430.1 13969.1 -7.40784 
192 1 78.8924 4.98154 7.5 6.0492 -1402.83 10851.3 -151991 4223.84 15588.9 15545.1 -7.40794 
193 1 80.3122 4.96052 7.5 6.04915 10747 -887.571 -153863 -3514.44 16868 7554.5 -7.40783 
194 1 81.0039 3.72039 7.5 6.04915 342.795 9848.03 -156004 2176.38 11929.3 7786.65 -7.4077 
195 1 82.4238 3.69937 7.5 6.04911 9318.85 511.71 -156463 -741.385 13082 1938.8 -7.40768 
265 1 73.9411 6.28473 7.5 6.0492 12319.8 -2799.6 -145422 -10932.3 15160.1 20131.7 -7.40834 
266 1 74.6693 7.50384 7.5 6.0492 -4918.07 11399.7 -137624 7328.26 21484.8 29201.1 -7.4088 
267 1 76.0891 7.48282 7.5 6.0492 12904.2 -3778.28 -145868 -8712.96 21545.9 14936.8 -7.40831 
268 1 76.7808 6.24269 7.5 6.0492 -3167.54 11382.4 -145832 5952.67 18821.5 22778.9 -7.40831 
269 1 78.2007 6.22167 7.5 6.0492 11889.7 -2447.19 -150171 -6212.36 19708 11948.2 -7.40805 
270 1 78.9288 7.44078 7.5 6.0492 -4599.81 13595.4 -148242 3669.05 20717.9 15811.6 -7.40817 
271 1 80.3486 7.41977 7.5 6.04915 12510.7 -3638.8 -148817 -3451.95 25068.7 6235.86 -7.40813 
272 1 81.0404 6.17963 7.5 6.04915 -2933.01 12747.8 -152905 1841.23 18040.4 7953.07 -7.40788 
273 1 82.4602 6.15862 7.5 6.04911 11393.8 -2386.58 -152303 -637.881 21656.9 1526.42 -7.40793 
343 1 73.9775 8.74397 7.5 6.0492 13786.7 -4796.58 -141429 -10919.9 22431.6 16512.6 -7.40858 
344 1 74.7057 9.96309 7.5 6.0492 -7842.69 13695.3 -132790 6334.83 24346.1 29463.7 -7.40909 
345 1 76.1255 9.94207 7.5 6.0492 14005.6 -5969.34 -139901 -8622.18 28673.5 11832.9 -7.40867 