(written by TR)

9128	atoms
1	atom types
0	83.0790968	xlo xhi
0	143.897217	ylo yhi
0	18.3999996	zlo zhi


Masses

1	12

Atoms

1 1 1 0 0.00000000 0.00000000 7.50000000 0 0 0
2 1 1 0 2.14796987 1.19809252 7.50000000 0 0 0
3 1 1 0 3.56781420 1.17707335 7.50000000 0 0 0
4 1 1 0 6.40750335 1.13503501 7.50000000 0 0 0
5 1 1 0 7.82734768 1.11401584 7.50000000 0 0 0
6 1 1 0 10.66703683 1.07197750 7.50000000 0 0 0
7 1 1 0 12.08688116 1.05095833 7.50000000 0 0 0
8 1 1 0 14.92657031 1.00891999 7.50000000 0 0 0
9 1 1 0 16.34641463 0.98790082 7.50000000 0 0 0
10 1 1 0 19.18610379 0.94586248 7.50000000 0 0 0
11 1 1 0 20.60594811 0.92484332 7.50000000 0 0 0
12 1 1 0 23.44563726 0.88280498 7.50000000 0 0 0
13 1 1 0 24.86548159 0.86178581 7.50000000 0 0 0
14 1 1 0 27.70517074 0.81974747 7.50000000 0 0 0
15 1 1 0 29.12501507 0.79872830 7.50000000 0 0 0
16 1 1 0 31.96470422 0.75668996 7.50000000 0 0 0
17 1 1 0 33.38454855 0.73567079 7.50000000 0 0 0
18 1 1 0 36.22423770 0.69363245 7.50000000 0 0 0
19 1 1 0 37.64408203 0.67261328 7.50000000 0 0 0
20 1 1 0 40.48377118 0.63057494 7.50000000 0 0 0
21 1 1 0 41.90361550 0.60955578 7.50000000 0 0 0
22 1 1 0 44.74330466 0.56751744 7.50000000 0 0 0
23 1 1 0 46.16314898 0.54649827 7.50000000 0 0 0
24 1 1 0 49.00283814 0.50445993 7.50000000 0 0 0
25 1 1 0 50.42268246 0.48344076 7.50000000 0 0 0
26 1 1 0 53.26237161 0.44140242 7.50000000 0 0 0
27 1 1 0 54.68221594 0.42038325 7.50000000 0 0 0
28 1 1 0 57.52190509 0.37834491 7.50000000 0 0 0
29 1 1 0 58.94174942 0.35732575 7.50000000 0 0 0
30 1 1 0 61.78143857 0.31528740 7.50000000 0 0 0
31 1 1 0 63.20128290 0.29426824 7.50000000 0 0 0
32 1 1 0 66.04097205 0.25222990 7.50000000 0 0 0
33 1 1 0 67.46081638 0.23121073 7.50000000 0 0 0
34 1 1 0 70.30050553 0.18917239 7.50000000 0 0 0
35 1 1 0 71.72034985 0.16815322 7.50000000 0 0 0
36 1 1 0 74.56003901 0.12611488 7.50000000 0 0 0
37 1 1 0 75.97988333 0.10509571 7.50000000 0 0 0
38 1 1 0 78.81957249 0.06305737 7.50000000 0 0 0
39 1 1 0 80.23941681 0.04203821 7.50000000 0 0 0
40 1 1 0 0.03640627 2.45924254 7.50000000 0 0 0
41 1 1 0 1.45625069 2.43822337 7.50000000 0 0 0
42 1 1 0 2.18437614 3.65733505 7.50000000 0 0 0
43 1 1 0 3.60422046 3.63631589 7.50000000 0 0 0
44 1 1 0 4.29593974 2.39618503 7.50000000 0 0 0
45 1 1 0 5.71578417 2.37516586 7.50000000 0 0 0
46 1 1 0 6.44390962 3.59427755 7.50000000 0 0 0
47 1 1 0 7.86375394 3.57325838 7.50000000 0 0 0
48 1 1 0 8.55547322 2.33312752 7.50000000 0 0 0
49 1 1 0 9.97531765 2.31210835 7.50000000 0 0 0
50 1 1 0 10.70344309 3.53122004 7.50000000 0 0 0
51 1 1 0 12.12328742 3.51020087 7.50000000 0 0 0
52 1 1 0 12.81500670 2.27007001 7.50000000 0 0 0
53 1 1 0 14.23485113 2.24905085 7.50000000 0 0 0
54 1 1 0 14.96297657 3.46816253 7.50000000 0 0 0
55 1 1 0 16.38282090 3.44714336 7.50000000 0 0 0
56 1 1 0 17.07454018 2.20701251 7.50000000 0 0 0
57 1 1 0 18.49438461 2.18599334 7.50000000 0 0 0
58 1 1 0 19.22251005 3.40510502 7.50000000 0 0 0
59 1 1 0 20.64235438 3.38408585 7.50000000 0 0 0
60 1 1 0 21.33407366 2.14395500 7.50000000 0 0 0
61 1 1 0 22.75391808 2.12293583 7.50000000 0 0 0
62 1 1 0 23.48204353 3.34204751 7.50000000 0 0 0
63 1 1 0 24.90188786 3.32102835 7.50000000 0 0 0
64 1 1 0 25.59360714 2.08089749 7.50000000 0 0 0
65 1 1 0 27.01345156 2.05987832 7.50000000 0 0 0
66 1 1 0 27.74157701 3.27899001 7.50000000 0 0 0
67 1 1 0 29.16142133 3.25797084 7.50000000 0 0 0
68 1 1 0 29.85314061 2.01783998 7.50000000 0 0 0
69 1 1 0 31.27298504 1.99682081 7.50000000 0 0 0
70 1 1 0 32.00111049 3.21593250 7.50000000 0 0 0
71 1 1 0 33.42095481 3.19491333 7.50000000 0 0 0
72 1 1 0 34.11267409 1.95478247 7.50000000 0 0 0
73 1 1 0 35.53251852 1.93376331 7.50000000 0 0 0
74 1 1 0 36.26064397 3.15287499 7.50000000 0 0 0
75 1 1 0 37.68048829 3.13185582 7.50000000 0 0 0
76 1 1 0 38.37220757 1.89172497 7.50000000 0 0 0
77 1 1 0 39.79205200 1.87070580 7.50000000 0 0 0
78 1 1 0 40.52017744 3.08981748 7.50000000 0 0 0
79 1 1 0 41.94002177 3.06879832 7.50000000 0 0 0
80 1 1 0 42.63174105 1.82866746 7.50000000 0 0 0
81 1 1 0 44.05158548 1.80764829 7.50000000 0 0 0
82 1 1 0 44.77971092 3.02675997 7.50000000 0 0 0
83 1 1 0 46.19955525 3.00574081 7.50000000 0 0 0
84 1 1 0 46.89127453 1.76560995 7.50000000 0 0 0
85 1 1 0 48.31111896 1.74459078 7.50000000 0 0 0
86 1 1 0 49.03924440 2.96370247 7.50000000 0 0 0
87 1 1 0 50.45908873 2.94268330 7.50000000 0 0 0
88 1 1 0 51.15080801 1.70255244 7.50000000 0 0 0
89 1 1 0 52.57065243 1.68153327 7.50000000 0 0 0
90 1 1 0 53.29877788 2.90064496 7.50000000 0 0 0
91 1 1 0 54.71862221 2.87962579 7.50000000 0 0 0
92 1 1 0 55.41034149 1.63949493 7.50000000 0 0 0
93 1 1 0 56.83018591 1.61847577 7.50000000 0 0 0
94 1 1 0 57.55831136 2.83758745 7.50000000 0 0 0
95 1 1 0 58.97815568 2.81656828 7.50000000 0 0 0
96 1 1 0 59.66987496 1.57643743 7.50000000 0 0 0
97 1 1 0 61.08971939 1.55541826 7.50000000 0 0 0
98 1 1 0 61.81784484 2.77452994 7.50000000 0 0 0
99 1 1 0 63.23768916 2.75351078 7.50000000 0 0 0
100 1 1 0 63.92940844 1.51337992 7.50000000 0 0 0
101 1 1 0 65.34925287 1.49236075 7.50000000 0 0 0
102 1 1 0 66.07737832 2.71147243 7.50000000 0 0 0
103 1 1 0 67.49722264 2.69045327 7.50000000 0 0 0
104 1 1 0 68.18894192 1.45032241 7.50000000 0 0 0
105 1 1 0 69.60878635 1.42930324 7.50000000 0 0 0
106 1 1 0 70.33691179 2.64841493 7.50000000 0 0 0
107 1 1 0 71.75675612 2.62739576 7.50000000 0 0 0
108 1 1 0 72.44847540 1.38726490 7.50000000 0 0 0
109 1 1 0 73.86831983 1.36624573 7.50000000 0 0 0
110 1 1 0 74.59644527 2.58535742 7.50000000 0 0 0
111 1 1 0 76.01628960 2.56433825 7.50000000 0 0 0
112 1 1 0 76.70800888 1.32420740 7.50000000 0 0 0
113 1 1 0 78.12785330 1.30318823 7.50000000 0 0 0
114 1 1 0 78.85597875 2.52229991 7.50000000 0 0 0
115 1 1 0 80.27582308 2.50128074 7.50000000 0 0 0
116 1 1 0 80.96754236 1.26114989 7.50000000 0 0 0
117 1 1 0 82.38738678 1.24013072 7.50000000 0 0 0
118 1 1 0 0.07281253 4.91848508 7.50000000 0 0 0
119 1 1 0 1.49265696 4.89746591 7.50000000 0 0 0
120 1 1 0 2.22078240 6.11657759 7.50000000 0 0 0
121 1 1 0 3.64062673 6.09555842 7.50000000 0 0 0
122 1 1 0 4.33234601 4.85542757 7.50000000 0 0 0
123 1 1 0 5.75219044 4.83440840 7.50000000 0 0 0
124 1 1 0 6.48031588 6.05352008 7.50000000 0 0 0
125 1 1 0 7.90016021 6.03250092 7.50000000 0 0 0
126 1 1 0 8.59187949 4.79237006 7.50000000 0 0 0
127 1 1 0 10.01172391 4.77135089 7.50000000 0 0 0
128 1 1 0 10.73984936 5.99046258 7.50000000 0 0 0
129 1 1 0 12.15969369 5.96944341 7.50000000 0 0 0
130 1 1 0 12.85141297 4.72931255 7.50000000 0 0 0
131 1 1 0 14.27125739 4.70829338 7.50000000 0 0 0
132 1 1 0 14.99938284 5.92740507 7.50000000 0 0 0
133 1 1 0 16.41922716 5.90638590 7.50000000 0 0 0
134 1 1 0 17.11094644 4.66625504 7.50000000 0 0 0
135 1 1 0 18.53079087 4.64523588 7.50000000 0 0 0
136 1 1 0 19.25891632 5.86434756 7.50000000 0 0 0
137 1 1 0 20.67876064 5.84332839 7.50000000 0 0 0
138 1 1 0 21.37047992 4.60319754 7.50000000 0 0 0
139 1 1 0 22.79032435 4.58217837 7.50000000 0 0 0
140 1 1 0 23.51844980 5.80129005 7.50000000 0 0 0
141 1 1 0 24.93829412 5.78027089 7.50000000 0 0 0
142 1 1 0 25.63001340 4.54014003 7.50000000 0 0 0
143 1 1 0 27.04985783 4.51912086 7.50000000 0 0 0
144 1 1 0 27.77798327 5.73823254 7.50000000 0 0 0
145 1 1 0 29.19782760 5.71721338 7.50000000 0 0 0
146 1 1 0 29.88954688 4.47708252 7.50000000 0 0 0
147 1 1 0 31.30939131 4.45606335 7.50000000 0 0 0
148 1 1 0 32.03751675 5.67517504 7.50000000 0 0 0
149 1 1 0 33.45736108 5.65415587 7.50000000 0 0 0
150 1 1 0 34.14908036 4.41402501 7.50000000 0 0 0
151 1 1 0 35.56892479 4.39300584 7.50000000 0 0 0
152 1 1 0 36.29705023 5.61211753 7.50000000 0 0 0
153 1 1 0 37.71689456 5.59109836 7.50000000 0 0 0
154 1 1 0 38.40861384 4.35096751 7.50000000 0 0 0
155 1 1 0 39.82845826 4.32994834 7.50000000 0 0 0
156 1 1 0 40.55658371 5.54906002 7.50000000 0 0 0
157 1 1 0 41.97642804 5.52804085 7.50000000 0 0 0
158 1 1 0 42.66814732 4.28791000 7.50000000 0 0 0
159 1 1 0 44.08799174 4.26689083 7.50000000 0 0 0
160 1 1 0 44.81611719 5.48600251 7.50000000 0 0 0
161 1 1 0 46.23596151 5.46498335 7.50000000 0 0 0
162 1 1 0 46.92768079 4.22485249 7.50000000 0 0 0
163 1 1 0 48.34752522 4.20383332 7.50000000 0 0 0
164 1 1 0 49.07565067 5.42294500 7.50000000 0 0 0
165 1 1 0 50.49549499 5.40192584 7.50000000 0 0 0
166 1 1 0 51.18721427 4.16179498 7.50000000 0 0 0
167 1 1 0 52.60705870 4.14077581 7.50000000 0 0 0
168 1 1 0 53.33518414 5.35988750 7.50000000 0 0 0
169 1 1 0 54.75502847 5.33886833 7.50000000 0 0 0
170 1 1 0 55.44674775 4.09873747 7.50000000 0 0 0
171 1 1 0 56.86659218 4.07771830 7.50000000 0 0 0
172 1 1 0 57.59471762 5.29682999 7.50000000 0 0 0
173 1 1 0 59.01456195 5.27581082 7.50000000 0 0 0
174 1 1 0 59.70628123 4.03567997 7.50000000 0 0 0
175 1 1 0 61.12612566 4.01466080 7.50000000 0 0 0
176 1 1 0 61.85425110 5.23377248 7.50000000 0 0 0
177 1 1 0 63.27409543 5.21275331 7.50000000 0 0 0
178 1 1 0 63.96581471 3.97262246 7.50000000 0 0 0
179 1 1 0 65.38565913 3.95160329 7.50000000 0 0 0
180 1 1 0 66.11378458 5.17071497 7.50000000 0 0 0
181 1 1 0 67.53362891 5.14969581 7.50000000 0 0 0
182 1 1 0 68.22534819 3.90956495 7.50000000 0 0 0
183 1 1 0 69.64519261 3.88854578 7.50000000 0 0 0
184 1 1 0 70.37331806 5.10765746 7.50000000 0 0 0
185 1 1 0 71.79316239 5.08663830 7.50000000 0 0 0
186 1 1 0 72.48488167 3.84650744 7.50000000 0 0 0
187 1 1 0 73.90472609 3.82548827 7.50000000 0 0 0
188 1 1 0 74.63285154 5.04459996 7.50000000 0 0 0
189 1 1 0 76.05269586 5.02358079 7.50000000 0 0 0
190 1 1 0 76.74441514 3.78344993 7.50000000 0 0 0
191 1 1 0 78.16425957 3.76243077 7.50000000 0 0 0
192 1 1 0 78.89238502 4.98154245 7.50000000 0 0 0
193 1 1 0 80.31222934 4.96052328 7.50000000 0 0 0
194 1 1 0 81.00394862 3.72039243 7.50000000 0 0 0
195 1 1 0 82.42379305 3.69937326 7.50000000 0 0 0
196 1 1 0 0.10921880 7.37772761 7.50000000 0 0 0
197 1 1 0 1.52906322 7.35670845 7.50000000 0 0 0
198 1 1 0 2.25718867 8.57582013 7.50000000 0 0 0
199 1 1 0 3.67703299 8.55480096 7.50000000 0 0 0
200 1 1 0 4.36875227 7.31467011 7.50000000 0 0 0
201 1 1 0 5.78859670 7.29365094 7.50000000 0 0 0
202 1 1 0 6.51672215 8.51276262 7.50000000 0 0 0
203 1 1 0 7.93656647 8.49174346 7.50000000 0 0 0
204 1 1 0 8.62828575 7.25161260 7.50000000 0 0 0
205 1 1 0 10.04813018 7.23059343 7.50000000 0 0 0
206 1 1 0 10.77625562 8.44970511 7.50000000 0 0 0
207 1 1 0 12.19609995 8.42868595 7.50000000 0 0 0
208 1 1 0 12.88781923 7.18855509 7.50000000 0 0 0
209 1 1 0 14.30766366 7.16753592 7.50000000 0 0 0
210 1 1 0 15.03578910 8.38664761 7.50000000 0 0 0
211 1 1 0 16.45563343 8.36562844 7.50000000 0 0 0
212 1 1 0 17.14735271 7.12549758 7.50000000 0 0 0
213 1 1 0 18.56719714 7.10447841 7.50000000 0 0 0
214 1 1 0 19.29532258 8.32359010 7.50000000 0 0 0
215 1 1 0 20.71516691 8.30257093 7.50000000 0 0 0
216 1 1 0 21.40688619 7.06244008 7.50000000 0 0 0
217 1 1 0 22.82673061 7.04142091 7.50000000 0 0 0
218 1 1 0 23.55485606 8.26053259 7.50000000 0 0 0
219 1 1 0 24.97470039 8.23951342 7.50000000 0 0 0
220 1 1 0 25.66641967 6.99938257 7.50000000 0 0 0
221 1 1 0 27.08626409 6.97836340 7.50000000 0 0 0
222 1 1 0 27.81438954 8.19747508 7.50000000 0 0 0
223 1 1 0 29.23423387 8.17645592 7.50000000 0 0 0
224 1 1 0 29.92595315 6.93632506 7.50000000 0 0 0
225 1 1 0 31.34579757 6.91530589 7.50000000 0 0 0
226 1 1 0 32.07392302 8.13441757 7.50000000 0 0 0
227 1 1 0 33.49376734 8.11339841 7.50000000 0 0 0
228 1 1 0 34.18548662 6.87326755 7.50000000 0 0 0
229 1 1 0 35.60533105 6.85224838 7.50000000 0 0 0
230 1 1 0 36.33345650 8.07136007 7.50000000 0 0 0
231 1 1 0 37.75330082 8.05034090 7.50000000 0 0 0
232 1 1 0 38.44502010 6.81021004 7.50000000 0 0 0
233 1 1 0 39.86486453 6.78919087 7.50000000 0 0 0
234 1 1 0 40.59298997 8.00830256 7.50000000 0 0 0
235 1 1 0 42.01283430 7.98728339 7.50000000 0 0 0
236 1 1 0 42.70455358 6.74715254 7.50000000 0 0 0
237 1 1 0 44.12439801 6.72613337 7.50000000 0 0 0
238 1 1 0 44.85252345 7.94524505 7.50000000 0 0 0
239 1 1 0 46.27236778 7.92422588 7.50000000 0 0 0
240 1 1 0 46.96408706 6.68409503 7.50000000 0 0 0
241 1 1 0 48.38393149 6.66307586 7.50000000 0 0 0
242 1 1 0 49.11205693 7.88218754 7.50000000 0 0 0
243 1 1 0 50.53190126 7.86116838 7.50000000 0 0 0
244 1 1 0 51.22362054 6.62103752 7.50000000 0 0 0
245 1 1 0 52.64346496 6.60001835 7.50000000 0 0 0
246 1 1 0 53.37159041 7.81913003 7.50000000 0 0 0
247 1 1 0 54.79143474 7.79811087 7.50000000 0 0 0
248 1 1 0 55.48315402 6.55798001 7.50000000 0 0 0
249 1 1 0 56.90299844 6.53696084 7.50000000 0 0 0
250 1 1 0 57.63112389 7.75607253 7.50000000 0 0 0
251 1 1 0 59.05096821 7.73505336 7.50000000 0 0 0
252 1 1 0 59.74268750 6.49492250 7.50000000 0 0 0
253 1 1 0 61.16253192 6.47390334 7.50000000 0 0 0
254 1 1 0 61.89065737 7.69301502 7.50000000 0 0 0
255 1 1 0 63.31050169 7.67199585 7.50000000 0 0 0
256 1 1 0 64.00222097 6.43186500 7.50000000 0 0 0
257 1 1 0 65.42206540 6.41084583 7.50000000 0 0 0
258 1 1 0 66.15019085 7.62995751 7.50000000 0 0 0
259 1 1 0 67.57003517 7.60893834 7.50000000 0 0 0
260 1 1 0 68.26175445 6.36880749 7.50000000 0 0 0
261 1 1 0 69.68159888 6.34778832 7.50000000 0 0 0
262 1 1 0 70.40972432 7.56690000 7.50000000 0 0 0
263 1 1 0 71.82956865 7.54588084 7.50000000 0 0 0
264 1 1 0 72.52128793 6.30574998 7.50000000 0 0 0
265 1 1 0 73.94113236 6.28473081 7.50000000 0 0 0
266 1 1 0 74.66925780 7.50384249 7.50000000 0 0 0
267 1 1 0 76.08910213 7.48282333 7.50000000 0 0 0
268 1 1 0 76.78082141 6.24269247 7.50000000 0 0 0
269 1 1 0 78.20066584 6.22167330 7.50000000 0 0 0
270 1 1 0 78.92879128 7.44078499 7.50000000 0 0 0
271 1 1 0 80.34863561 7.41976582 7.50000000 0 0 0
272 1 1 0 81.04035489 6.17963496 7.50000000 0 0 0
273 1 1 0 82.46019931 6.15861580 7.50000000 0 0 0
274 1 1 0 0.14562506 9.83697015 7.50000000 0 0 0
275 1 1 0 1.56546949 9.81595098 7.50000000 0 0 0
276 1 1 0 2.29359493 11.03506267 7.50000000 0 0 0
277 1 1 0 3.71343926 11.01404350 7.50000000 0 0 0
278 1 1 0 4.40515854 9.77391265 7.50000000 0 0 0
279 1 1 0 5.82500297 9.75289348 7.50000000 0 0 0
280 1 1 0 6.55312841 10.97200516 7.50000000 0 0 0
281 1 1 0 7.97297274 10.95098599 7.50000000 0 0 0
282 1 1 0 8.66469202 9.71085514 7.50000000 0 0 0
283 1 1 0 10.08453644 9.68983597 7.50000000 0 0 0
284 1 1 0 10.81266189 10.90894765 7.50000000 0 0 0
285 1 1 0 12.23250622 10.88792849 7.50000000 0 0 0
286 1 1 0 12.92422550 9.64779763 7.50000000 0 0 0
287 1 1 0 14.34406992 9.62677846 7.50000000 0 0 0
288 1 1 0 15.07219537 10.84589014 7.50000000 0 0 0
289 1 1 0 16.49203969 10.82487098 7.50000000 0 0 0
290 1 1 0 17.18375898 9.58474012 7.50000000 0 0 0
291 1 1 0 18.60360340 9.56372095 7.50000000 0 0 0
292 1 1 0 19.33172885 10.78283264 7.50000000 0 0 0
293 1 1 0 20.75157317 10.76181347 7.50000000 0 0 0
294 1 1 0 21.44329245 9.52168261 7.50000000 0 0 0
295 1 1 0 22.86313688 9.50066344 7.50000000 0 0 0
296 1 1 0 23.59126233 10.71977513 7.50000000 0 0 0
297 1 1 0 25.01110665 10.69875596 7.50000000 0 0 0
298 1 1 0 25.70282593 9.45862511 7.50000000 0 0 0
299 1 1 0 27.12267036 9.43760594 7.50000000 0 0 0
300 1 1 0 27.85079580 10.65671762 7.50000000 0 0 0
301 1 1 0 29.27064013 10.63569845 7.50000000 0 0 0
302 1 1 0 29.96235941 9.39556760 7.50000000 0 0 0
303 1 1 0 31.38220384 9.37454843 7.50000000 0 0 0
304 1 1 0 32.11032928 10.59366011 7.50000000 0 0 0
305 1 1 0 33.53017361 10.57264095 7.50000000 0 0 0
306 1 1 0 34.22189289 9.33251009 7.50000000 0 0 0
307 1 1 0 35.64173732 9.31149092 7.50000000 0 0 0
308 1 1 0 36.36986276 10.53060260 7.50000000 0 0 0
309 1 1 0 37.78970709 10.50958344 7.50000000 0 0 0
310 1 1 0 38.48142637 9.26945258 7.50000000 0 0 0
311 1 1 0 39.90127079 9.24843341 7.50000000 0 0 0
312 1 1 0 40.62939624 10.46754510 7.50000000 0 0 0
313 1 1 0 42.04924057 10.44652593 7.50000000 0 0 0
314 1 1 0 42.74095985 9.20639507 7.50000000 0 0 0
315 1 1 0 44.16080427 9.18537591 7.50000000 0 0 0
316 1 1 0 44.88892972 10.40448759 7.50000000 0 0 0
317 1 1 0 46.30877404 10.38346842 7.50000000 0 0 0
318 1 1 0 47.00049333 9.14333757 7.50000000 0 0 0
319 1 1 0 48.42033775 9.12231840 7.50000000 0 0 0
320 1 1 0 49.14846320 10.34143008 7.50000000 0 0 0
321 1 1 0 50.56830752 10.32041091 7.50000000 0 0 0
322 1 1 0 51.26002680 9.08028006 7.50000000 0 0 0
323 1 1 0 52.67987123 9.05926089 7.50000000 0 0 0
324 1 1 0 53.40799668 10.27837257 7.50000000 0 0 0
325 1 1 0 54.82784100 10.25735341 7.50000000 0 0 0
326 1 1 0 55.51956028 9.01722255 7.50000000 0 0 0
327 1 1 0 56.93940471 8.99620338 7.50000000 0 0 0
328 1 1 0 57.66753015 10.21531506 7.50000000 0 0 0
329 1 1 0 59.08737448 10.19429590 7.50000000 0 0 0
330 1 1 0 59.77909376 8.95416504 7.50000000 0 0 0
331 1 1 0 61.19893819 8.93314587 7.50000000 0 0 0
332 1 1 0 61.92706363 10.15225756 7.50000000 0 0 0
333 1 1 0 63.34690796 10.13123839 7.50000000 0 0 0
334 1 1 0 64.03862724 8.89110753 7.50000000 0 0 0
335 1 1 0 65.45847167 8.87008837 7.50000000 0 0 0
336 1 1 0 66.18659711 10.08920005 7.50000000 0 0 0
337 1 1 0 67.60644144 10.06818088 7.50000000 0 0 0
338 1 1 0 68.29816072 8.82805003 7.50000000 0 0 0
339 1 1 0 69.71800514 8.80703086 7.50000000 0 0 0
340 1 1 0 70.44613059 10.02614254 7.50000000 0 0 0
341 1 1 0 71.86597492 10.00512337 7.50000000 0 0 0
342 1 1 0 72.55769420 8.76499252 7.50000000 0 0 0
343 1 1 0 73.97753862 8.74397335 7.50000000 0 0 0
344 1 1 0 74.70566407 9.96308503 7.50000000 0 0 0
345 1 1 0 76.12550839 9.94206587 7.50000000 0 0 0
346 1 1 0 76.81722767 8.70193501 7.50000000 0 0 0
347 1 1 0 78.23707210 8.68091584 7.50000000 0 0 0
348 1 1 0 78.96519755 9.90002753 7.50000000 0 0 0
349 1 1 0 80.38504187 9.87900836 7.50000000 0 0 0
350 1 1 0 81.07676115 8.63887750 7.50000000 0 0 0
351 1 1 0 82.49660558 8.61785833 7.50000000 0 0 0
352 1 1 0 0.18203133 12.29621269 7.50000000 0 0 0
353 1 1 0 1.60187575 12.27519352 7.50000000 0 0 0
354 1 1 0 2.33000120 13.49430521 7.50000000 0 0 0
355 1 1 0 3.74984552 13.47328604 7.50000000 0 0 0
356 1 1 0 4.44156481 12.23315518 7.50000000 0 0 0
357 1 1 0 5.86140923 12.21213602 7.50000000 0 0 0
358 1 1 0 6.58953468 13.43124770 7.50000000 0 0 0
359 1 1 0 8.00937900 13.41022853 7.50000000 0 0 0
360 1 1 0 8.70109828 12.17009768 7.50000000 0 0 0
361 1 1 0 10.12094271 12.14907851 7.50000000 0 0 0
362 1 1 0 10.84906816 13.36819019 7.50000000 0 0 0
363 1 1 0 12.26891248 13.34717102 7.50000000 0 0 0
364 1 1 0 12.96063176 12.10704017 7.50000000 0 0 0
365 1 1 0 14.38047619 12.08602100 7.50000000 0 0 0
366 1 1 0 15.10860163 13.30513268 7.50000000 0 0 0
367 1 1 0 16.52844596 13.28411352 7.50000000 0 0 0
368 1 1 0 17.22016524 12.04398266 7.50000000 0 0 0
369 1 1 0 18.64000967 12.02296349 7.50000000 0 0 0
370 1 1 0 19.36813511 13.24207517 7.50000000 0 0 0
371 1 1 0 20.78797944 13.22105601 7.50000000 0 0 0
372 1 1 0 21.47969872 11.98092515 7.50000000 0 0 0
373 1 1 0 22.89954315 11.95990598 7.50000000 0 0 0
374 1 1 0 23.62766859 13.17901767 7.50000000 0 0 0
375 1 1 0 25.04751292 13.15799850 7.50000000 0 0 0
376 1 1 0 25.73923220 11.91786764 7.50000000 0 0 0
377 1 1 0 27.15907662 11.89684848 7.50000000 0 0 0
378 1 1 0 27.88720207 13.11596016 7.50000000 0 0 0
379 1 1 0 29.30704640 13.09494099 7.50000000 0 0 0
380 1 1 0 29.99876568 11.85481014 7.50000000 0 0 0
381 1 1 0 31.41861010 11.83379097 7.50000000 0 0 0
382 1 1 0 32.14673555 13.05290265 7.50000000 0 0 0
383 1 1 0 33.56657987 13.03188348 7.50000000 0 0 0
384 1 1 0 34.25829915 11.79175263 7.50000000 0 0 0
385 1 1 0 35.67814358 11.77073346 7.50000000 0 0 0
386 1 1 0 36.40626903 12.98984514 7.50000000 0 0 0
387 1 1 0 37.82611335 12.96882598 7.50000000 0 0 0
388 1 1 0 38.51783263 11.72869512 7.50000000 0 0 0
389 1 1 0 39.93767706 11.70767595 7.50000000 0 0 0
390 1 1 0 40.66580251 12.92678763 7.50000000 0 0 0
391 1 1 0 42.08564683 12.90576847 7.50000000 0 0 0
392 1 1 0 42.77736611 11.66563761 7.50000000 0 0 0
393 1 1 0 44.19721054 11.64461844 7.50000000 0 0 0
394 1 1 0 44.92533598 12.86373013 7.50000000 0 0 0
395 1 1 0 46.34518031 12.84271096 7.50000000 0 0 0
396 1 1 0 47.03689959 11.60258010 7.50000000 0 0 0
397 1 1 0 48.45674402 11.58156094 7.50000000 0 0 0
398 1 1 0 49.18486946 12.80067262 7.50000000 0 0 0
399 1 1 0 50.60471379 12.77965345 7.50000000 0 0 0
400 1 1 0 51.29643307 11.53952260 7.50000000 0 0 0
401 1 1 0 52.71627750 11.51850343 7.50000000 0 0 0
402 1 1 0 53.44440294 12.73761511 7.50000000 0 0 0
403 1 1 0 54.86424727 12.71659594 7.50000000 0 0 0
404 1 1 0 55.55596655 11.47646509 7.50000000 0 0 0
405 1 1 0 56.97581097 11.45544592 7.50000000 0 0 0
406 1 1 0 57.70393642 12.67455760 7.50000000 0 0 0
407 1 1 0 59.12378075 12.65353844 7.50000000 0 0 0
408 1 1 0 59.81550003 11.41340758 7.50000000 0 0 0
409 1 1 0 61.23534445 11.39238841 7.50000000 0 0 0
410 1 1 0 61.96346990 12.61150010 7.50000000 0 0 0
411 1 1 0 63.38331422 12.59048093 7.50000000 0 0 0
412 1 1 0 64.07503350 11.35035007 7.50000000 0 0 0
413 1 1 0 65.49487793 11.32933090 7.50000000 0 0 0
414 1 1 0 66.22300338 12.54844259 7.50000000 0 0 0
415 1 1 0 67.64284770 12.52742342 7.50000000 0 0 0
416 1 1 0 68.33456698 11.28729256 7.50000000 0 0 0
417 1 1 0 69.75441141 11.26627340 7.50000000 0 0 0
418 1 1 0 70.48253685 12.48538508 7.50000000 0 0 0
419 1 1 0 71.90238118 12.46436591 7.50000000 0 0 0
420 1 1 0 72.59410046 11.22423506 7.50000000 0 0 0
421 1 1 0 74.01394489 11.20321589 7.50000000 0 0 0
422 1 1 0 74.74207033 12.42232757 7.50000000 0 0 0
423 1 1 0 76.16191466 12.40130840 7.50000000 0 0 0
424 1 1 0 76.85363394 11.16117755 7.50000000 0 0 0
425 1 1 0 78.27347837 11.14015838 7.50000000 0 0 0
426 1 1 0 79.00160381 12.35927006 7.50000000 0 0 0
427 1 1 0 80.42144814 12.33825090 7.50000000 0 0 0
428 1 1 0 81.11316742 11.09812004 7.50000000 0 0 0
429 1 1 0 82.53301184 11.07710087 7.50000000 0 0 0
430 1 1 0 0.21843759 14.75545523 7.50000000 0 0 0
431 1 1 0 1.63828202 14.73443606 7.50000000 0 0 0
432 1 1 0 2.36640746 15.95354774 7.50000000 0 0 0
433 1 1 0 3.78625179 15.93252858 7.50000000 0 0 0
434 1 1 0 4.47797107 14.69239772 7.50000000 0 0 0
435 1 1 0 5.89781550 14.67137855 7.50000000 0 0 0
436 1 1 0 6.62594094 15.89049024 7.50000000 0 0 0
437 1 1 0 8.04578527 15.86947107 7.50000000 0 0 0
438 1 1 0 8.73750455 14.62934021 7.50000000 0 0 0
439 1 1 0 10.15734898 14.60832105 7.50000000 0 0 0
440 1 1 0 10.88547442 15.82743273 7.50000000 0 0 0
441 1 1 0 12.30531875 15.80641356 7.50000000 0 0 0
442 1 1 0 12.99703803 14.56628271 7.50000000 0 0 0
443 1 1 0 14.41688245 14.54526354 7.50000000 0 0 0
444 1 1 0 15.14500790 15.76437522 7.50000000 0 0 0
445 1 1 0 16.56485223 15.74335605 7.50000000 0 0 0
446 1 1 0 17.25657151 14.50322520 7.50000000 0 0 0
447 1 1 0 18.67641593 14.48220603 7.50000000 0 0 0
448 1 1 0 19.40454138 15.70131771 7.50000000 0 0 0
449 1 1 0 20.82438570 15.68029855 7.50000000 0 0 0
450 1 1 0 21.51610498 14.44016769 7.50000000 0 0 0
451 1 1 0 22.93594941 14.41914852 7.50000000 0 0 0
452 1 1 0 23.66407486 15.63826020 7.50000000 0 0 0
453 1 1 0 25.08391918 15.61724104 7.50000000 0 0 0
454 1 1 0 25.77563846 14.37711018 7.50000000 0 0 0
455 1 1 0 27.19548289 14.35609101 7.50000000 0 0 0
456 1 1 0 27.92360833 15.57520270 7.50000000 0 0 0
457 1 1 0 29.34345266 15.55418353 7.50000000 0 0 0
458 1 1 0 30.03517194 14.31405267 7.50000000 0 0 0
459 1 1 0 31.45501637 14.29303351 7.50000000 0 0 0
460 1 1 0 32.18314181 15.51214519 7.50000000 0 0 0
461 1 1 0 33.60298614 15.49112602 7.50000000 0 0 0
462 1 1 0 34.29470542 14.25099517 7.50000000 0 0 0
463 1 1 0 35.71454985 14.22997600 7.50000000 0 0 0
464 1 1 0 36.44267529 15.44908768 7.50000000 0 0 0
465 1 1 0 37.86251962 15.42806851 7.50000000 0 0 0
466 1 1 0 38.55423890 14.18793766 7.50000000 0 0 0
467 1 1 0 39.97408332 14.16691849 7.50000000 0 0 0
468 1 1 0 40.70220877 15.38603017 7.50000000 0 0 0
469 1 1 0 42.12205310 15.36501101 7.50000000 0 0 0
470 1 1 0 42.81377238 14.12488015 7.50000000 0 0 0
471 1 1 0 44.23361680 14.10386098 7.50000000 0 0 0
472 1 1 0 44.96174225 15.32297267 7.50000000 0 0 0
473 1 1 0 46.38158658 15.30195350 7.50000000 0 0 0
474 1 1 0 47.07330586 14.06182264 7.50000000 0 0 0
475 1 1 0 48.49315028 14.04080347 7.50000000 0 0 0
476 1 1 0 49.22127573 15.25991516 7.50000000 0 0 0
477 1 1 0 50.64112005 15.23889599 7.50000000 0 0 0
478 1 1 0 51.33283933 13.99876513 7.50000000 0 0 0
479 1 1 0 52.75268376 13.97774597 7.50000000 0 0 0
480 1 1 0 53.48080921 15.19685765 7.50000000 0 0 0
481 1 1 0 54.90065353 15.17583848 7.50000000 0 0 0
482 1 1 0 55.59237281 13.93570763 7.50000000 0 0 0
483 1 1 0 57.01221724 13.91468846 7.50000000 0 0 0
484 1 1 0 57.74034268 15.13380014 7.50000000 0 0 0
485 1 1 0 59.16018701 15.11278097 7.50000000 0 0 0
486 1 1 0 59.85190629 13.87265012 7.50000000 0 0 0
487 1 1 0 61.27175072 13.85163095 7.50000000 0 0 0
488 1 1 0 61.99987616 15.07074263 7.50000000 0 0 0
489 1 1 0 63.41972049 15.04972347 7.50000000 0 0 0
490 1 1 0 64.11143977 13.80959261 7.50000000 0 0 0
491 1 1 0 65.53128420 13.78857344 7.50000000 0 0 0
492 1 1 0 66.25940964 15.00768513 7.50000000 0 0 0
493 1 1 0 67.67925397 14.98666596 7.50000000 0 0 0
494 1 1 0 68.37097325 13.74653510 7.50000000 0 0 0
495 1 1 0 69.79081767 13.72551593 7.50000000 0 0 0
496 1 1 0 70.51894312 14.94462762 7.50000000 0 0 0
497 1 1 0 71.93878745 14.92360845 7.50000000 0 0 0
498 1 1 0 72.63050673 13.68347759 7.50000000 0 0 0
499 1 1 0 74.05035115 13.66245843 7.50000000 0 0 0
500 1 1 0 74.77847660 14.88157011 7.50000000 0 0 0
501 1 1 0 76.19832092 14.86055094 7.50000000 0 0 0
502 1 1 0 76.89004021 13.62042009 7.50000000 0 0 0
503 1 1 0 78.30988463 13.59940092 7.50000000 0 0 0
504 1 1 0 79.03801008 14.81851260 7.50000000 0 0 0
505 1 1 0 80.45785440 14.79749343 7.50000000 0 0 0
506 1 1 0 81.14957368 13.55736258 7.50000000 0 0 0
507 1 1 0 82.56941811 13.53634341 7.50000000 0 0 0
508 1 1 0 0.25484386 17.21469777 7.50000000 0 0 0
509 1 1 0 1.67468828 17.19367860 7.50000000 0 0 0
510 1 1 0 2.40281373 18.41279028 7.50000000 0 0 0
511 1 1 0 3.82265806 18.39177112 7.50000000 0 0 0
512 1 1 0 4.51437734 17.15164026 7.50000000 0 0 0
513 1 1 0 5.93422176 17.13062109 7.50000000 0 0 0
514 1 1 0 6.66234721 18.34973278 7.50000000 0 0 0
515 1 1 0 8.08219153 18.32871361 7.50000000 0 0 0
516 1 1 0 8.77391081 17.08858275 7.50000000 0 0 0
517 1 1 0 10.19375524 17.06756358 7.50000000 0 0 0
518 1 1 0 10.92188069 18.28667527 7.50000000 0 0 0
519 1 1 0 12.34172501 18.26565610 7.50000000 0 0 0
520 1 1 0 13.03344429 17.02552524 7.50000000 0 0 0
521 1 1 0 14.45328872 17.00450608 7.50000000 0 0 0
522 1 1 0 15.18141416 18.22361776 7.50000000 0 0 0
523 1 1 0 16.60125849 18.20259859 7.50000000 0 0 0
524 1 1 0 17.29297777 16.96246774 7.50000000 0 0 0
525 1 1 0 18.71282220 16.94144857 7.50000000 0 0 0
526 1 1 0 19.44094764 18.16056025 7.50000000 0 0 0
527 1 1 0 20.86079197 18.13954108 7.50000000 0 0 0
528 1 1 0 21.55251125 16.89941023 7.50000000 0 0 0
529 1 1 0 22.97235568 16.87839106 7.50000000 0 0 0
530 1 1 0 23.70048112 18.09750274 7.50000000 0 0 0
531 1 1 0 25.12032545 18.07648358 7.50000000 0 0 0
532 1 1 0 25.81204473 16.83635272 7.50000000 0 0 0
533 1 1 0 27.23188915 16.81533355 7.50000000 0 0 0
534 1 1 0 27.96001460 18.03444524 7.50000000 0 0 0
535 1 1 0 29.37985893 18.01342607 7.50000000 0 0 0
536 1 1 0 30.07157821 16.77329521 7.50000000 0 0 0
537 1 1 0 31.49142263 16.75227604 7.50000000 0 0 0
538 1 1 0 32.21954808 17.97138773 7.50000000 0 0 0
539 1 1 0 33.63939240 17.95036856 7.50000000 0 0 0
540 1 1 0 34.33111169 16.71023770 7.50000000 0 0 0
541 1 1 0 35.75095611 16.68921854 7.50000000 0 0 0
542 1 1 0 36.47908156 17.90833022 7.50000000 0 0 0
543 1 1 0 37.89892588 17.88731105 7.50000000 0 0 0
544 1 1 0 38.59064516 16.64718020 7.50000000 0 0 0
545 1 1 0 40.01048959 16.62616103 7.50000000 0 0 0
546 1 1 0 40.73861504 17.84527271 7.50000000 0 0 0
547 1 1 0 42.15845936 17.82425354 7.50000000 0 0 0
548 1 1 0 42.85017864 16.58412269 7.50000000 0 0 0
549 1 1 0 44.27002307 16.56310352 7.50000000 0 0 0
550 1 1 0 44.99814851 17.78221520 7.50000000 0 0 0
551 1 1 0 46.41799284 17.76119604 7.50000000 0 0 0
552 1 1 0 47.10971212 16.52106518 7.50000000 0 0 0
553 1 1 0 48.52955655 16.50004601 7.50000000 0 0 0
554 1 1 0 49.25768199 17.71915770 7.50000000 0 0 0
555 1 1 0 50.67752632 17.69813853 7.50000000 0 0 0
556 1 1 0 51.36924560 16.45800767 7.50000000 0 0 0
557 1 1 0 52.78909003 16.43698850 7.50000000 0 0 0
558 1 1 0 53.51721547 17.65610019 7.50000000 0 0 0
559 1 1 0 54.93705980 17.63508102 7.50000000 0 0 0
560 1 1 0 55.62877908 16.39495016 7.50000000 0 0 0
561 1 1 0 57.04862350 16.37393100 7.50000000 0 0 0
562 1 1 0 57.77674895 17.59304268 7.50000000 0 0 0
563 1 1 0 59.19659328 17.57202351 7.50000000 0 0 0
564 1 1 0 59.88831256 16.33189266 7.50000000 0 0 0
565 1 1 0 61.30815698 16.31087349 7.50000000 0 0 0
566 1 1 0 62.03628243 17.52998517 7.50000000 0 0 0
567 1 1 0 63.45612675 17.50896600 7.50000000 0 0 0
568 1 1 0 64.14784604 16.26883515 7.50000000 0 0 0
569 1 1 0 65.56769046 16.24781598 7.50000000 0 0 0
570 1 1 0 66.29581591 17.46692766 7.50000000 0 0 0
571 1 1 0 67.71566023 17.44590850 7.50000000 0 0 0
572 1 1 0 68.40737951 16.20577764 7.50000000 0 0 0
573 1 1 0 69.82722394 16.18475847 7.50000000 0 0 0
574 1 1 0 70.55534939 17.40387016 7.50000000 0 0 0
575 1 1 0 71.97519371 17.38285099 7.50000000 0 0 0
576 1 1 0 72.66691299 16.14272013 7.50000000 0 0 0
577 1 1 0 74.08675742 16.12170096 7.50000000 0 0 0
578 1 1 0 74.81488286 17.34081265 7.50000000 0 0 0
579 1 1 0 76.23472719 17.31979348 7.50000000 0 0 0
580 1 1 0 76.92644647 16.07966262 7.50000000 0 0 0
581 1 1 0 78.34629090 16.05864346 7.50000000 0 0 0
582 1 1 0 79.07441634 17.27775514 7.50000000 0 0 0
583 1 1 0 80.49426067 17.25673597 7.50000000 0 0 0
584 1 1 0 81.18597995 16.01660512 7.50000000 0 0 0
585 1 1 0 82.60582438 15.99558595 7.50000000 0 0 0
586 1 1 0 0.29125012 19.67394031 7.50000000 0 0 0
587 1 1 0 1.71109455 19.65292114 7.50000000 0 0 0
588 1 1 0 2.43921999 20.87203282 7.50000000 0 0 0
589 1 1 0 3.85906432 20.85101365 7.50000000 0 0 0
590 1 1 0 4.55078360 19.61088280 7.50000000 0 0 0
591 1 1 0 5.97062803 19.58986363 7.50000000 0 0 0
592 1 1 0 6.69875347 20.80897531 7.50000000 0 0 0
593 1 1 0 8.11859780 20.78795615 7.50000000 0 0 0
594 1 1 0 8.81031708 19.54782529 7.50000000 0 0 0
595 1 1 0 10.23016151 19.52680612 7.50000000 0 0 0