ITEM: TIMESTEP
149
ITEM: NUMBER OF ATOMS
26936
ITEM: BOX BOUNDS pp pp pp
0.0000000000000000e+00 1.4251150300000000e+02
0.0000000000000000e+00 2.4683716400000000e+02
0.0000000000000000e+00 1.5000000000000000e+01
ITEM: ATOMS id type x y z c_csym c_2[1] c_2[2] c_2[3] c_2[4] c_2[5] c_2[6] c_3 
229 1 0.846374 8.58301 2.84961 6.02109 -166374 -149743 -573.166 -14524.9 9951.82 -1830.38 -7.41141 
230 1 0.118554 7.36629 2.8473 6.02577 -153593 -162908 1110.39 -10577.4 11962.4 -610.894 -7.41147 
231 1 0.808029 6.12732 2.84534 6.02403 -164375 -152166 56.0485 -7929.99 7949.21 -1683.54 -7.41133 
232 1 0.0796904 4.91087 2.84358 6.02735 -155012 -161498 626.519 -4939.12 8045.14 -413.193 -7.41132 
233 1 0.768755 3.6717 2.84227 6.02646 -162030 -154510 338.758 -3201.56 5212.76 -1492.73 -7.41126 
234 1 0.0400535 2.45544 2.8412 6.02901 -156672 -159984 433.779 -1222.46 3980.96 -202.895 -7.41123 
235 1 0.728877 1.21616 2.84065 6.02925 -159561 -157128 404.301 -686.229 1834.05 -1253.14 -7.41122 
236 1 1.89111e-06 -4.6551e-06 2.84038 6.03064 -158454 -158432 401.842 76.0085 -0.551542 0.159322 -7.4112 
431 1 2.26404 8.56002 2.85007 6.02263 -160138 -156299 1280.51 -11640.9 13507.4 -2623.6 -7.41157 
432 1 2.95353 7.32101 2.84823 6.02267 -171474 -144891 90.2714 -10752.1 8908.81 -5595.02 -7.41142 
433 1 2.22569 6.10427 2.84584 6.02457 -159613 -156907 674.706 -5060.75 9726.01 -2888.65 -7.41139 
434 1 2.91477 4.86508 2.84459 6.0249 -167355 -149198 435.49 -5144.67 6584.08 -5313.35 -7.41134 
435 1 2.18641 3.64862 2.84279 6.02632 -159132 -157575 415.004 -284.108 5711.54 -3095.13 -7.41128 
436 1 2.87525 2.40933 2.84226 6.02757 -162915 -153726 493.987 -1427.78 3570.55 -4918.75 -7.41127 
437 1 2.14654 1.19306 2.84119 6.02795 -158534 -158047 382.48 2208.31 1664.8 -3246.19 -7.41123 
632 1 5.09835 8.51538 2.85225 6.02099 -179927 -136338 491.824 -12366.2 9718.07 -9372.74 -7.41157 
633 1 4.37115 7.29824 2.84939 6.0203 -165843 -150642 419.661 -4050.36 10965.6 -4807.78 -7.41149 
634 1 5.06027 6.05904 2.84824 6.02343 -174229 -142307 830.829 -5733.78 7847.05 -9047 -7.41148 
635 1 4.33241 4.84227 2.84584 6.02308 -163414 -153191 172.473 1789.84 7079.69 -5448.59 -7.41136 
636 1 5.02128 3.60298 2.84535 6.02589 -168029 -148578 813.161 -990.113 5274.69 -8561.62 -7.41139 
637 1 4.2929 2.3865 2.84357 6.02527 -160840 -155710 218.674 5510.77 3073.07 -5993.19 -7.41129 
638 1 4.98172 1.14721 2.84383 6.02638 -161455 -155110 572.841 1385.07 2081.48 -7896.53 -7.41132 
833 1 6.51595 8.49306 2.85393 6.01565 -173300 -142834 -254.484 -2042.33 11756.6 -6133.6 -7.41158 
834 1 7.20512 7.25386 2.85291 6.02037 -182426 -134198 1628.65 -5163.54 8958.53 -12532.6 -7.41167 
835 1 6.47788 6.03669 2.85006 6.01907 -169189 -147122 -424.465 4861.82 8042.69 -7182.55 -7.41144 
836 1 7.16681 4.79741 2.84962 6.02368 -174537 -141931 1479.06 607.736 6869 -11997.1 -7.41157 
837 1 6.43891 3.58061 2.84728 6.02219 -164872 -151477 -232.24 9755.57 4150.59 -8118.79 -7.41137 
838 1 7.12777 2.34134 2.84753 6.0247 -166336 -150027 1026.07 4199.11 4123.48 -11247.1 -7.41147 
839 1 6.39937 1.12483 2.84583 6.02382 -160341 -156002 191.917 12239.4 274.968 -8919.65 -7.41135 
1034 1 9.34919 8.44979 2.85828 6.01612 -191286 -125248 2897.37 -3509.95 9905.09 -15672.1 -7.41193 
1035 1 8.62269 7.23215 2.85515 6.01479 -176307 -139717 -1469.79 8798.13 8609.63 -8302.54 -7.41153 
1036 1 9.3117 5.99289 2.85478 6.02008 -182399 -134287 2576.67 3236.81 8308.55 -15104 -7.4118 
1037 1 8.58441 4.7757 2.85203 6.01897 -170271 -145809 -1083.56 14830.2 4873.66 -9588.67 -7.41145 
1038 1 9.27333 3.53645 2.85227 6.02312 -172884 -143769 1870.84 7974.09 6052.14 -14306.5 -7.41168 
1039 1 8.5454 2.31963 2.85006 6.02178 -164151 -152027 -386.208 18553.7 1090.12 -10732.8 -7.41144 
1040 1 9.23443 1.08049 2.85095 6.02009 -162818 -153537 925.633 10340.4 3200.1 -13259.9 -7.41157 
13499 2 0.571266 8.60535 6.55038 6.02365 -150660 -165964 1479.54 14591.9 13823.9 50.3255 -7.41157 
13500 2 0.609613 6.15005 6.55465 6.02586 -152516 -163988 812.724 7948.27 10052.5 -287.408 -7.41139 
13501 2 0.648902 3.69471 6.55773 6.02757 -154704 -161847 493.382 3185.92 6045.14 -633.175 -7.41127 
13502 2 0.688785 1.23931 6.55935 6.0293 -157084 -159547 404.455 684.332 2000.85 -961.665 -7.41121 
13503 2 -2.69119e-06 3.41995e-06 6.55962 6.03067 -158330 -158355 402.204 -23.2902 0.337572 -0.62826 -7.41121 
13697 2 1.98898 8.62836 6.54994 6.01896 -156849 -159434 -423.708 12100.7 10240.6 -3373.14 -7.41144 
13698 2 2.71713 7.41185 6.55176 6.02332 -145323 -171219 831.083 11011.4 11760 -2273.2 -7.41147 
13699 2 2.02731 6.17312 6.55416 6.02305 -157207 -159214 172.098 5321.09 8257.99 -3405.92 -7.41136 
13700 2 2.75588 4.95681 6.55541 6.02487 -149303 -167177 435.534 5258.27 7895.26 -3046.13 -7.41133 
13701 2 2.06658 3.7178 6.55721 6.02634 -157608 -158873 415.206 452.372 5536.5 -3398.6 -7.41128 
13702 2 2.79541 2.50162 6.55774 6.02652 -153553 -162893 339.589 1526.55 3899.71 -3767.63 -7.41126 
13703 2 2.10645 1.26241 6.55881 6.02902 -158044 -158515 434.61 -2160.43 2166.51 -3346.78 -7.41123 
13704 2 2.83533 0.0462445 6.55854 6.02789 -158195 -158257 409.404 253.49 -3.44485 -4400.36 -7.41124 
13898 2 4.82535 8.67299 6.54775 6.02093 -136561 -179803 492.006 12784.8 12976.4 -3729.95 -7.41157 
13899 2 4.13487 7.43466 6.55061 6.02021 -150898 -165521 419.682 4575.96 9645.3 -7092.2 -7.41149 
13900 2 4.8634 6.21834 6.55177 6.02257 -142138 -174209 90.1534 6068.64 9300.62 -4917.85 -7.41142 
13901 2 4.17359 4.97964 6.55416 6.02454 -153212 -163248 674.956 -1494.94 7363.54 -6977.94 -7.41139 
13902 2 4.90239 3.76344 6.55466 6.02397 -148275 -168082 56.7986 1193.12 5432.96 -6042.51 -7.41133 
13903 2 4.21309 2.52445 6.55643 6.02737 -155557 -160903 627.392 -5353.75 4379.07 -6760.14 -7.41132 
13904 2 4.94196 1.30827 6.55617 6.02485 -154765 -161784 267.125 -1407.46 1562.79 -7049.28 -7.4113 
13905 2 4.253 0.0690826 6.55721 6.02626 -158207 -158441 421.536 -6771.1 828.233 -6432.75 -7.41128 
14099 2 6.24314 8.69536 6.54607 6.01772 -143103 -173372 1067.11 2886.2 10821.6 -10572.6 -7.41167 
14100 2 6.97162 7.47902 6.54712 6.0208 -133658 -182462 -658.231 5825.96 10256.5 -6207.33 -7.41151 
14101 2 6.28116 6.24072 6.54993 6.0226 -147080 -169415 1279.9 -4233.83 9025.8 -10385.8 -7.41157 
14102 2 7.00991 5.02449 6.55039 6.021 -141295 -174919 -573.649 -119.063 6559.79 -7702.95 -7.41141 
14103 2 6.32011 3.78582 6.5527 6.02575 -151374 -165176 1110.52 -9391.95 6510.27 -10054.1 -7.41147 
14104 2 7.04894 2.5696 6.55248 6.0215 -149527 -166844 -165.26 -3975.51 2793.74 -9076.05 -7.41138 
14105 2 6.35964 1.33064 6.55416 6.02469 -155784 -160609 694.363 -12215.1 3353.35 -9566.12 -7.41139 
14106 2 7.08836 0.114325 6.55319 6.02255 -157916 -158430 421.795 -5436.65 -839.426 -10269.6 -7.4114 
14300 2 9.08063 8.73863 6.54179 6.01838 -124232 -191529 -1885.41 4633.88 10806.9 -6950.42 -7.41158 
14301 2 8.38942 7.5008 6.54484 6.0209 -139721 -176870 2316.29 -7680.06 10461.4 -13510.3 -7.4118 
14302 2 9.1181 6.28451 6.54526 6.01787 -133097 -182730 -1646.12 -2322.75 7293.37 -8753.04 -7.4115 
14303 2 8.42766 5.04624 6.54794 6.02259 -145532 -170953 1986.05 -14029 8460.93 -13095.1 -7.41168 
14304 2 9.15644 3.82998 6.54775 6.01746 -142678 -173351 -1001.1 -7407.04 3668.52 -10446.2 -7.41147 
14305 2 8.46665 2.59133 6.54992 6.02262 -151713 -164781 1318.65 -18207.4 5780.52 -12495.7 -7.41157 
14306 2 9.19534 1.37498 6.54905 6.01819 -152728 -163558 -89.7497 -10196.2 104.027 -11965 -7.4115 
14307 2 8.50603 0.136045 6.55061 6.02238 -157956 -158436 470.342 -19778 2533.73 -11706.6 -7.41148 
1235 1 10.7667 8.42884 2.86078 6.01052 -184018 -131445 -3015.8 13160.7 8833.32 -8883.24 -7.41159 
1236 1 11.4558 7.18963 2.86048 6.01613 -190775 -125875 4155.11 6622.65 9580.3 -17825.4 -7.41209 
1237 1 10.7293 5.97196 2.85748 6.01506 -176906 -138859 -2408.82 20421.7 5264.54 -10451.7 -7.41153 
1238 1 11.4183 4.73276 2.8577 6.02007 -180231 -136422 3175.4 12550.5 7823.93 -16996.6 -7.41194 
1239 1 10.6909 3.51554 2.85513 6.0191 -169428 -146504 -1408.19 25411.7 1608.06 -11889.1 -7.41152 
1240 1 11.38 2.27645 2.85594 6.01796 -169034 -147398 1866.19 16075.8 5443.83 -15917.2 -7.41179 
1241 1 10.6521 1.05958 2.85392 6.02046 -161667 -154468 -161.22 27853.6 -1957.32 -13162 -7.41157 
1436 1 13.5992 8.38775 2.86646 6.01205 -199488 -117346 6227.78 10513.7 10689 -20152.1 -7.41242 
1437 1 12.8734 7.16958 2.86333 6.01117 -184071 -131214 -4240.15 26189.9 5379.39 -10808.5 -7.41158 
1438 1 13.5625 5.93045 2.86354 6.01638 -188261 -128622 4970.61 17507.2 9422.12 -19295.8 -7.41225 
1439 1 12.8359 4.71276 2.86074 6.01636 -175547 -139963 -2928.72 32387.7 1859.9 -12471.1 -7.41159 
1440 1 13.5251 3.47373 2.86146 6.01618 -176293 -140251 3295.1 22307.3 7525.38 -18199.2 -7.41206 
1441 1 12.7977 2.25647 2.85912 6.01874 -166642 -149030 -1279.51 36165.2 -1620.05 -13987.7 -7.41165 
1442 1 13.4871 1.01761 2.86039 6.01265 -163790 -152381 1362.72 24614.8 5050.03 -16854.6 -7.41189 
1637 1 15.0167 8.36865 2.86931 6.00745 -191507 -123023 -6569.98 31890.1 5286.13 -10777.6 -7.41161 
1638 1 15.706 7.1296 2.86952 6.01261 -196610 -120478 7255.4 22673.5 10838.9 -21213.7 -7.41259 
1639 1 14.9801 5.91142 2.86661 6.01278 -182257 -132746 -4959.76 39300.8 1899.39 -12595.3 -7.41163 
1640 1 15.6694 4.67246 2.86725 6.01327 -184117 -132756 5229 28705.6 9420.66 -20107.5 -7.41238 
1641 1 14.9427 3.45475 2.86471 6.01725 -172620 -142805 -2919.83 44415.2 -1485.76 -14289.2 -7.41171 
1642 1 15.6322 2.21596 2.86582 6.01051 -170823 -145516 2851.51 32335.5 7395.91 -18771 -7.41217 
1643 1 14.9047 0.99867 2.86375 6.01492 -162639 -153067 -615.765 46828.7 -4706.72 -15833 -7.41184 
1838 1 17.8487 8.33029 2.87545 6.00889 -204637 -112497 9996.67 27976.4 12074.4 -22769.2 -7.41296 
1839 1 17.1235 7.11159 2.8725 6.00939 -189322 -125199 -7478.2 46019.2 1792.73 -12379 -7.41164 
1840 1 17.8131 5.87272 2.87306 6.01045 -191898 -125113 7651.39 35199 11117.8 -21659 -7.41273 
1841 1 17.087 4.65454 2.87042 6.01512 -179089 -135915 -5077.04 52383.5 -1499.42 -14187.7 -7.41174 
1842 1 17.7767 3.41583 2.87139 6.00862 -178538 -138183 4862.41 40096.4 9542.56 -20339.7 -7.41248 
1843 1 17.0498 2.1981 2.86915 6.01306 -168331 -146976 -2314.3 56188 -4677.37 -15870.6 -7.41189 
1844 1 17.7398 0.959626 2.87056 6.00482 -164560 -151681 1806.19 42403 7394.51 -18814.5 -7.41224 
14501 2 10.4985 8.75967 6.5392 6.01826 -131452 -185075 3834.79 -11531.7 11647.5 -16298.4 -7.41208 
14502 2 11.2271 7.54332 6.53959 6.01416 -124223 -191179 -3213.64 -5221.91 7684.01 -9265.11 -7.41156 
14503 2 10.5359 6.3055 6.54247 6.01894 -138604 -177967 3320.69 -19076.7 10173.2 -15811.3 -7.41194 
14504 2 11.2646 5.08917 6.54232 6.01338 -134785 -180826 -2314.61 -11405.8 4210.88 -11208.4 -7.41154 
14505 2 10.5742 3.85092 6.54482 6.01873 -146097 -170344 2380.35 -24547 8013.93 -15129.3 -7.4118 
14506 2 11.3028 2.63452 6.54406 6.0137 -146095 -169817 -1058.2 -15501.2 745.333 -12998.9 -7.41158 
14507 2 10.613 1.3959 6.54606 6.01973 -153865 -162320 1161.59 -27594.1 5228.8 -14245.4 -7.41167 
14508 2 11.3414 0.17931 6.54466 6.01528 -157596 -158589 394.238 -17185.2 -2534.73 -14580.4 -7.41167 
14702 2 13.3369 8.80077 6.53366 6.01042 -114833 -199929 -5288.39 -8527.13 7798.13 -9350.51 -7.4116 
14703 2 12.6449 7.56345 6.5366 6.01505 -131024 -185708 5145.9 -24240 11629.8 -18182.8 -7.41225 
14704 2 13.3735 6.34704 6.53649 6.00926 -126298 -188740 -4136.69 -15809.5 4473.67 -11465.5 -7.4116 
14705 2 12.6824 5.10923 6.53916 6.01454 -139560 -176856 3928.25 -30914.7 10002.7 -17431.9 -7.41208 
14706 2 13.411 3.89275 6.53853 6.00919 -138527 -176940 -2536.6 -21172.7 1118.03 -13456.3 -7.41165 
14707 2 12.7206 2.65452 6.54081 6.01523 -148566 -167611 2335.18 -35430.7 7722.3 -16480.3 -7.41192 
14708 2 13.4489 1.43787 6.5396 6.01032 -151099 -164674 -643.92 -24234 -2114.71 -15266.7 -7.41175 
14709 2 12.7591 0.199292 6.54141 6.01716 -157640 -158318 536.955 -37190.8 4876.75 -15329.5 -7.41177 
14903 2 14.7548 8.81998 6.53057 6.01109 -122870 -193605 7459.31 -29340.8 12834.5 -20215.2 -7.4126 
14904 2 15.4832 7.60345 6.53051 6.0053 -117422 -196790 -6459.04 -20539.1 4521.13 -11339.3 -7.41162 
14905 2 14.7914 6.36613 6.53322 6.01024 -132466 -183982 5975.85 -37333.9 11727.6 -19403.7 -7.41241 
14906 2 15.5198 5.14955 6.53271 6.00484 -130318 -184405 -4535.62 -27078.3 1275.4 -13456.6 -7.41169 
14907 2 14.8287 3.91176 6.53515 6.01055 -142367 -173823 4023.36 -43102.8 9963.83 -18400.1 -7.41221 
14908 2 15.5571 2.69504 6.53413 6.00547 -143718 -171559 -2222.57 -31472.4 -1899.33 -15426.1 -7.41181 
14909 2 14.8667 1.45684 6.53619 6.01212 -152508 -163476 1763.88 -46331.7 7586.27 -17207.5 -7.41201 
14910 2 15.5946 0.239873 6.53464 6.00736 -157462 -158535 303.666 -33239.6 -4843.17 -17207 -7.41198 
15104 2 17.5938 8.85835 6.52458 6.00163 -108472 -204789 -9242.55 -25145.1 4410.32 -10945.5 -7.41162 
15105 2 16.9011 7.62154 6.52723 6.00599 -124920 -191397 8505.1 -43341.9 13185.8 -21057.6 -7.41277 
15106 2 17.6295 6.40484 6.52684 6.00071 -121773 -192020 -7029.35 -32943 1273.93 -13122.7 -7.4117 
15107 2 16.9377 5.16752 6.52931 6.0059 -135642 -180546 6223.09 -50423.8 11930.6 -20014 -7.41254 
15108 2 17.6659 3.9507 6.52849 6.00089 -135738 -178815 -4333.49 -38643.1 -1836.5 -15183.3 -7.41184 
15109 2 16.9748 2.71292 6.53069 6.00702 -146557 -169475 3535 -55127.5 10037.2 -18795.7 -7.4123 
15110 2 17.7027 1.49589 6.52939 6.00222 -150161 -165331 -1324.88 -41854.4 -4777.93 -17089.9 -7.41202 
15111 2 17.0123 0.257725 6.53122 6.00944 -157598 -158144 623.313 -57122.8 7576.75 -17411 -7.41208 
2039 1 19.2662 8.31332 2.87826 6.00616 -196073 -117610 -10433.2 52370.9 1596.02 -11921.4 -7.41163 
2040 1 19.9559 7.07456 2.87876 6.00781 -199821 -117666 10516.4 41538.2 12609.3 -22874.7 -7.4131 
2041 1 19.2306 5.85588 2.87607 6.01197 -185530 -128917 -7714.56 59940.7 -1604.53 -13791.7 -7.41174 
2042 1 19.9204 4.61727 2.87692 6.00554 -186180 -130868 7363.89 47734.6 11475.7 -21578.6 -7.41283 
2043 1 19.1942 3.39908 2.87458 6.01149 -174679 -140393 -4539.03 65094.6 -4737 -15557.4 -7.41191 
2044 1 19.8843 2.16068 2.8758 6.0027 -171919 -144505 3849 51397 9739 -20099.6 -7.41255 
2045 1 19.1574 0.942923 2.87387 6.00714 -163360 -152127 -1089.21 67450.2 -7649.42 -17205 -7.41212 
2240 1 22.098 8.278 2.88422 6.00441 -207326 -110417 13753.4 47677.1 13884.6 -23766.5 -7.41349 
2241 1 21.3734 7.05881 2.88154 6.00903 -192115 -121708 -10771.5 66997.5 -1757.33 -13188.9 -7.41171 
2242 1 22.0635 5.82032 2.88227 6.0027 -193745 -123590 10297.2 55075.9 13179 -22503.7 -7.41319 
2243 1 21.338 4.60164 2.87988 6.01013 -180904 -133538 -7242.14 73434 -4839.12 -14990.6 -7.41189 
2244 1 22.0282 3.36334 2.88094 6.00093 -179502 -137341 6386.53 59994.7 11854.5 -21077.7 -7.41288 
2245 1 21.3019 2.14513 2.87892 6.00522 -169366 -145719 -3340.72 77119.6 -7756.15 -16694 -7.41212 
2246 1 21.9926 0.9071 2.88032 5.99713 -164783 -151228 2207.12 62261.7 9957.67 -19497.7 -7.41257 
2441 1 23.5155 8.26331 2.88672 6.00607 -198353 -114697 -14167.3 73438.8 -1920.69 -12443.3 -7.41165 
2442 1 24.2058 7.02496 2.88734 6.00014 -201127 -116825 13585.1 61928.4 14642.5 -23124.1 -7.41357 
2443 1 23.481 5.80579 2.88496 6.00765 -187161 -126903 -10352 81032.7 -4945.16 -14245.8 -7.41184 
2444 1 24.1715 4.56761 2.88586 5.99794 -186990 -130270 9350.1 68270 13723.3 -21758.2 -7.41323 
2445 1 23.4458 3.34893 2.88381 6.00362 -175489 -139006 -6070.93 86139.1 -7857.07 -15963.9 -7.41209 
2446 1 24.1366 2.11099 2.88501 5.99519 -172329 -144044 4754.06 71818 12202.1 -20257.9 -7.41288 
2447 1 23.4102 0.892751 2.88333 5.99911 -163620 -151337 -1516.03 88329 -10515 -17594.6 -7.41238 
2642 1 26.3474 8.23118 2.8921 5.99789 -207781 -110238 17136.8 68382.3 15858.3 -23448 -7.41395 
2643 1 25.6233 7.01151 2.88974 6.00544 -193169 -120183 -13782 88004 -5031.26 -13377.5 -7.41177 
2644 1 26.314 5.77347 2.8905 5.9952 -194029 -123563 12654.9 75921.5 15334.8 -22149.9 -7.41359 
2645 1 25.589 4.55432 2.88843 6.00233 -181641 -132478 -9200.4 94407.2 -7923.1 -15079.2 -7.41202 
2646 1 26.2799 3.31649 2.88946 5.99356 -179826 -137136 7722.95 80870.5 14191.6 -20732.5 -7.41322 
2647 1 25.5542 2.0978 2.88774 5.99727 -169801 -144833 -4250.15 97938.8 -10621.1 -16705.5 -7.41233 
2648 1 26.2455 0.860228 2.88904 5.98978 -165068 -150810 2531.76 82972 12481.5 -19206.7 -7.41284 
2843 1 27.7648 8.21877 2.89417 6.00332 -198596 -113929 -17438.3 94074 -5082.26 -12429 -7.41167 
2844 1 28.4558 6.98089 2.89481 5.99292 -200821 -117392 16206 82789.1 16677 -22263 -7.41396 
2845 1 27.7315 5.76127 2.89275 6.00035 -187337 -126128 -12637.1 101630 -7937.99 -14090.3 -7.41193 
2846 1 28.4226 4.52356 2.89362 5.99074 -186901 -130423 11023.8 89122.6 15909.8 -20932.4 -7.41356 
2847 1 27.6975 3.30442 2.89188 5.99578 -175794 -138261 -7378.91 106631 -10657.5 -15684.8 -7.41224 
2848 1 28.3889 2.06694 2.89299 5.98811 -172294 -143776 5493.79 92616.9 14547.4 -19508.4 -7.41316 
2849 1 27.6631 0.848223 2.89162 5.99128 -163953 -150681 -1855.6 108702 -13107.1 -17213.3 -7.4126 
15305 2 19.0118 8.87541 6.52134 6.00191 -117323 -198862 11466.2 -48890.3 14384.4 -22404.8 -7.41315 
15306 2 19.7399 7.65857 6.52108 5.99692 -113146 -199471 -9965.54 -38560.7 1161.64 -12560.4 -7.41168 
15307 2 19.0473 6.42174 6.52349 6.00138 -128490 -187441 8898.97 -57265.1 13616.3 -21334.7 -7.4129 
15308 2 19.7754 5.2048 6.52286 5.99657 -127516 -185921 -6936.57 -45526 -1877.71 -14654.1 -7.41183 
15309 2 19.0837 3.96747 6.52509 6.00202 -139933 -175609 5829.97 -63350.1 12204.4 -20103.9 -7.41263 
15310 2 19.8115 2.75035 6.52405 5.99742 -142447 -172071 -3498.9 -50232.2 -4804.67 -16623.7 -7.41203 
15311 2 19.1205 1.5126 6.526 6.00394 -151707 -163836 2435.08 -66773 10183.8 -18724.1 -7.41236 
15312 2 19.8479 0.295194 6.52452 5.99949 -157367 -158321 161.57 -52213.9 -7473.73 -18444.7 -7.41228 
15506 2 21.8513 8.91074 6.51553 5.99352 -104931 -206389 -13271.5 -43804 975.98 -11848.8 -7.41163 
15507 2 21.1579 7.6744 6.51781 5.9971 -121276 -194294 11988.2 -63366.2 15020.8 -22370.3 -7.41328 
15508 2 21.8858 6.45732 6.51737 5.9927 -119512 -193015 -9967.98 -52050.4 -1983.13 -13929.5 -7.4118 
15509 2 21.1933 5.22047 6.51955 5.99726 -133285 -182217 8597.98 -70842.6 14077.3 -21140.4 -7.41299 
15510 2 21.921 4.00322 6.51876 5.993 -134562 -179120 -6165.59 -58143.8 -4881.97 -15911 -7.41201 
15511 2 21.2293 2.76591 6.52075 5.99866 -145598 -170055 4783.13 -75760.3 12502.5 -19776.6 -7.41269 
15512 2 21.9567 1.54843 6.51956 5.99446 -149774 -165251 -2043.11 -61600.6 -7587.74 -17772 -7.41227 
15513 2 21.2656 0.310723 6.52128 6.00134 -157641 -157825 735.688 -77970.5 10357.7 -18292.2 -7.41239 
15707 2 23.2692 8.92551 6.5124 5.99319 -114459 -200990 15411 -68894.8 16148.2 -23120.8 -7.41368 
15708 2 23.9969 7.70827 6.51212 5.98921 -111547 -199595 -13346.3 -58091.2 -2125.95 -13077.7 -7.41173 
15709 2 23.3037 6.47189 6.51419 5.99284 -126733 -188687 11765.5 -77546.1 15651.7 -21908.1 -7.41337 
15710 2 24.0313 5.25451 6.51363 5.98898 -126602 -185882 -9250.61 -65445.9 -4979.98 -15030.9 -7.41196 
15711 2 23.3388 4.01765 6.51559 5.99368 -139134 -176228 7604.39 -83934.9 14516.7 -20573.2 -7.41303 
15712 2 24.0662 2.80007 6.51468 5.98984 -142047 -171849 -4742.45 -70387.6 -7701.31 -16886.7 -7.41223 
15713 2 23.3744 1.56278 6.51644 5.99577 -151479 -163665 3110.77 -87587.2 12776.1 -19132.4 -7.41269 
15714 2 24.1014 0.344902 6.51516 5.99194 -157286 -157847 -9.81735 -72575.9 -10155 -18631.2 -7.41254 
15908 2 26.1089 8.95767 6.5072 5.98621 -104055 -205604 -16980.1 -63597 -2283.4 -12147.5 -7.41164 
15909 2 25.4149 7.72176 6.50911 5.9888 -120112 -194864 15244 -83484.6 16927.6 -22406.2 -7.41375 
15910 2 26.1423 6.50423 6.50876 5.98542 -118889 -192102 -12665.1 -72134.4 -5076.78 -14043 -7.41188 
15911 2 25.4491 5.26783 6.51062 5.98908 -132592 -182284 10814.5 -91122.4 16220.3 -21113.9 -7.41339 
15912 2 26.1763 4.05012 6.50999 5.98573 -134195 -178307 -7853.83 -78446.6 -7791.91 -15857.4 -7.41216 
15913 2 25.4839 2.81327 6.51172 5.99057 -145292 -169719 5959.04 -96225.3 14887.2 -19726.3 -7.41303 
15914 2 26.2108 1.5953 6.51075 5.9872 -149727 -164572 -2725.15 -82128.2 -10305.4 -17580.8 -7.41249 
15915 2 25.519 0.358065 6.5123 5.99333 -157645 -157227 870.797 -98573.4 12986.4 -18255.1 -7.41267 
16109 2 27.5269 8.97014 6.50436 5.9852 -113981 -200570 18937.5 -88524.2 17908.6 -22636.8 -7.41414 
16110 2 28.2541 7.75243 6.50421 5.98242 -111742 -197842 -16315 -78120.2 -5157.96 -12989.4 -7.41177 
16111 2 27.5602 6.51647 6.50593 5.98492 -126382 -188229 14318.6 -97375 17611.2 -21397.6 -7.41377 
16112 2 28.2873 5.29862 6.50554 5.98214 -126919 -184531 -11282.2 -85728.4 -7843.17 -14737.1 -7.41206 
16113 2 27.5941 4.06221 6.5072 5.98582 -138966 -175728 9189.47 -103906 16681.6 -20073.2 -7.41338 
16114 2 28.321 2.84414 6.50653 5.98296 -142228 -170955 -5847.2 -90852 -10389.7 -16409.2 -7.41239 
16115 2 27.6285 1.60732 6.50806 5.98794 -151581 -163200 3733.61 -107712 15154.1 -18676.1 -7.41298 
16116 2 28.3549 0.388959 6.50704 5.98494 -157414 -157391 -192.435 -93179.1 -12668.9 -17999.7 -7.41276 
3044 1 30.5969 8.1898 2.89878 5.99097 -206733 -111670 19910.9 88860.2 17755.8 -22114.3 -7.41433 
3045 1 29.8733 6.96971 2.89673 5.9983 -192821 -120116 -16284.6 107921 -7894.16 -13035.1 -7.41182 
3046 1 30.5647 5.73215 2.89746 5.98834 -193401 -124331 14561.4 96455.9 17352.5 -20872 -7.41392 
3047 1 29.8402 4.51255 2.89572 5.99466 -181573 -132166 -10806 114279 -10612.3 -14577.1 -7.41214 
3048 1 30.5318 3.2752 2.89665 5.98671 -179468 -137356 8782.7 101395 16338.8 -19549.1 -7.41349 
3049 1 29.8065 2.05605 2.89525 5.98964 -169786 -144308 -4974.15 117680 -13122.8 -16060.7 -7.4125 
3050 1 30.4985 0.818949 2.8964 5.98318 -164973 -150379 2760.33 103385 14771.9 -18154.6 -7.41306 
3245 1 32.0143 8.17959 2.90038 5.99659 -197530 -114685 -20051.8 113216 -7795.2 -11944.4 -7.41169 
3246 1 32.7061 6.9422 2.90098 5.98634 -199319 -118930 18243.6 102879 18521.6 -20574.5 -7.41427 
3247 1 31.9822 5.72215 2.89924 5.99347 -186712 -126368 -14436.4 120733 -10488.3 -13419.6 -7.412 
3248 1 32.674 4.48493 2.90002 5.9842 -185936 -131147 12302 109191 17855.1 -19350.6 -7.41382 
3249 1 31.9493 3.26535 2.8986 5.98836 -175493 -138131 -8387.3 125703 -13032.8 -14840 -7.41237 
3250 1 32.6415 2.02835 2.89957 5.9817 -172068 -143879 6035.05 112626 16608.8 -18066.3 -7.41337 
3251 1 31.9161 0.809177 2.8985 5.98394 -163972 -150189 -2089.55 127587 -15304.7 -16210.6 -7.41278 
3446 1 34.8468 8.15361 2.90419 5.9847 -204213 -114069 21986.7 108263 19422.5 -20066.7 -7.41462 
3447 1 34.1235 6.93314 2.90244 5.99168 -191342 -121212 -18178.7 126198 -10290.5 -12243.1 -7.41186 
3448 1 34.8156 5.69607 2.90309 5.98216 -191788 -125895 15961.9 115898 19093.7 -18938.2 -7.41416 
3449 1 34.0915 4.47607 2.90164 5.98744 -180700 -132676 -11998.9 132470 -12844.4 -13589.4 -7.41223 
3450 1 34.7839 3.23919 2.90246 5.98023 -178624 -137932 9537.18 120845 18171.4 -17759.9 -7.41369 
3451 1 34.059 2.01961 2.90135 5.98256 -169615 -144174 -5489.56 135885 -15187.5 -14889.5 -7.41263 
3452 1 34.7517 0.782973 2.90234 5.97718 -165049 -150102 2887.83 122795 16716.6 -16537.3 -7.41322 
3647 1 36.2642 8.14543 2.90535 5.99024 -195062 -116543 -21951.8 130456 -10027.1 -11073.1 -7.41171 
3648 1 36.9567 6.90852 2.90588 5.98053 -196811 -121144 19683 121471 20067.2 -18342.4 -7.41449 
3649 1 36.2331 5.68812 2.90441 5.98682 -185189 -127530 -15719.2 138001 -12564.9 -12337 -7.41207 
3650 1 36.9257 4.45137 2.90509 5.97847 -184468 -132525 13179.3 127732 19465.5 -17262.7 -7.41401 
3651 1 36.2014 3.2314 2.90394 5.98156 -174826 -138638 -9084.89 142824 -14951.8 -13558.2 -7.41247 
3652 1 36.8942 1.99486 2.90477 5.97558 -171581 -144240 6377.13 131160 18307.2 -16148.6 -7.41352 
3653 1 36.1693 0.775265 2.90396 5.97733 -164121 -149861 -2222.23 144588 -17070.3 -14742.7 -7.41291 
16310 2 30.3666 8.99917 6.50002 5.97989 -105295 -202907 -20108.2 -83308.5 -5217.22 -11901.3 -7.41164 
16311 2 29.672 7.76364 6.50156 5.98126 -120621 -193668 18021 -102648 18695.6 -21432.3 -7.41415 
16312 2 30.3989 6.54563 6.5014 5.97908 -120003 -190034 -14933 -92098 -7852.63 -13566 -7.41193 
16313 2 29.7051 5.30964 6.50294 5.98153 -133114 -181281 12704 -110502 18158.2 -20177.5 -7.41374 
16314 2 30.4318 4.09145 6.50254 5.9793 -134968 -176803 -9279.24 -98617.7 -10402.4 -15164.3 -7.41227 
16315 2 29.7387 2.85504 6.50401 5.983 -145560 -168886 6973.92 -115738 17005.9 -18860.2 -7.41331 
16316 2 30.4651 1.6366 6.50331 5.98063 -150055 -163623 -3320.66 -102490 -12752.3 -16694 -7.41265 
16317 2 29.7726 0.39982 6.50464 5.98571 -157800 -156581 1017.94 -118225 15295.6 -17486.7 -7.41289 
16511 2 31.7846 9.00941 6.49755 5.97814 -115397 -198395 21829 -106984 19489 -21234.1 -7.41452 
16512 2 32.5112 7.79122 6.4976 5.9766 -113577 -194747 -18715.1 -97630.1 -7816.55 -12373.8 -7.41179 
16513 2 31.8168 6.55565 6.49899 5.97781 -127589 -186403 16404.7 -115979 19326.8 -20052.7 -7.4141 
16514 2 32.5433 5.33731 6.49884 5.97623 -128219 -182176 -12925.4 -105437 -10346.1 -13884.1 -7.41213 
16515 2 31.8496 4.1013 6.50021 5.97864 -139861 -174332 10490.9 -122614 18544.5 -18817.2 -7.41366 
16516 2 32.5758 2.88275 6.49979 5.97695 -143042 -169459 -6754.51 -110730 -12735.2 -15335.1 -7.41251 
16517 2 31.8828 1.64637 6.50108 5.98066 -152019 -162249 4264.73 -126634 17178.5 -17535.2 -7.41321 
16518 2 32.6087 0.42754 6.50035 5.97875 -157668 -156649 -374.092 -113204 -14865.7 -16728.9 -7.41293 
16712 2 34.6243 9.03547 6.49416 5.97476 -107972 -198745 -22542.8 -102164 -7733.63 -11186.9 -7.41164 
16713 2 33.9292 7.80029 6.49538 5.97469 -122531 -190921 20202.5 -120370 20200 -19716.7 -7.41446 
16714 2 34.6555 6.58179 6.49544 5.97378 -122097 -186792 -16695.1 -111169 -10222.1 -12600.4 -7.41197 
16715 2 33.9611 5.34618 6.49669 5.97487 -134497 -179171 14187.9 -128345 19778.8 -18564.4 -7.414 
16716 2 34.6873 4.1275 6.49653 5.97388 -136448 -174511 -10397 -117797 -12622.4 -13961.3 -7.41235 
16717 2 33.9936 2.8915 6.49774 5.97621 -146399 -167393 7783.58 -133702 18759 -17374.7 -7.41353 
16718 2 34.7194 1.67259 6.49731 5.97503 -150808 -162318 -3811.59 -121801 -14827.8 -15272.5 -7.41277 
16719 2 34.0263 0.436241 6.49843 5.97878 -158164 -155805 1165.02 -136263 17198.2 -16149.2 -7.41307 
16913 2 36.0422 9.04368 6.49211 5.97217 -118148 -194552 24017.9 -123604 20798.2 -19194.3 -7.41482 
16914 2 36.7683 7.82499 6.49237 5.97199 -116714 -190520 -20508.3 -115782 -10036.6 -11338.4 -7.41181 
16915 2 36.0733 6.58975 6.49347 5.97173 -129689 -183362 17979.1 -132798 20721.6 -18123.7 -7.41435 
16916 2 36.7993 5.37093 6.49355 5.97145 -130550 -178949 -14158.3 -123734 -12423.3 -12602.6 -7.41218 
16917 2 36.105 4.1353 6.49465 5.9724 -141311 -172139 11479.9 -139491 20044 -17024 -7.41387 
16918 2 36.8308 2.91628 6.49448 5.97196 -144483 -167417 -7453.09 -129145 -14672.8 -13821.8 -7.4126 
16919 2 36.1371 1.6803 6.49555 5.97427 -152818 -160978 4688.19 -143554 18802 -15897 -7.41338 
16920 2 36.8625 0.461022 6.49508 5.97322 -158116 -155748 -552.845 -131614 -16674.4 -15002.7 -7.41305 
3848 1 39.0971 8.12219 2.90841 5.97935 -200951 -117230 23396.7 125797 20789.8 -17596.5 -7.41482 
3849 1 38.3741 6.90141 2.90692 5.98568 -189004 -123137 -19473.8 142254 -12212.4 -11108.2 -7.4119 
3850 1 39.0669 5.66481 2.90747 5.97684 -189498 -127919 16886.2 133424 20501.5 -16608.4 -7.41433 
3851 1 38.3432 4.44446 2.90628 5.98089 -179288 -133656 -12790.8 148398 -14614.8 -12244.6 -7.41229 
3852 1 39.0362 3.20803 2.90697 5.97436 -177361 -138724 10008.7 138319 19643.4 -15594.1 -7.41382 
3853 1 38.3118 1.98807 2.90611 5.97626 -169154 -144208 -5806.57 151802 -16810.8 -13346.9 -7.41273 
3854 1 39.0051 0.751857 2.90693 5.97156 -164754 -149747 2926.83 140264 18277.5 -14557 -7.41333 
4048 1 41.237 9.33696 2.91071 5.97851 -204137 -114133 27050.6 129110 21280.4 -16730 -7.41513 
4049 1 40.5145 8.11582 2.90919 5.98463 -191969 -119456 -23198.3 145302 -11799.8 -9922.08 -7.41173 
4050 1 41.2077 6.87939 2.90964 5.97562 -193665 -124035 20594.2 137920 21291.5 -15827.3 -7.41464 
4051 1 40.4844 5.65868 2.9084 5.98055 -183052 -129402 -16535.4 152834 -14193.8 -10971.3 -7.41211 
4052 1 41.1776 4.42238 2.90897 5.97349 -182548 -134293 13709.4 144142 20730.1 -14905 -7.41413 
4053 1 40.4537 3.20207 2.90805 5.97558 -173702 -139469 -9504.75 157498 -16439.2 -11987.8 -7.41255 
4054 1 41.1472 1.96595 2.90873 5.97034 -170809 -144577 6552.13 147505 19638.4 -13967.6 -7.41362 
4055 1 40.4227 0.745981 2.90815 5.97165 -163894 -149426 -2267.93 159262 -18425.3 -12979 -7.41301 
4249 1 42.6544 9.33126 2.91125 5.98387 -193998 -116415 -26844.7 147246 -11341.4 -8791.61 -7.41156 
4250 1 43.3479 8.09501 2.91163 5.97487 -196993 -120957 24252.5 141138 21854.1 -14949.1 -7.41495 
4251 1 42.6251 6.87397 2.91033 5.98045 -185988 -125649 -20259.7 155790 -13703.9 -9753.48 -7.41193 
4252 1 43.3186 5.63781 2.91079 5.97246 -186806 -130186 17420.4 148616 21582.4 -14110.8 -7.41443 
4253 1 42.5951 4.41716 2.9098 5.9752 -177450 -134955 -13247 161874 -15971 -10683.7 -7.41235 
4254 1 43.2888 3.18115 2.91036 5.96951 -176084 -139686 10252.6 153379 20767.6 -13263 -7.41391 
4255 1 42.5647 1.96085 2.9097 5.97093 -168533 -144446 -5960.53 165138 -18039.1 -11589.7 -7.41281 
4256 1 43.2586 0.725025 2.91036 5.96696 -164929 -149398 2900.35 155309 19471.4 -12406.6 -7.4134 
4450 1 45.4876 9.31155 2.91344 5.97445 -199169 -118697 27825.7 143052 22207.7 -13998.5 -7.41524 
4451 1 44.7653 8.09021 2.91209 5.97977 -188135 -122851 -23918.1 157554 -13163.3 -8601.3 -7.41175 
4452 1 45.4591 6.85421 2.91246 5.9717 -190156 -127192 21094.4 151756 22216.7 -13237.4 -7.41473 
4453 1 44.7361 5.63325 2.9114 5.97517 -180591 -131507 -16979.2 164923 -15428.2 -9446.88 -7.41216 
4454 1 45.4299 4.39736 2.91185 5.96885 -180563 -135887 13972.2 157958 21678.4 -12470.9 -7.4142 
4455 1 44.7063 3.17675 2.91111 5.97056 -172546 -140176 -9704.62 169555 -17549.9 -10269.3 -7.4126 
4456 1 45.4003 1.94101 2.91165 5.96612 -170256 -144642 6601.77 161309 20636.5 -11701.1 -7.41368 
4457 1 44.6762 0.720703 2.91124 5.96697 -164121 -148832 -2242.09 171339 -19425.3 -11074.6 -7.41308 
4651 1 46.905 9.30728 2.91372 5.97946 -189188 -120608 -27476.8 158272 -12585.4 -7522.21 -7.41158 
4653 1 46.8765 6.85022 2.91288 5.97532 -182622 -128574 -20658.7 166710 -14828 -8285.26 -7.41196 
4655 1 46.8474 4.39356 2.9124 5.97049 -175677 -136592 -13449.1 172715 -16978.8 -9026.82 -7.41239 