ITEM: TIMESTEP
0
ITEM: NUMBER OF ATOMS
26936
ITEM: BOX BOUNDS pp pp pp
0.0000000000000000e+00 1.4251150300000000e+02
0.0000000000000000e+00 2.4683716400000000e+02
0.0000000000000000e+00 1.5000000000000000e+01
ITEM: ATOMS id type x y z c_csym c_2[1] c_2[2] c_2[3] c_2[4] c_2[5] c_2[6] c_3 
229 1 0.783 8.59 3 6.02406 -147761 -138295 -154999 10547.4 15161.6 -1648.43 -7.4073 
230 1 0.063 7.368 3 6.01988 -155092 -130667 -155451 834.719 15210.6 -117.444 -7.4074 
231 1 0.762 6.134 3 6.02366 -138288 -123503 -156601 -2296.28 11377.2 -1564.27 -7.40714 
232 1 0.042 4.912 3 6.02516 -155544 -131973 -157194 3921.5 10144 -78.7341 -7.40705 
233 1 0.741 3.678 3 6.0239 -136704 -125332 -157757 2781.35 7129.26 -1526.87 -7.40707 
234 1 0.021 2.456 3 6.02705 -153757 -129682 -158182 4970.29 5044.12 -20.2824 -7.40745 
235 1 0.72 1.222 3 6.02411 -182841 -123138 -158418 3796.11 2487.16 -1462.22 -7.40773 
236 1 0 0 3 6.02774 -163343 -135922 -158507 13430.9 37.2421 14.9357 -7.40761 
431 1 2.201 8.577 3 6.02248 -145151 -162108 -154180 1416.91 17603.8 -3602.63 -7.40787 
432 1 2.899 7.343 3 6.02341 -154151 -151430 -155444 -2322.16 13347.8 -6321.71 -7.40801 
433 1 2.18 6.121 3 6.02248 -142698 -163408 -156225 -193.474 12580.9 -3842.25 -7.40784 
434 1 2.878 4.887 3 6.02366 -162146 -185449 -156924 -18037 9269.56 -6122.42 -7.40802 
435 1 2.159 3.666 3 6.01953 -144991 -162832 -157555 -33117.5 7524.34 -3991.95 -7.40754 
436 1 2.857 2.431 3 6.01835 -144656 -140943 -157709 -23979.4 4853.25 -5917.41 -7.40715 
437 1 2.137 1.21 3 6.02214 -188835 -153387 -158257 -16258.9 2378.03 -4150.15 -7.40771 
632 1 5.037 8.553 3 6.02603 -139889 -122879 -153407 515.884 15261.3 -10930.6 -7.40734 
633 1 4.317 7.331 3 6.02603 -128737 -133838 -154764 7148.93 14719.3 -7133.76 -7.40725 
634 1 5.016 6.097 3 6.0241 -138103 -122637 -155041 814.172 11556 -10804.8 -7.40745 
635 1 4.296 4.875 3 6.02691 -139076 -145174 -156399 20580.4 9721.58 -7543.88 -7.40746 
636 1 4.994 3.641 3 6.02246 -151051 -156243 -156382 230.727 7323.45 -10457.4 -7.40774 
637 1 4.275 2.419 3 6.02329 -147912 -160023 -157322 8024.6 4563.76 -8115.47 -7.40758 
638 1 4.973 1.185 3 6.02446 -157329 -183532 -157158 -16300.8 2790.64 -10050.3 -7.40796 
833 1 6.455 8.541 3 6.02341 -143287 -162651 -152927 4679.98 16594.9 -10125.3 -7.40816 
834 1 7.153 7.307 3 6.02248 -155983 -151547 -152765 -4996.27 13642.1 -15183.6 -7.40796 
835 1 6.434 6.085 3 6.0222 -146042 -163441 -154787 6790.91 11644.6 -10903.7 -7.40759 
836 1 7.132 4.851 3 6.02475 -146540 -139204 -154287 12295.1 9773.32 -14881.2 -7.40747 
837 1 6.412 3.629 3 6.0241 -131057 -129472 -155937 8943.55 6558.04 -11599.1 -7.40739 
838 1 7.111 2.395 3 6.02498 -134643 -126687 -155323 -1319.62 5491.9 -14400.9 -7.40736 
839 1 6.391 1.173 3 6.02538 -130841 -123396 -156328 5068.42 1612.29 -12227.2 -7.40727 
1034 1 9.291 8.516 3 6.0241 -188249 -120485 -149521 -4865.45 15654.3 -19648.8 -7.40814 
1035 1 8.571 7.294 3 6.02279 -137147 -149177 -152750 17685.2 13290.8 -13762.1 -7.40743 
1036 1 9.269 6.06 3 6.02197 -160595 -188064 -151573 -23402.3 11984.6 -19195 -7.40834 
1037 1 8.55 4.839 3 6.02097 -146692 -161555 -154127 -27014.6 8429.13 -14703.4 -7.40774 
1038 1 9.248 3.604 3 6.02097 -150180 -156749 -152916 -41327.7 8022.03 -18611.3 -7.40803 
1039 1 8.529 2.383 3 6.02341 -154762 -191077 -154841 -11631.3 3496.91 -15497.2 -7.40838 
1040 1 9.227 1.149 3 6.02168 -148524 -152827 -153951 -3430.67 3640.28 -17849.8 -7.40775 
13499 2 0.635 8.602 6.4 6.02649 -139499 -148527 -154277 -1330.99 17733 -979.768 -7.40723 
13500 2 0.656 6.146 6.4 6.02745 -136827 -146921 -156348 -4807.83 12702.7 -1120.93 -7.40756 
13501 2 0.677 3.69 6.4 6.02826 -135993 -145695 -157717 -3040.81 7607.77 -1232.27 -7.40769 
13502 2 0.698 1.234 6.4 6.02665 -142632 -151818 -158436 -10450.7 2602.11 -1382.03 -7.40759 
13503 2 0 0 6.4 6.02886 -165491 -136924 -158551 -17252.8 -33.645 25.4432 -7.40724 
13697 2 2.053 8.614 6.4 6.02795 -157440 -149973 -154813 -4502.22 15269.2 -4649.71 -7.40784 
13698 2 2.772 7.392 6.4 6.0234 -142954 -163473 -155161 -1416.97 15059.5 -4623.13 -7.40794 
13699 2 2.074 6.158 6.4 6.02794 -145965 -137552 -156422 -17658 11480.7 -4551.13 -7.40755 
13700 2 2.794 4.936 6.4 6.0239 -178306 -128993 -156868 -2047.02 9917.95 -5036.03 -7.4077 
13701 2 2.095 3.702 6.4 6.02722 -136013 -126361 -157526 -4323.68 7240.76 -4340.86 -7.40705 
13702 2 2.815 2.48 6.4 6.02364 -131249 -130387 -157766 3762.79 4834.99 -5367.59 -7.40707 
13703 2 2.116 1.246 6.4 6.02504 -131984 -130023 -158135 -2208.52 2497.78 -4234.2 -7.40704 
13704 2 2.836 0.024 6.4 6.02172 -138144 -158148 -158102 -11534.7 -134.319 -5589.15 -7.40724 
13898 2 4.889 8.638 6.4 6.02367 -126242 -135347 -153430 4799.06 17113.5 -7702.68 -7.40742 
13899 2 4.19 7.404 6.4 6.02354 -146735 -156108 -154742 14739.2 13599.9 -9162.19 -7.40757 
13900 2 4.91 6.183 6.4 6.02179 -128876 -134338 -155367 37291.5 12140.9 -8426.39 -7.40708 
13901 2 4.211 4.948 6.4 6.02021 -184578 -123640 -156233 31113.2 9540.41 -9032.99 -7.40761 
13902 2 4.931 3.727 6.4 6.0231 -148604 -176940 -156682 8300.2 6995.97 -9106.64 -7.40764 
13903 2 4.233 2.493 6.4 6.0197 -148465 -159286 -157182 -1344.01 5115.24 -8840.02 -7.40757 
13904 2 4.952 1.271 6.4 6.02364 -150127 -156837 -157183 2260.11 2052.98 -9626.62 -7.4077 
13905 2 4.254 0.037 6.4 6.02208 -146402 -150443 -157609 -4299.88 385.286 -8413.79 -7.40799 
14099 2 6.307 8.651 6.4 6.01969 -154766 -152739 -152473 -1987.29 15589 -13747.1 -7.40798 
14100 2 7.026 7.429 6.4 6.02508 -147531 -162138 -153583 2043.61 13989.7 -11405.4 -7.40766 
14101 2 6.328 6.195 6.4 6.02302 -153264 -152607 -154158 -6913.85 11892.5 -13462.6 -7.40809 
14102 2 7.047 4.973 6.4 6.0258 -145001 -160550 -155062 1894.06 9066.38 -12267.9 -7.40803 
14103 2 6.349 3.739 6.4 6.02549 -152985 -153403 -155476 -9101.57 7678.67 -13129.8 -7.40792 
14104 2 7.068 2.517 6.4 6.02463 -146473 -160766 -155826 1453.45 4155.41 -13095.1 -7.40778 
14105 2 6.37 1.283 6.4 6.02795 -144188 -140991 -156215 -21941.4 3156.1 -12694.3 -7.40737 
14106 2 7.09 0.061 6.4 6.02412 -131591 -120922 -155849 4197.8 -795.715 -13834.1 -7.40751 
14300 2 9.142 8.675 6.4 6.02463 -142808 -164992 -151344 3143.59 15644.8 -13965.8 -7.40804 
14301 2 8.444 7.441 6.4 6.02795 -149417 -136926 -151340 -21569.6 14135.7 -17873.5 -7.40764 
14302 2 9.164 6.219 6.4 6.02387 -176747 -129921 -153071 2416.32 10635.8 -15190.5 -7.40805 
14303 2 8.465 4.985 6.4 6.02531 -139444 -125635 -153014 -8432.33 10311.5 -17374.5 -7.40711 
14304 2 9.185 3.763 6.4 6.02364 -130268 -131872 -153949 8350.74 5775.92 -16236.8 -7.4073 
14305 2 8.486 2.529 6.4 6.0241 -135560 -125437 -154160 -6220.28 6059.75 -16853.5 -7.40749 
14306 2 9.206 1.307 6.4 6.02376 -140293 -145750 -154303 -5634.14 985.586 -17083.7 -7.40736 
14307 2 8.508 0.073 6.4 6.02288 -153559 -188394 -154805 8532.08 1369.76 -16246.1 -7.40802 
1235 1 10.708 8.504 3 6.0241 -176384 -131530 -150527 12579.3 14688.7 -16068.4 -7.40809 
1236 1 11.407 7.27 3 6.02603 -139431 -124583 -147856 -2289.39 14274.8 -23263.3 -7.40767 
1237 1 10.687 6.048 3 6.02413 -128785 -132921 -151996 11465 9865.31 -17257.1 -7.40754 
1238 1 11.386 4.814 3 6.0241 -136926 -126771 -149665 -3612.75 10658.8 -22745.2 -7.40756 
1239 1 10.666 3.592 3 6.02392 -131496 -131176 -152716 12104.2 4943.97 -18465.5 -7.40738 
1240 1 11.365 2.358 3 6.02411 -185135 -125142 -151128 -4854.89 6548.55 -22008.6 -7.40782 
1241 1 10.645 1.136 3 6.02385 -139962 -139485 -152843 15518.3 185.345 -19458.8 -7.40741 
1436 1 13.544 8.48 3 6.02248 -154596 -153054 -143742 -10171 16294.7 -27054.9 -7.40871 
1437 1 12.825 7.258 3 6.02341 -143883 -162144 -149663 9000.55 11043.6 -19380.5 -7.40836 
1438 1 13.523 6.024 3 6.02248 -154934 -154033 -145918 -8780.08 12981.8 -26455.1 -7.40837 
1439 1 12.804 4.802 3 6.0222 -146761 -163134 -150524 11024.7 6342.16 -20755.8 -7.40785 
1440 1 13.502 3.568 3 6.02335 -145451 -140534 -147630 7533.32 9264.53 -25757.9 -7.40798 
1441 1 12.782 2.346 3 6.02409 -180315 -127604 -150673 13420.2 1600.11 -22053.8 -7.4081 
1442 1 13.481 1.112 3 6.02592 -133379 -123242 -148950 -1040.01 5100.47 -24797.8 -7.40759 
1637 1 14.962 8.467 3 6.02367 -127665 -134904 -147059 9025.94 11885.2 -21037.9 -7.40771 
1638 1 15.661 7.233 3 6.0241 -139010 -124617 -141188 -8782.23 15224.2 -30055.1 -7.40828 
1639 1 14.941 6.011 3 6.02336 -137146 -149500 -147980 22733.5 7333.26 -22625.8 -7.40772 
1640 1 15.639 4.777 3 6.02197 -158067 -193133 -143508 -27316.3 11802.9 -29192.4 -7.40871 
1641 1 14.92 3.556 3 6.02341 -154575 -195008 -148345 -5998.11 2801.7 -24065.6 -7.40842 
1642 1 15.618 2.322 3 6.02248 -148408 -159467 -145426 -11868.3 8010.65 -28131.7 -7.40851 
1643 1 14.899 1.1 3 6.02364 -148290 -153448 -147953 8367.01 -1768.72 -25376.8 -7.4082 
1838 1 17.798 8.443 3 6.02795 -157216 -154276 -136041 -4979.75 17300.5 -33123.6 -7.40896 
1839 1 17.079 7.221 3 6.02463 -143645 -164425 -145634 15481 8074.81 -23856.7 -7.40838 
1840 1 17.777 5.987 3 6.02795 -147381 -141551 -138503 6999.46 14283.8 -32440.6 -7.40841 
1841 1 17.057 4.765 3 6.02387 -129577 -130941 -145858 15532.6 3533.35 -25611.1 -7.40812 
1842 1 17.756 3.531 3 6.0241 -137430 -129918 -140816 -8901.5 10920.4 -31413.7 -7.40784 
1843 1 17.036 2.309 3 6.02336 -130751 -133445 -145289 10782.8 -877.564 -27261.7 -7.40772 
1844 1 17.735 1.075 3 6.02256 -188651 -154347 -142727 -24525.6 7114.78 -30228.6 -7.40886 
14501 2 10.56 8.687 6.4 6.0241 -140278 -123756 -147852 -6302.49 16147.7 -21974.5 -7.40766 
14502 2 11.28 7.465 6.4 6.0231 -127082 -136324 -150798 8703.99 12095.7 -17433.6 -7.40737 
14503 2 10.581 6.231 6.4 6.02212 -192765 -157240 -149817 10197.4 12660.3 -21575.5 -7.40833 
14504 2 11.301 5.01 6.4 6.0231 -146150 -180909 -151834 13028.9 7306.14 -18848.1 -7.40781 
14505 2 10.603 3.776 6.4 6.0197 -149518 -159321 -151279 -5354.24 8708.18 -21080.5 -7.40793 
14506 2 11.322 2.554 6.4 6.02364 -148861 -158910 -152181 6641.67 2635.01 -20052.6 -7.40799 
14507 2 10.624 1.32 6.4 6.02248 -151742 -155615 -152340 -6864.46 4399.28 -20371.2 -7.40801 
14508 2 11.343 0.098 6.4 6.02221 -148666 -154361 -151937 9083.3 -2111.55 -21138.7 -7.40775 
14702 2 13.396 8.712 6.4 6.02364 -145083 -162818 -148390 8238.21 13147.5 -19272.9 -7.40822 
14703 2 12.698 7.478 6.4 6.02248 -154060 -153127 -145899 -5434.83 14978.1 -25452.6 -7.40858 
14704 2 13.417 6.256 6.4 6.02364 -145652 -162471 -149525 8029.94 8522.74 -20866 -7.40812 
14705 2 12.719 5.022 6.4 6.02302 -154095 -153846 -147794 -12836.3 11366.8 -24810.3 -7.40838 
14706 2 13.438 3.8 6.4 6.02463 -145451 -162472 -150060 5685.82 3911.53 -22317.1 -7.40813 
14707 2 12.74 2.566 6.4 6.02795 -144996 -141663 -149302 -25786.8 7273.94 -24018 -7.40776 
14708 2 13.46 1.344 6.4 6.0241 -132527 -128725 -149743 5072.48 -744.156 -23657.9 -7.40779 
14709 2 12.761 0.11 6.4 6.02411 -133969 -124451 -150192 -13731.6 2978.7 -23149.6 -7.40727 
14903 2 14.814 8.724 6.4 6.02795 -149906 -138552 -141215 -25888.4 17072.4 -29025.8 -7.40825 
14904 2 15.534 7.502 6.4 6.0241 -127592 -132571 -146986 6871.01 9420.76 -22460.9 -7.40806 
14905 2 14.835 6.268 6.4 6.02531 -138369 -126579 -143451 -12628.1 13857.7 -28444.7 -7.40793 
14906 2 15.555 5.046 6.4 6.02392 -129576 -133607 -147491 7323.45 4828.51 -24188.7 -7.40769 
14907 2 14.856 3.812 6.4 6.0241 -138152 -126570 -145515 -11635.5 10234 -27524.9 -7.40777 
14908 2 15.576 2.59 6.4 6.02336 -140443 -145568 -147436 -1524.74 419.208 -25647.5 -7.40788 
14909 2 14.878 1.356 6.4 6.02221 -148328 -161380 -147044 -9463.34 6062.29 -26521 -7.4082 
14910 2 15.597 0.134 6.4 6.023 -154718 -188452 -146745 -3644.45 -3908.67 -26984.7 -7.4085 
15104 2 17.65 8.748 6.4 6.02336 -135162 -151548 -144558 -196.666 10113.7 -23457.6 -7.40793 
15105 2 16.952 7.514 6.4 6.02197 -162068 -189254 -138690 7729.35 16155.1 -31579.9 -7.40911 
15106 2 17.671 6.293 6.4 6.02097 -145271 -163736 -144999 45257.5 5692.68 -25370.9 -7.40829 
15107 2 16.973 5.058 6.4 6.02097 -151600 -157675 -141005 24964.9 12776.9 -30792.2 -7.40874 
15108 2 17.692 3.837 6.4 6.02341 -153066 -194053 -144793 29478.3 1326.61 -27189.8 -7.40896 
15109 2 16.994 2.603 6.4 6.02248 -151051 -159252 -142846 -10383.9 9135.14 -29866.8 -7.40843 
15110 2 17.713 1.381 6.4 6.02197 -147333 -161495 -144019 11504.9 -2895.35 -28812.4 -7.4085 
15111 2 17.015 0.147 6.4 6.02198 -141615 -137220 -144422 -25283.2 5131.85 -28576.8 -7.40817 
2039 1 19.216 8.431 3 6.02364 -138183 -148027 -143014 25679.9 8533.84 -24697.7 -7.40814 
2040 1 19.914 7.197 3 6.02109 -153440 -158119 -133192 -12913.8 16530.9 -35180.4 -7.40913 
2041 1 19.195 5.975 3 6.02508 -148343 -162124 -143107 15955.8 4205.82 -26683 -7.40829 
2042 1 19.893 4.741 3 6.02302 -154154 -157039 -135890 -6920.45 13400.2 -34195.2 -7.40897 
2043 1 19.174 3.519 3 6.02246 -145868 -162907 -142760 16152.3 -52.7059 -28443.9 -7.40857 
2044 1 19.872 2.285 3 6.02691 -144534 -142773 -138138 4312.98 9993.47 -33010.2 -7.40858 
2045 1 19.152 1.063 3 6.02409 -179165 -122246 -141694 13358.5 -4268.43 -30067.5 -7.40873 
2240 1 22.052 8.406 3 6.02387 -140381 -128010 -126906 -10549.5 18624 -37691 -7.40893 
2241 1 21.332 7.184 3 6.02367 -126694 -137385 -140532 12232.6 4557.79 -27238.4 -7.40798 
2242 1 22.031 5.95 3 6.02354 -145507 -160496 -130089 -29030 15972.8 -36690.4 -7.40927 
2243 1 21.311 4.729 3 6.02066 -138699 -148943 -140164 -7436.43 473.579 -29143.3 -7.40818 
2244 1 22.009 3.494 3 6.01953 -149808 -162526 -133105 -47335.5 12842.2 -35427.3 -7.40901 
2245 1 21.29 2.273 3 6.02367 -157041 -192703 -139134 -2882.23 -3697.08 -30931.1 -7.40911 
2246 1 21.988 1.039 3 6.02168 -145858 -156682 -135601 -11731.5 9350.31 -34004.3 -7.40907 
2441 1 23.47 8.394 3 6.02796 -142894 -163662 -138286 17940 4739.09 -27263.9 -7.40904 
2442 1 24.168 7.16 3 6.02795 -156126 -157708 -123973 -7519.71 18227.7 -38752.8 -7.40969 
2443 1 23.449 5.938 3 6.02217 -143532 -164286 -137829 17893.8 674.174 -29373.1 -7.40898 
2444 1 24.147 4.704 3 6.02723 -146239 -144679 -127055 4413.57 15494.2 -37653 -7.4091 
2445 1 23.427 3.482 3 6.0239 -130911 -131889 -136563 17867 -3400.61 -31384.5 -7.40856 
2446 1 24.126 2.248 3 6.02531 -136496 -132321 -130073 -11476.2 12454.5 -36262.2 -7.40851 
2447 1 23.406 1.026 3 6.02431 -129683 -129385 -134532 9152.63 -7245.06 -33273.8 -7.40833 
2642 1 26.306 8.37 3 6.02364 -139519 -128701 -117090 -14176.5 20322.3 -40587.4 -7.40973 
2643 1 25.586 7.148 3 6.02652 -139595 -149392 -135267 30807.3 720.753 -29278.8 -7.40837 
2644 1 26.284 5.914 3 6.02023 -152577 -161558 -120888 -10110.5 17893.5 -39390.7 -7.40988 
2645 1 25.565 4.692 3 6.02723 -147325 -162223 -133922 19971.6 -3147.43 -31403 -7.40909 
2646 1 26.263 3.458 3 6.02549 -149995 -160192 -124331 -10699.6 15145.9 -38029.8 -7.41 
2647 1 25.544 2.236 3 6.02796 -146935 -161497 -132106 17882.8 -6890.3 -33334.3 -7.40944 
2648 1 26.242 1.002 3 6.02714 -149816 -155175 -127532 -6002.86 12045.3 -36432.1 -7.40946 
2843 1 27.724 8.357 3 6.0183 -140828 -168488 -133138 14198.7 670.842 -28719.5 -7.40901 
2844 1 28.422 7.123 3 6.02331 -155859 -178296 -113935 -17154.3 20212.1 -40851.1 -7.41021 
2845 1 27.702 5.902 3 6.02161 -128301 -135296 -131730 -18683.3 -3173.85 -31029 -7.40871 
2846 1 28.401 4.667 3 6.0204 -135617 -134793 -117967 -48655.4 17811.7 -39530.2 -7.40933 
2847 1 27.681 3.446 3 6.02331 -138895 -166891 -129723 -1020.49 -6860.34 -33100 -7.40907 
2848 1 28.38 2.212 3 6.02223 -181207 -132613 -121786 -15096.7 14972.8 -38021.8 -7.40971 
2849 1 27.66 0.99 3 6.02507 -143215 -141413 -127235 26380.8 -10388.9 -34987.7 -7.40883 
15305 2 19.068 8.761 6.4 6.02248 -157488 -154201 -132992 -9931.85 18274.7 -34578 -7.40915 
15306 2 19.787 7.539 6.4 6.0222 -144546 -165738 -142470 11090.1 6227.27 -26177.5 -7.40833 
15307 2 19.089 6.305 6.4 6.02335 -148614 -140871 -135786 -26875.8 15378.3 -33685.4 -7.40858 
15308 2 19.809 5.083 6.4 6.0241 -177709 -131028 -142343 8240.33 1952.94 -28172.3 -7.40858 
15309 2 19.11 3.849 6.4 6.02498 -136330 -128366 -138145 -15917.7 12042.7 -32672.9 -7.40837 
15310 2 19.83 2.627 6.4 6.0241 -131050 -133138 -141533 8800.19 -2243.16 -29970 -7.40805 
15311 2 19.131 1.393 6.4 6.0241 -134730 -130173 -140165 -15561 8246.8 -31466.9 -7.40815 
15312 2 19.851 0.171 6.4 6.02429 -131670 -125066 -140001 10801.7 -6248.41 -31605.7 -7.40825 
15506 2 21.904 8.785 6.4 6.0241 -127163 -136097 -139988 10148.1 6489.7 -26480.4 -7.40814 
15507 2 21.205 7.551 6.4 6.0241 -139463 -128279 -129853 -15172.7 17661.8 -36313.9 -7.40875 
15508 2 21.925 6.329 6.4 6.02498 -128424 -134208 -139712 9145.4 2385.21 -28655.2 -7.40828 
15509 2 21.226 5.095 6.4 6.0241 -185761 -126178 -132902 -16469.3 14697.7 -35232.6 -7.40914 
15510 2 21.946 3.873 6.4 6.02335 -140295 -146994 -138748 -2503.16 -1697.69 -30703 -7.4084 
15511 2 21.248 2.639 6.4 6.0222 -152074 -160986 -135535 -14267.9 11338.5 -33933.4 -7.40874 
15512 2 21.967 1.417 6.4 6.02289 -147699 -162627 -137556 13490 -5620.33 -32400.7 -7.40877 
15513 2 21.269 0.183 6.4 6.02446 -153682 -189174 -137522 2026.43 7619.89 -32547.8 -7.40927 
15707 2 23.322 8.797 6.4 6.02197 -155558 -158514 -123695 -11865.3 19760 -38446.1 -7.40971 
15708 2 24.041 7.575 6.4 6.02248 -143324 -165858 -137510 14752.6 2665.58 -28620.2 -7.40875 
15709 2 23.343 6.341 6.4 6.02341 -161250 -190506 -126911 5353.34 17202.5 -37423.6 -7.41004 
15710 2 24.062 5.12 6.4 6.02097 -143407 -164789 -136450 49483.4 -1350.67 -30787.6 -7.40901 
15711 2 23.364 3.885 6.4 6.02097 -152952 -160008 -129850 20443.2 14169.8 -36234.5 -7.4092 
15712 2 24.083 2.664 6.4 6.02197 -153531 -196807 -134809 31535.9 -5210.62 -32812.8 -7.40935 
15713 2 23.385 1.43 6.4 6.02336 -142473 -147282 -132366 -25616 10866.8 -34840 -7.40868 
15714 2 24.105 0.208 6.4 6.02409 -133349 -125844 -132614 14587 -8982.07 -34681.6 -7.40854 
15908 2 26.157 8.822 6.4 6.02197 -141982 -166436 -135222 15236.1 2718.92 -28274.8 -7.40901 
15909 2 25.459 7.588 6.4 6.02336 -148726 -143517 -120209 -24738.6 19509.6 -39368.7 -7.40952 
15910 2 26.179 6.366 6.4 6.0241 -130066 -134418 -134145 12710.6 -1266.73 -30646.6 -7.40846 
15911 2 25.48 5.132 6.4 6.02392 -137418 -131164 -123724 -16637.3 16916.1 -38148.7 -7.40912 
15912 2 26.2 3.91 6.4 6.02531 -129915 -135120 -132487 11076.8 -5018.04 -32756.5 -7.40859 
15913 2 25.501 2.676 6.4 6.0241 -134883 -129794 -126889 -17733.2 13921.1 -36747.7 -7.40926 
15914 2 26.221 1.454 6.4 6.02795 -141488 -147317 -130219 -2876.13 -8635.75 -34703.8 -7.40893 
15915 2 25.523 0.22 6.4 6.02423 -147287 -157150 -129739 -21051.6 10529.4 -35113.5 -7.40933 
16109 2 27.575 8.834 6.4 6.0241 -140700 -128840 -113144 -17080.4 21601.4 -40930.3 -7.40997 
16110 2 28.295 7.612 6.4 6.02795 -137073 -150047 -132092 -1850.99 -1231.7 -29996.9 -7.4088 
16111 2 27.597 6.378 6.4 6.02463 -153452 -161511 -117316 -17217.2 19309.1 -39661.4 -7.41009 
16112 2 28.316 5.156 6.4 6.02549 -145726 -163125 -130037 10532.5 -4885.13 -32276.4 -7.40945 
16113 2 27.618 3.922 6.4 6.0258 -151510 -160463 -120970 -17361.1 16701.2 -38322.5 -7.41009 
16114 2 28.337 2.7 6.4 6.02302 -145752 -163322 -127850 12245.5 -8416.24 -34359.4 -7.40967 
16115 2 27.639 1.466 6.4 6.02508 -153671 -160843 -124166 -17764.1 13664.4 -36767 -7.40945 
16116 2 28.358 0.244 6.4 6.02091 -144638 -160963 -125086 19527.6 -11830.1 -36280.8 -7.40949 
3044 1 30.559 8.333 3 6.02463 -154619 -162863 -106740 -9921.97 22249.8 -41982.7 -7.41073 
3045 1 29.84 7.111 3 6.02549 -145010 -163361 -129789 20895.4 -3278.04 -30251.2 -7.40946 
3046 1 30.538 5.877 3 6.02723 -154925 -161194 -111067 -9054.35 20209.5 -40703 -7.41046 
3047 1 29.819 4.655 3 6.02163 -144783 -165553 -127585 19040.2 -6914.43 -32455.6 -7.40948 
3048 1 30.517 3.421 3 6.02508 -147237 -147673 -115029 15.3003 17695 -39272.9 -7.40958 
3049 1 29.797 2.199 3 6.02248 -178235 -133822 -124811 14726.3 -10424.6 -34560.1 -7.40953 
3050 1 30.496 0.965 3 6.02395 -138972 -163785 -119011 -28310.9 14988.5 -37563.3 -7.40959 
3245 1 31.977 8.321 3 6.0241 -127580 -136814 -127966 16469.5 -3592.81 -29299.4 -7.40886 
3246 1 32.676 7.087 3 6.02364 -138293 -132409 -103660 -15357.2 22401.5 -41605.6 -7.41055 
3247 1 31.956 5.865 3 6.02652 -140132 -150328 -125567 31778.5 -7098.32 -31549.4 -7.40895 
3248 1 32.654 4.631 3 6.02023 -150702 -164540 -108376 -11041.1 20278.7 -40132.3 -7.41076 
3249 1 31.935 3.409 3 6.02795 -147995 -163492 -122627 20916 -10476.2 -33668.2 -7.40977 
3250 1 32.633 2.175 3 6.02796 -149640 -163194 -112920 -11588.4 17832 -38508.8 -7.41059 
3251 1 31.914 0.953 3 6.02383 -145713 -157174 -119312 15503.3 -13747 -35644.3 -7.4103 
3446 1 34.813 8.296 3 6.02364 -157010 -162802 -95941.1 -12470.7 24410.7 -42087.3 -7.41138 
3447 1 34.094 7.074 3 6.0183 -141334 -169496 -124052 14764.9 -7386.6 -30327 -7.40956 
3448 1 34.792 5.84 3 6.0231 -153148 -184381 -101035 -18185.7 22659.6 -40743.8 -7.41087 
3449 1 34.072 4.619 3 6.02352 -135995 -170007 -120952 -1061.95 -10735.2 -32581.1 -7.4097 
3450 1 34.771 3.385 3 6.02367 -133448 -138726 -106160 -16306 20469.9 -39239.1 -7.41006 
3451 1 34.051 2.163 3 6.02531 -131675 -135982 -117358 15824.2 -13926.5 -34606.6 -7.40952 
3452 1 34.75 0.929 3 6.02325 -131847 -128953 -110738 -13341.7 17994.2 -37536.8 -7.4101 
3647 1 36.231 8.284 3 6.02795 -137614 -150628 -122971 32842.5 -7725.7 -28954.8 -7.40935 
3648 1 36.929 7.05 3 6.02463 -153362 -166692 -93444.4 -10348.7 24778.6 -41067 -7.41153 
3649 1 36.21 5.828 3 6.02302 -145571 -164724 -119496 21052.8 -10999.9 -31195.4 -7.41009 
3650 1 36.908 4.594 3 6.02364 -152921 -165641 -98829.6 -13016.6 22934.3 -39566.9 -7.41118 
3651 1 36.189 3.372 3 6.02248 -145203 -165272 -115732 13744.7 -14185.1 -33284.5 -7.41039 
3652 1 36.887 2.138 3 6.02404 -151856 -164552 -103919 -13481.2 20755.3 -37948 -7.41092 
3653 1 36.168 0.916 3 6.01951 -144349 -163452 -111309 10849.5 -17121.5 -35232.5 -7.41032 
16310 2 30.411 8.858 6.4 6.02248 -143801 -164652 -130393 16426 -1327.08 -29093.5 -7.4093 
16311 2 29.713 7.624 6.4 6.02364 -156985 -159712 -110076 -14981.8 21600.5 -40972.3 -7.41053 
16312 2 30.432 6.402 6.4 6.01969 -141316 -169064 -128441 17411.3 -4929.78 -31437.8 -7.4093 
16313 2 29.734 5.168 6.4 6.0231 -155270 -178450 -114141 -9522.21 19347.7 -39605.5 -7.4102 
16314 2 30.454 3.947 6.4 6.02021 -177113 -134675 -125755 49426.9 -8560.55 -33691.7 -7.40944 
16315 2 29.755 2.712 6.4 6.02179 -135021 -134877 -117982 18932.2 16584.8 -38132.3 -7.40933 
16316 2 30.475 1.491 6.4 6.02354 -139377 -167883 -122521 32622.6 -11913 -35735.8 -7.40953 
16317 2 29.776 0.257 6.4 6.02327 -130402 -131087 -121525 -16686.5 13696.1 -36417.1 -7.40911 
16511 2 31.829 8.871 6.4 6.02336 -149763 -146380 -102286 -25538.6 23624.1 -41955.9 -7.4106 
16512 2 32.549 7.649 6.4 6.0241 -127477 -135443 -126633 15624.7 -5171.38 -30407.7 -7.40916 
16513 2 31.85 6.415 6.4 6.02364 -138083 -133615 -106775 -12408 21738.2 -40674.8 -7.41014 
16514 2 32.57 5.193 6.4 6.02531 -130976 -136920 -123935 12927.3 -8638.47 -32699.1 -7.40886 
16515 2 31.871 3.959 6.4 6.0239 -184607 -131090 -111336 -18743.2 19418.1 -39156.8 -7.41045 
16516 2 32.591 2.737 6.4 6.02723 -140700 -149401 -120673 -783.92 -11917.6 -34794.5 -7.40948 
16517 2 31.893 1.503 6.4 6.02217 -148851 -164045 -115553 -18630.5 16716 -37452 -7.41034 
16518 2 32.612 0.281 6.4 6.02578 -147992 -157302 -116967 13556.8 -15000.7 -36708.8 -7.41022 
16712 2 34.665 8.895 6.4 6.02795 -136145 -151483 -125465 -1186.59 -5410.54 -29053 -7.4092 
16713 2 33.967 7.661 6.4 6.02463 -154472 -164444 -99394.1 -17653.3 23889.7 -41296.9 -7.41118 
16714 2 34.686 6.439 6.4 6.02795 -145354 -165311 -122524 10995.5 -8797.52 -31350.4 -7.40978 
16715 2 33.988 5.205 6.4 6.02796 -152436 -163062 -104391 -17820 21920.9 -39851.7 -7.41108 
16716 2 34.707 3.983 6.4 6.02302 -143947 -165109 -119026 12690.3 -12011.8 -33559.5 -7.41033 
16717 2 34.009 2.749 6.4 6.02508 -154287 -163501 -108916 -18203.4 19545.9 -38280.6 -7.41035 
16718 2 34.728 1.527 6.4 6.01911 -144706 -169009 -115182 17144.6 -15065.1 -35609.4 -7.41012 
16719 2 34.03 0.293 6.4 6.02412 -149319 -176272 -113206 -14971.6 16877.8 -36536 -7.41025 
16913 2 36.083 8.907 6.4 6.02364 -157994 -162944 -91353.3 -15048.5 25823.8 -41742.3 -7.41166 
16914 2 36.802 7.685 6.4 6.01969 -141815 -168279 -121512 17868.9 -8999.73 -29917.2 -7.40984 
16915 2 36.104 6.451 6.4 6.02508 -147988 -149315 -96747.3 -28020.5 24259.3 -40330.2 -7.41094 
16916 2 36.824 5.229 6.4 6.02367 -126947 -138798 -117810 16971 -12291.8 -32181.7 -7.40957 
16917 2 36.125 3.995 6.4 6.02354 -142433 -171489 -101818 2824.01 22219.2 -38827.4 -7.41063 
16918 2 36.845 2.774 6.4 6.02354 -136482 -173222 -113553 33117.2 -15392.9 -34226.7 -7.40993 
16919 2 36.146 1.54 6.4 6.02367 -132755 -136851 -106586 -14073.6 19906.2 -37124.1 -7.41026 
16920 2 36.866 0.318 6.4 6.02651 -142251 -145779 -108892 2728.14 -18224.2 -36154.2 -7.40994 
3848 1 39.067 8.26 3 6.0231 -139614 -137203 -85290.4 -14273.2 26650 -41094.5 -7.41145 
3849 1 38.347 7.038 3 6.0241 -129647 -138800 -118460 18080.6 -11378.1 -29656 -7.40919 
3850 1 39.046 5.804 3 6.0239 -137186 -138162 -91219.1 -10727.3 25206.8 -39674.3 -7.41109 
3851 1 38.326 4.582 3 6.02531 -130131 -137638 -114416 20640.1 -14521.5 -31799.9 -7.40968 
3852 1 39.025 3.348 3 6.0241 -182711 -134788 -96960.9 -10163.4 23277.6 -38150.8 -7.41144 
3853 1 38.305 2.126 3 6.02795 -141703 -150451 -109957 31930.8 -17460.7 -33785.5 -7.41016 
3854 1 39.003 0.892 3 6.02423 -146869 -162740 -102538 -8040.58 21003.8 -36425.2 -7.41097 
4048 1 41.204 9.469 3 6.02341 -155599 -167062 -77064 -13397 28362.6 -40726.1 -7.41274 
4049 1 40.485 8.247 3 6.02248 -140635 -169450 -117909 14011.3 -11760.4 -27897.3 -7.41014 
4050 1 41.183 7.013 3 6.02367 -163320 -199547 -83317.6 -29550.4 27196.4 -39417.1 -7.41246 
4051 1 40.464 5.792 3 6.01953 -142834 -170595 -113706 -19035.3 -14771.7 -30032.2 -7.41017 
4052 1 41.162 4.557 3 6.02066 -145348 -153874 -89449.2 -35927.3 25601.9 -38024.2 -7.41124 
4053 1 40.442 3.336 3 6.02215 -186283 -168353 -108723 -1085.38 -17731.5 -32137 -7.41092 
4054 1 41.141 2.102 3 6.0231 -132963 -141022 -95577.5 -14827.9 23539 -36483.7 -7.41072 
4055 1 40.421 0.88 3 6.02409 -132646 -133397 -103669 13920.3 -20482.3 -34042.4 -7.41008 
4249 1 42.622 9.457 3 6.02603 -126691 -139655 -117809 19405.6 -12123.7 -26082.6 -7.40948 
4250 1 43.321 8.223 3 6.0241 -139391 -138612 -75024.5 -8705.56 28963.7 -38945.8 -7.41228 
4251 1 42.601 7.001 3 6.02691 -136880 -152792 -113194 32685.1 -15161.3 -28184.7 -7.41007 
4252 1 43.299 5.767 3 6.02246 -152018 -170542 -81778.6 -9631.07 27662.6 -37532.5 -7.41224 
4253 1 42.58 4.545 3 6.02302 -146854 -167299 -108291 19803.3 -18077.5 -30216.8 -7.41064 
4254 1 43.278 3.311 3 6.02364 -151627 -169179 -88034.1 -12230.1 25994.7 -36034.3 -7.41183 
4255 1 42.559 2.089 3 6.02289 -144708 -169872 -102882 12873.4 -20782.5 -32082.9 -7.41106 
4256 1 43.257 0.855 3 6.02446 -155353 -197611 -94572.6 -27173.4 23999.9 -34436.4 -7.41165 
4450 1 45.458 9.433 3 6.02248 -157368 -169310 -66725.7 -12500.7 30428.6 -37997.8 -7.41316 
4451 1 44.739 8.211 3 6.0222 -143911 -170803 -113257 16863.5 -15444 -26133.8 -7.41009 
4452 1 45.437 6.977 3 6.02475 -147625 -155318 -73747.2 4503.02 29529.8 -36765.7 -7.41233 
4453 1 44.717 5.755 3 6.0241 -128797 -138733 -107970 18889.2 -18426.2 -28185.8 -7.41028 
4454 1 45.416 4.521 3 6.02498 -135217 -141504 -80681.5 -9404.95 28164.8 -35431.1 -7.41185 
4455 1 44.696 3.299 3 6.02603 -130221 -140804 -102339 18199.1 -21157.7 -30061.3 -7.41041 
4456 1 45.395 2.065 3 6.02411 -134180 -139495 -87412 -9129.82 26420.6 -33976.1 -7.41155 
4457 1 44.675 0.843 3 6.02555 -139815 -148003 -96403 28283.6 -23654 -31839.2 -7.41107 
4651 1 46.876 9.42 3 6.02279 -135102 -156328 -113721 25582.8 -15830.8 -24036 -7.40978 
4653 1 46.855 6.965 3 6.02097 -144463 -170586 -108356 -19147.1 -18632.3 -25982 -7.41049 
4655 1 46.834 4.509 3 6.02341 -152175 -202386 -102324 -3810.11 -21349.1 -27852 -7.41152 
4657 1 46.813 2.053 3 6.02197 -146332 -171265 -96241.6 13639.6 -23901.1 -29586.5 -7.41139 
17114 2 38.919 8.932 6.4 6.0241 -126515 -139043 -120639 15896 -9370.52 -28317.8 -7.40931 
17115 2 38.22 7.698 6.4 6.02367 -139164 -134967 -88543.6 -12514.3 26304.1 -40527.6 -7.41146 
17116 2 38.94 6.476 6.4 6.02508 -137439 -152400 -116775 1970.71 -12499.4 -30532.3 -7.40972 
17117 2 38.242 5.242 6.4 6.01969 -151864 -167109 -94326.6 -12569.3 24632.6 -39031.1 -7.41148 
17118 2 38.961 4.02 6.4 6.02508 -148427 -166902 -112425 12296.6 -15521.7 -32631.3 -7.41014 
17119 2 38.263 2.786 6.4 6.02302 -149565 -165219 -99732.3 -17921.1 22553.5 -37425.4 -7.41149 
17120 2 38.982 1.564 6.4 6.02796 -146473 -166405 -107655 11919 -18427.5 -34607.3 -7.4109 
17121 2 38.284 0.33 6.4 6.02714 -149374 -159570 -105031 -23406.9 20162.2 -35655.1 -7.41082 
17315 2 40.337 8.944 6.4 6.02463 -155436 -168058 -80565.6 -17005.5 28112.2 -40320 -7.41232 
17316 2 41.056 7.722 6.4 6.02795 -144477 -167261 -116413 10468.8 -12806.9 -28692.7 -7.41014 
17317 2 40.358 6.488 6.4 6.02795 -155682 -165870 -86732.4 -18898 26804.9 -38952.3 -7.41194 
17318 2 41.077 5.266 6.4 6.02217 -142816 -169317 -111758 11806 -15814.2 -30799.4 -7.41056 
17319 2 40.379 4.032 6.4 6.02723 -146340 -151359 -92644.4 -30725.8 25013.5 -37449.5 -7.41118 
17320 2 41.099 2.81 6.4 6.0239 -178434 -136504 -106626 10905.7 -18672.5 -32879.4 -7.41073 
17321 2 40.4 1.576 6.4 6.02531 -136452 -138205 -98173.1 -17731.4 22895.5 -35798.9 -7.41044 
17322 2 41.12 0.354 6.4 6.02417 -129097 -136177 -101274 19343.8 -21263.1 -34743.5 -7.41034 
17516 2 43.172 8.968 6.4 6.01969 -141050 -170167 -116395 16982.4 -13001.1 -26802.1 -7.41015 
17517 2 42.474 7.734 6.4 6.02508 -148921 -152947 -78366.6 -27009.3 28697.9 -38605.2 -7.41205 
17518 2 43.194 6.512 6.4 6.02367 -126034 -141024 -111550 16073.9 -16106.1 -28970.9 -7.40994 
17519 2 42.495 5.278 6.4 6.02354 -144748 -172368 -84718.7 3599.75 27299.8 -37158.3 -7.41179 
17520 2 43.215 4.057 6.4 6.02179 -128903 -141784 -106233 48259 -19007.7 -30891.9 -7.41004 
17521 2 42.516 2.822 6.4 6.02021 -182424 -138257 -91005.7 19713 25423.4 -35615.9 -7.41154 
17522 2 43.236 1.601 6.4 6.0231 -149080 -185725 -100524 19039.3 -21617.5 -32730.2 -7.41104 
17523 2 42.538 0.367 6.4 6.01889 -145042 -166397 -97157.5 -16053.6 23306.5 -33855.5 -7.41117 
17717 2 44.59 8.981 6.4 6.02367 -138660 -141436 -69888.9 -11363.1 30375.8 -37872.8 -7.41246 
17718 2 45.31 7.759 6.4 6.02508 -136647 -154577 -111744 695.036 -16303.7 -26837.8 -7.41003 