ITEM: TIMESTEP
229
ITEM: NUMBER OF ATOMS
18152
ITEM: BOX BOUNDS pp pp pp
0.0000000000000000e+00 1.1698915500000000e+02
0.0000000000000000e+00 2.0263116099999999e+02
0.0000000000000000e+00 1.8399999999999999e+01
ITEM: ATOMS id type x y z c_csym c_2[1] c_2[2] c_2[3] c_2[4] c_2[5] c_2[6] c_3 
187 1 0.877883 8.57934 7.38634 6.01801 -168680 -149983 -3233.02 -16887.4 12016.5 -2972.96 -7.41378 
188 1 0.145741 7.36534 7.38333 6.02412 -155466 -163633 2320.01 -11722.7 13680.2 -1292.05 -7.41394 
189 1 0.830591 6.12391 7.38087 6.02268 -165295 -152884 -1017.92 -8145.42 8256.9 -2472 -7.41369 
190 1 0.0978232 4.91024 7.3788 6.02651 -156318 -161987 874.731 -4846.52 8066.73 -869.004 -7.4137 
191 1 0.78224 3.6686 7.37733 6.02589 -162586 -155553 26.179 -3035.64 4748.15 -1867.13 -7.41361 
192 1 0.049096 2.45513 7.37618 6.02845 -157780 -160611 378.98 -1170.99 3584.1 -445.88 -7.41359 
193 1 0.733302 1.21339 7.37561 6.02867 -160120 -157785 317.643 -568.277 1507.09 -1246.4 -7.41356 
194 1 1.80054e-06 -7.25528e-07 7.37533 6.02993 -158977 -158949 326.698 95.0922 0.0478853 -0.0274048 -7.41356 
353 1 2.2954 8.55109 7.38699 6.01989 -163014 -156236 2736.75 -13913.8 16529.4 -3926.28 -7.4141 
354 1 2.98029 7.30963 7.38452 6.02009 -173878 -144822 -938.176 -11643.5 10172.2 -7280.1 -7.41383 
355 1 2.24809 6.09563 7.38149 6.02307 -161000 -157390 889.515 -5355.44 10353 -3593.87 -7.41381 
356 1 2.93253 4.85396 7.37999 6.0237 -168233 -150112 262.262 -4937.93 6507.8 -6100.76 -7.41372 
357 1 2.19972 3.64029 7.37791 6.02563 -159938 -158344 214.069 -248.027 5245.91 -3268.03 -7.41365 
358 1 2.88393 2.39854 7.37733 6.02691 -163409 -154925 517.552 -1326.94 3077.5 -4943.14 -7.41364 
359 1 2.15077 1.18507 7.37618 6.02745 -159309 -159012 214.791 1988.41 1204.42 -3013.81 -7.41358 
518 1 5.12916 8.49614 7.39007 6.01721 -185465 -133722 404.014 -13978.5 12482.4 -12816.8 -7.41408 
519 1 4.39776 7.28166 7.38607 6.01731 -168924 -150039 -121.853 -4660.43 12941.5 -6381.37 -7.41393 
520 1 5.08224 6.03996 7.38455 6.02106 -176841 -141917 1488.4 -5450.69 8831.31 -11196.5 -7.41394 
521 1 4.34999 4.82594 7.38148 6.02156 -164758 -153521 -737.297 2005.34 7193.84 -6223.77 -7.41373 
522 1 5.03423 3.58417 7.3809 6.02462 -169236 -149384 1425.61 -528.303 5212.19 -9530.79 -7.41381 
523 1 4.3014 2.37048 7.37879 6.02441 -161575 -156560 -433.156 5399.68 2497.44 -6126.83 -7.41365 
524 1 4.9856 1.12873 7.37909 6.02547 -162155 -156013 665.493 1613.91 1683.49 -8029.5 -7.41371 
683 1 6.54658 8.46876 7.39253 6.01 -180015 -139476 -2546.14 -2542.61 15623.7 -9085.74 -7.41405 
684 1 7.23111 7.22702 7.39106 6.01722 -188376 -130782 4149.33 -4410.07 11500.4 -17025 -7.41431 
685 1 6.49967 6.01249 7.38698 6.01568 -172801 -145948 -2889.58 5820.33 9403.23 -9301.57 -7.41383 
686 1 7.18395 4.77069 7.38641 6.02199 -177730 -141068 3529.74 2096.29 7871.55 -15042.6 -7.41411 
687 1 6.45167 3.55663 7.38329 6.0201 -166750 -151793 -2057.68 10720.4 4030.35 -9472.01 -7.41373 
688 1 7.13591 2.31488 7.38362 6.02291 -168092 -150748 1987.45 5420.23 4184.61 -13108.5 -7.41394 
689 1 6.40306 1.10114 7.38148 6.02221 -161335 -157024 -564.763 12622.6 -441.396 -9771.2 -7.41374 
848 1 9.37887 8.41563 7.3993 6.01043 -203218 -116500 8551.37 -1491.22 14172.6 -23111 -7.41483 
849 1 8.6485 7.20041 7.39433 6.00836 -183748 -135153 -6580.39 11451.7 11630.9 -12199.7 -7.4139 
850 1 9.33283 5.95858 7.3938 6.01675 -189692 -129746 7224.23 6782.4 10817.8 -21111.4 -7.41457 
851 1 8.60136 4.74398 7.38971 6.01491 -174605 -143946 -5043.4 17963.1 5740.69 -12839.8 -7.41381 
852 1 9.28564 3.50221 7.39007 6.02001 -176924 -142356 4705.35 11494 7156.91 -18965.3 -7.41431 
853 1 8.55335 2.28808 7.38695 6.0185 -166473 -152148 -2562.65 21182.9 622.28 -13473.6 -7.41383 
854 1 9.23778 1.04647 7.38822 6.01668 -164659 -154329 1501.91 13278.1 3306.73 -16898.7 -7.41409 
1013 1 10.7962 8.39016 7.40319 6.0002 -198053 -121306 -12015.4 18781.4 13526.2 -14512.4 -7.41393 
1014 1 11.4806 7.14832 7.40271 6.01008 -204027 -115511 12715.9 13587.1 13723.4 -27094.7 -7.4152 
1015 1 10.7502 5.933 7.39782 6.00801 -185955 -132996 -9675.81 27292 7390.12 -15808.4 -7.41386 
1016 1 11.4345 4.69123 7.3982 6.01619 -188660 -131015 9142.51 19981.5 10356.6 -25028.1 -7.41485 
1017 1 10.703 3.47653 7.39421 6.01384 -174671 -144285 -6076.74 32096.6 1775.15 -16943.3 -7.41391 
1018 1 11.3875 2.23494 7.39549 6.01244 -173573 -146045 4577.16 23077 6624.63 -22813.4 -7.41452 
1019 1 10.6552 1.02072 7.39247 6.0157 -163866 -154996 -1773.99 33765.6 -3180.22 -18077.6 -7.41406 
1178 1 13.627 8.34033 7.41253 6.00245 -220138 -99164.2 19951.2 21954.8 16282.8 -32307.9 -7.41598 
1179 1 12.8979 7.12414 7.40712 6.00036 -199741 -119448 -16067.5 38081.4 8695.67 -17967 -7.41384 
1180 1 13.5823 5.8824 7.40747 6.00977 -202680 -117062 15395.1 30486.7 13476.8 -30582.7 -7.41556 
1181 1 12.8519 4.66697 7.40285 6.00857 -185798 -133459 -11333 44946.1 2823.51 -19717.3 -7.41394 
1182 1 13.5365 3.42541 7.40409 6.00835 -185187 -134864 9476.45 35238.1 10098.1 -28489 -7.41512 
1183 1 12.8049 2.2106 7.40037 6.01214 -172193 -147257 -5543.26 48204.2 -2542.83 -21309.2 -7.41414 
1184 1 13.4899 0.96934 7.40251 6.00356 -167667 -152438 2778.32 36744.2 6290.92 -26189.9 -7.41471 
1343 1 15.0443 8.31777 7.41691 5.99278 -215112 -103766 -24082.7 49683.9 9456.11 -19089.1 -7.41373 
1344 1 15.7289 7.07608 7.41718 6.00267 -217989 -101235 23283.3 42242.7 16247 -35013.6 -7.41639 
1345 1 14.9996 5.85979 7.41221 6.0022 -199100 -120166 -18342.4 58920.9 3575.6 -21454.8 -7.41388 
1346 1 15.6844 4.6183 7.41334 6.0037 -198742 -121189 16185.7 49101.3 13441.7 -33260.3 -7.41586 
1347 1 14.9538 3.40276 7.4092 6.00879 -183082 -136534 -11145.8 64203 -2005.99 -23552 -7.41415 
1348 1 15.6389 2.16157 7.41121 5.99858 -179065 -141233 7896.69 52264.6 10064 -31093.8 -7.41532 
1349 1 14.9073 0.946649 7.40794 6.00648 -167018 -152741 -3123.81 65831.1 -7075.99 -25470.6 -7.41452 
1508 1 17.874 8.27251 7.42657 5.99544 -233166 -84680.1 32378.2 54316.1 18488.3 -37966.7 -7.4173 
1509 1 17.1461 7.05528 7.42154 5.99555 -213694 -105432 -26846.3 73028.1 3929.22 -22051.7 -7.41373 
1510 1 17.8311 5.81389 7.42245 5.99818 -213180 -106130 24413.9 63670.6 16414.3 -36669.9 -7.4167 
1511 1 17.1016 4.59751 7.41818 6.0046 -195943 -123759 -18486.1 80732.1 -1672.84 -24600.1 -7.41407 
1512 1 17.7869 3.35642 7.41998 5.99443 -192251 -127935 14813.1 68915.7 13627.5 -34820.1 -7.41607 
1513 1 17.0563 2.14078 7.41653 6.00229 -177789 -142177 -8865.37 84351.5 -6886.96 -26880.7 -7.41452 
1514 1 17.7421 0.900095 7.41917 5.98844 -170584 -149895 4229.64 70374.5 10256.2 -32509.4 -7.41542 
1673 1 19.2912 8.25356 7.43017 5.9896 -227966 -89992.1 -36349.8 86275.3 3899.58 -21628.5 -7.4135 
1675 1 19.2483 5.79504 7.4266 5.99987 -209466 -109640 -27196.6 96675.5 -1569.09 -24493 -7.41389 
1677 1 19.2042 3.33764 7.42473 5.99893 -190197 -129756 -16328.3 102701 -6797.29 -27056 -7.41441 
1679 1 19.1595 0.881337 7.4245 5.99222 -170213 -149951 -4451.95 104431 -11527.8 -29352.4 -7.41502 
1674 1 19.9764 7.01234 7.43077 5.99321 -227184 -90462.7 33661 77873.2 18857.4 -38554.8 -7.41761 
1676 1 19.9338 4.5541 7.4281 5.98984 -205926 -113356 23153.1 85525.9 16768.7 -37111.1 -7.41689 
1678 1 19.8902 2.09708 7.42711 5.98405 -183601 -136787 11192.2 89045.5 13998.4 -35100.9 -7.41614 
1838 1 22.1205 8.21362 7.43788 5.98726 -239746 -75538.9 43343.9 90731.9 20696.9 -39015.7 -7.41851 
1839 1 21.3936 6.9954 7.43391 5.99479 -222591 -95516.4 -36719.2 110947 -1650.4 -23451.2 -7.41363 
1840 1 22.0794 5.75465 7.43504 5.98477 -219132 -98627.6 32375.9 101093 19351.9 -37976.2 -7.41775 
1841 1 21.351 4.53732 7.43191 5.99649 -202934 -116313 -25058.3 119651 -6789.86 -26171.6 -7.4142 
1842 1 22.0373 3.29693 7.43397 5.98087 -196879 -122572 19518.3 106963 17242.7 -36338.1 -7.41692 
1843 1 21.3075 2.0804 7.43163 5.98838 -182342 -137571 -11916.4 123713 -11529.7 -28609.4 -7.41488 
1844 1 21.9944 0.840479 7.43446 5.97427 -173272 -146899 5467.58 108560 14458.5 -34150.8 -7.41607 
2003 1 23.5376 8.19851 7.43986 5.99044 -234138 -81989.7 -46453.6 122930 -1836.17 -21767.6 -7.41332 
2004 1 24.2238 6.95799 7.44055 5.98063 -230706 -84670 41907.5 114656 21321.3 -37616.7 -7.41861 
2005 1 23.4966 5.73979 7.43771 5.99322 -215124 -103006 -34468.6 134321 -6818.18 -24516.3 -7.41391 
2006 1 24.1832 4.49961 7.4394 5.97705 -209472 -108413 28645.9 123142 19888.2 -36348 -7.41773 
2007 1 23.4545 3.28225 7.43742 5.98565 -194671 -124612 -20575.4 141019 -11515.8 -26994.7 -7.41464 
2008 1 24.1417 2.0425 7.44 5.97131 -186656 -132926 13743.1 127048 17728.4 -34518.8 -7.4168 
2009 1 23.4118 0.825897 7.43871 5.97801 -173000 -146515 -5517.35 142882 -15662.3 -29215.3 -7.41547 
2168 1 26.367 8.16395 7.44467 5.9775 -240053 -72203.2 51257.2 125813 22683.6 -36319.9 -7.41942 
2169 1 25.6409 6.94491 7.44203 5.98978 -225610 -90550 -43989.4 146224 -6828.87 -22390.7 -7.41358 
2170 1 26.328 5.70497 7.44334 5.97311 -220534 -95154.5 38022.3 136871 21907.3 -35370.6 -7.41852 
2171 1 25.6004 4.4868 7.44169 5.98397 -206171 -111869 -29842.6 155569 -11447.3 -24820.7 -7.41432 
2172 1 26.2879 3.24724 7.44399 5.9695 -198975 -119121 22783.7 143275 20366.6 -33895.5 -7.41755 
2173 1 25.559 2.02986 7.44315 5.97526 -185372 -133754 -14092.8 159986 -15605.5 -27008.2 -7.41519 
2174 1 26.2471 0.79078 7.4462 5.96291 -175729 -143609 6242.45 145065 18112.3 -31928.3 -7.41654 
2333 1 27.7841 8.15247 7.44506 5.98717 -233955 -79677 -53172.6 155185 -6781.85 -20044.1 -7.41323 
2334 1 28.4716 6.91281 7.44596 5.97021 -229465 -83508.8 47196.9 147863 23328 -33674.3 -7.41928 
2335 1 27.7451 5.69386 7.44451 5.98207 -216108 -100203 -39187.6 167066 -11293.6 -22360.8 -7.41396 
2336 1 28.433 4.45453 7.44653 5.96661 -209847 -106330 32058.5 156815 22378.3 -32511.7 -7.41828 
2337 1 27.7051 3.23638 7.44604 5.97359 -196515 -121367 -23250.6 174089 -15450.4 -24461.3 -7.41483 
2338 1 28.3935 1.99747 7.44895 5.9614 -188249 -129911 15238.3 161022 20702.2 -30892.6 -7.41723 
2339 1 27.6644 0.780065 7.44916 5.96571 -175430 -142880 -6090.34 176080 -19002.6 -26350.2 -7.41581 
2498 1 30.6142 8.12286 7.44763 5.96823 -235784 -73712.5 55863.1 156045 24213.2 -31504.2 -7.41999 
2499 1 29.8887 6.90319 7.44619 5.97955 -223878 -90000.3 -48213.3 175515 -11037.9 -19816.5 -7.41359 
2500 1 30.577 5.66411 7.44791 5.96394 -218528 -95098.9 41150.6 167409 23814.9 -30593.4 -7.41899 
2501 1 29.8501 4.44525 7.44759 5.97284 -206194 -110127 -32501 185051 -15178.4 -21795.7 -7.41444 
2502 1 30.5388 3.20653 7.45033 5.95989 -199072 -117391 24476.7 174104 22684.6 -29284.6 -7.41792 
2503 1 29.8107 1.98841 7.4509 5.96419 -186834 -130798 -15196.4 189647 -18803.1 -23582.7 -7.41542 
2504 1 30.5001 0.750137 7.45433 5.95418 -177615 -140194 6515.49 176113 20844.5 -27606.7 -7.41682 
2663 1 32.0312 8.11455 7.44714 5.97783 -229199 -81741.2 -56669.9 181048 -10677.4 -17317.8 -7.41323 
2664 1 32.72 6.87575 7.44856 5.96218 -224942 -85786.2 49784.1 175176 24749.6 -28334.3 -7.41966 
2665 1 31.9941 5.65622 7.44819 5.97266 -213682 -100438 -41485.8 192961 -14781.7 -19155.7 -7.41405 
2666 1 32.6832 4.41773 7.45074 5.95872 -207959 -106463 33573.2 184259 24125.2 -27282.8 -7.41859 
2667 1 31.956 3.19894 7.45144 5.96357 -196402 -119859 -24435.1 200063 -18470.5 -20828.3 -7.415 
2668 1 32.6456 1.96082 7.45481 5.95275 -188798 -127816 15765.4 188711 22803.2 -25911 -7.41747 
2669 1 31.9174 0.742699 7.45627 5.95602 -177343 -139532 -6198.76 202212 -21525.2 -22333.6 -7.41606 
2828 1 34.8622 8.08917 7.44894 5.9612 -228614 -78589.5 57812.1 180236 25262.5 -25887.4 -7.42027 
2829 1 34.1371 6.86905 7.4483 5.97106 -218960 -92631.1 -49981 198006 -14263.1 -16625.2 -7.41366 
2830 1 34.8267 5.6308 7.45064 5.95712 -214324 -97383.6 42277.7 191623 25103.2 -25036.2 -7.41923 
2831 1 34.1004 4.41139 7.45122 5.96361 -203984 -110429 -33474.3 207503 -17998.7 -18177.2 -7.41457 
2832 1 34.7903 3.17345 7.45447 5.95217 -197722 -116997 24924.7 198447 24259.2 -23922.6 -7.41811 
2833 1 34.0629 1.95471 7.45602 5.95552 -187185 -128710 -15474.8 212169 -21184.2 -19580.3 -7.4156 
2834 1 34.7533 0.717155 7.4598 5.94698 -178863 -136983 6385.46 200706 22731.7 -22572.1 -7.41697 
2993 1 36.2793 8.08347 7.44838 5.97018 -221594 -86774.4 -57873.7 200529 -13632.2 -14248.7 -7.41329 
2994 1 36.9693 6.84549 7.45049 5.95626 -218335 -90375.4 50456.2 196358 25696.5 -22662.2 -7.41982 
2995 1 36.2438 5.62553 7.45071 5.96412 -209165 -102913 -42107.4 212231 -17390 -15673.9 -7.41415 
2996 1 36.9341 4.3878 7.4538 5.9522 -204519 -108120 33762.5 205481 25290.3 -21755.3 -7.41873 
2997 1 36.2075 3.16849 7.45517 5.95567 -194863 -119607 -24622.8 219315 -20691.6 -16975.9 -7.41514 
2998 1 36.8982 1.93107 7.45888 5.94647 -188506 -126472 15621.2 210080 24223.7 -20656.6 -7.41759 
2999 1 36.1706 0.712351 7.46109 5.94882 -178574 -136495 -6042.26 221563 -23351.7 -18146.7 -7.41622 
3159 1 38.3864 6.84112 7.45037 5.96431 -212059 -97381.6 -50226.9 214472 -16652.8 -13338.7 -7.41376 
3161 1 38.3512 4.3838 7.4542 5.95624 -200331 -112208 -33445.1 223813 -20047.7 -14537.5 -7.41469 
3163 1 38.3154 1.9273 7.45973 5.94902 -186775 -127446 -15300.7 228516 -22878.9 -15623.7 -7.41573 
3158 1 39.1112 8.06154 7.45067 5.95605 -219722 -85536.7 58061.1 198728 25973.7 -20247.8 -7.42038 
3160 1 39.0771 5.60361 7.45325 5.95223 -208697 -101240 42158.5 210010 25968.2 -19500.3 -7.41931 
3162 1 39.0422 3.14654 7.45776 5.94655 -195379 -117617 24613.8 216889 25322.8 -18607.6 -7.41819 
3164 1 39.0067 0.690348 7.46359 5.94209 -179780 -134378 6015.33 219305 24024.3 -17589.5 -7.41705 
3323 1 40.5284 8.05791 7.45052 5.96412 -212380 -93749.7 -57795.8 214545 -15798.5 -11180.8 -7.41339 
3324 1 41.2195 6.82065 7.45319 5.95204 -210460 -96393.7 50065.8 212219 26353.3 -17225.1 -7.41987 
3325 1 40.4943 5.60041 7.45353 5.9571 -203288 -106823 -41836.1 225976 -19258.8 -12269.1 -7.41426 
3326 1 41.1856 4.36333 7.45689 5.94681 -200063 -110831 33247.9 221305 26092.9 -16495.6 -7.41877 
3327 1 40.4594 3.14363 7.45838 5.94962 -192324 -120249 -24311.4 232960 -22242.5 -13270.2 -7.41525 
3328 1 41.151 1.9068 7.46209 5.94211 -187432 -125671 15137.9 226013 25204.8 -15675.1 -7.41763 
3329 1 40.424 0.687588 7.46448 5.94367 -179320 -133791 -5792.15 235314 -24594.1 -14171.9 -7.41633 
3488 1 43.3613 8.03868 7.45383 5.95239 -209779 -93590 57480.1 212361 26493.3 -14974.9 -7.4204 
3489 1 42.6367 6.81809 7.45347 5.95815 -203955 -103389 -49753.1 226014 -18334.8 -10171.8 -7.41386 
3490 1 43.3284 5.58121 7.45659 5.94714 -202230 -106041 41474.2 223516 26587.1 -14373.5 -7.41932 
3491 1 42.6027 4.36113 7.45742 5.9505 -195725 -114965 -32970.7 235170 -21447.5 -11080.9 -7.41479 
3492 1 43.2946 3.12443 7.46091 5.94256 -192506 -118986 23985.5 230409 26074.7 -13712.3 -7.4182 
3493 1 42.5682 1.90481 7.46277 5.94427 -185652 -126817 -14948.3 239857 -23999.1 -11909.9 -7.41583 
3494 1 43.2603 0.668335 7.4663 5.93896 -180404 -132133 5566.24 232985 24934.8 -13003.6 -7.41707 
3653 1 44.7785 8.03663 7.45421 5.95915 -202232 -101767 -57192.5 224144 -17287.4 -8244.72 -7.41349 
3654 1 45.4706 6.79997 7.45706 5.94759 -201932 -103193 49281.6 223678 26845.5 -12274.3 -7.41986 
3655 1 44.7455 5.57957 7.45714 5.95155 -196651 -111585 -41231 235310 -20501.2 -9052.51 -7.41436 
3656 1 45.4377 4.34303 7.46037 5.94284 -195056 -114185 32509 232720 26678.8 -11741.7 -7.41876 
3657 1 44.7118 3.12306 7.46153 5.94511 -189295 -121582 -23832 242218 -23235.5 -9803.2 -7.41534 
3658 1 45.4041 1.88668 7.46484 5.9393 -185960 -125433 14571.6 237513 25908.6 -11182.9 -7.41764 
3659 1 44.6776 0.667101 7.46692 5.94016 -179845 -131618 -5527.07 244691 -25357.1 -10483.8 -7.41641 
3818 1 47.6125 8.01939 7.4584 5.9482 -199244 -102199 56675.5 221978 26897.4 -10213.9 -7.42037 
3819 1 46.8878 6.79874 7.4577 5.95256 -195228 -110053 -49077 233594 -19414 -7182.08 -7.41396 
3820 1 47.5803 5.56238 7.46064 5.94323 -195259 -111357 40686.1 233032 27053 -9786.53 -7.4193 
3821 1 46.8549 4.34214 7.46102 5.94613 -190575 -118295 -32391.9 242585 -22309.1 -7845.6 -7.41488 
3822 1 47.5474 3.10588 7.46405 5.93967 -189072 -120751 23333.2 239977 26625.1 -9350.38 -7.41819 
3823 1 46.8213 1.88599 7.46541 5.94094 -184057 -126648 -14562.4 247315 -24656.3 -8456.57 -7.4159 
3824 1 47.514 0.649879 7.46826 5.93716 -180594 -130297 5142.96 242717 25588.3 -8910.07 -7.41708 
3983 1 49.0298 8.01846 7.45914 5.95336 -191600 -110402 -56510.1 230069 -18198.5 -5464.15 -7.41358 
3984 1 49.7226 6.78229 7.4618 5.94375 -193053 -110435 48508.9 231477 27223.7 -7855.55 -7.41983 
3985 1 48.9975 5.56184 7.46138 5.94713 -189590 -116909 -40605.6 241090 -21227.8 -6032.32 -7.41444 
3986 1 49.6903 4.32572 7.4641 5.93996 -189692 -118014 31823.6 240525 27115.3 -7521.92 -7.41874 
3987 1 48.9646 3.1056 7.46466 5.94187 -185821 -123512 -23355 247992 -23785.6 -6566.21 -7.41541 
3988 1 49.6575 1.86956 7.46723 5.93759 -184214 -125793 14062.9 245434 26418.7 -7194.86 -7.41763 
3989 1 48.9313 0.649717 7.46868 5.93793 -180056 -130181 -5266.25 250615 -25752.4 -7054.68 -7.41646 
4148 1 51.8647 8.00255 7.46382 5.94443 -188411 -111259 55978.7 228164 27207.8 -5945.89 -7.42034 
4149 1 51.1399 6.78197 7.46263 5.94788 -186227 -117274 -48464.9 237849 -20000.8 -4357.27 -7.41403 
4150 1 51.833 5.546 7.46505 5.94034 -187887 -117104 40028.5 239231 27402.1 -5700.54 -7.41927 
4151 1 51.1075 4.32572 7.46479 5.94282 -185091 -122163 -31874.3 246807 -22749.1 -4806.94 -7.41494 
4152 1 51.8006 3.08978 7.46706 5.93773 -185222 -123086 22793 246262 27025.9 -5469.91 -7.41817 
4153 1 51.0747 1.86974 7.4677 5.93873 -182201 -127144 -14205.5 251641 -24965.3 -5224.98 -7.41594 
4154 1 51.7678 0.633875 7.46965 5.93638 -180312 -129184 4782.35 249185 26052.3 -5254.16 -7.41707 
4313 1 53.282 8.00234 7.46473 5.94874 -180634 -119430 -55964.3 232904 -18640.3 -2811.7 -7.41364 
4314 1 53.9755 6.76654 7.46689 5.94087 -183781 -118047 47933.9 236156 27503.3 -3880.3 -7.4198 
4315 1 53.2502 5.54616 7.46583 5.94348 -182127 -122770 -40102.4 243900 -21552.9 -3170.78 -7.41449 
4316 1 53.9435 4.31034 7.46781 5.93795 -183932 -122392 31307 245300 27431.3 -3733.8 -7.41871 
4317 1 53.2178 3.09018 7.46761 5.93961 -181914 -126107 -22952.5 250865 -24005.4 -3511.81 -7.41545 
4318 1 53.9111 1.85438 7.46927 5.93654 -182026 -126801 13661 250384 26778.5 -3606.88 -7.41761 
4319 1 53.185 0.634392 7.46991 5.93666 -179699 -129351 -5012.44 253632 -25884.8 -3825.53 -7.41649 
4478 1 56.1179 7.98717 7.46953 5.94157 -177255 -120773 55530.4 231405 27429.9 -2049.57 -7.42031 
4479 1 55.3928 6.76675 7.46775 5.94424 -176912 -125129 -48029.1 239304 -20204.2 -1648.64 -7.41407 
4480 1 56.0864 5.53107 7.46946 5.93832 -180164 -123481 39587.3 242597 27650.5 -1978.38 -7.41925 
4481 1 55.3608 4.31085 7.46845 5.94012 -179296 -126828 -31482.6 248348 -22873.9 -1906.72 -7.41498 
4482 1 56.0542 3.07512 7.46983 5.93656 -181045 -126233 22403.5 249792 27304.6 -1930.08 -7.41816 
4483 1 55.3283 1.85506 7.46963 5.93742 -179997 -128521 -13900.1 253306 -25024.1 -2147.41 -7.41597 
4484 1 56.0217 0.619335 7.47057 5.93617 -179819 -129008 4484.6 252895 26365 -1903.02 -7.41706 
4643 1 57.5353 7.98729 7.47044 5.94513 -169347 -129176 -55642.3 232987 -18711.2 -230.622 -7.41367 
4644 1 58.2292 6.75177 7.47194 5.93884 -174018 -126315 47616.4 238106 27694 -191.309 -7.41978 
4645 1 57.5037 5.53156 7.47019 5.94075 -174300 -129414 -39775.2 244106 -21572.8 -399.612 -7.41452 
4646 1 58.1973 4.29594 7.4713 5.93673 -177694 -127489 30986.4 247471 27644.1 -214.179 -7.4187 
4647 1 57.4714 3.07586 7.47028 5.93778 -177627 -129481 -22651.1 251234 -23982.5 -561.198 -7.41548 
4648 1 58.1649 1.84018 7.47095 5.93588 -179365 -128656 13367.5 252742 27013 -260.65 -7.4176 
4649 1 57.4389 0.620172 7.4707 5.9362 -179111 -129481 -4767.4 254182 -25829.1 -706.427 -7.41651 
4807 1 59.6778 9.20762 7.47375 5.94618 -159998 -135068 -62928.5 225018 -17084.3 1091.86 -7.4133 
4808 1 60.3721 7.97228 7.47509 5.93954 -165751 -131030 55373.3 231926 27568.6 1641.75 -7.4203 
4809 1 59.6465 6.75214 7.47272 5.94151 -167092 -133819 -47812 238155 -20105.2 1018.62 -7.41409 
4810 1 60.3404 5.51664 7.47362 5.93707 -172095 -130640 39382.5 243373 27808.1 1553.54 -7.41924 
4811 1 59.6146 4.2966 7.47184 5.93825 -173033 -132385 -31239 247397 -22756.9 943.213 -7.415 
4812 1 60.3082 3.061 7.47225 5.93562 -176563 -130191 22168.1 250854 27476.1 1440.1 -7.41814 
4813 1 59.5821 1.84101 7.47119 5.93645 -177295 -130770 -13651.8 252579 -24894.4 876.719 -7.41599 
4814 1 60.2756 0.605338 7.47109 5.93566 -178949 -129685 4240.7 254186 26545.4 1301.63 -7.41704 
4972 1 62.5151 9.19241 7.47872 5.94048 -155234 -137440 62834 223914 27275.6 3536.62 -7.42081 
4973 1 61.7895 7.97239 7.47587 5.94243 -157773 -139949 -55573 230406 -18474.7 2354.06 -7.41368 
4974 1 62.4837 6.73704 7.47663 5.93733 -163910 -135499 47566.5 237472 27802.2 3386.23 -7.41977 
4975 1 61.7578 5.51712 7.47421 5.93886 -166174 -137025 -39639.8 241813 -21344 2374.1 -7.41453 
4976 1 62.4516 4.2816 7.47441 5.93549 -171142 -133541 30859.4 247158 27762.4 3211.15 -7.41869 
4977 1 61.7254 3.06171 7.47258 5.93674 -173129 -133934 -22456.1 249203 -23763.9 2394.81 -7.41549 
4978 1 62.419 1.82607 7.47223 5.9352 -176485 -131506 13173.1 252740 27131.1 3008.9 -7.41758 
4979 1 61.6928 0.606148 7.4711 5.93609 -178239 -130622 -4529.2 252404 -25621.4 2425.64 -7.41652 
5137 1 63.9327 9.19215 7.47942 5.94359 -146386 -147890 -63029.7 220915 -16687 3607.53 -7.41329 
5138 1 64.6272 7.95698 7.48011 5.93779 -153689 -142239 55504.8 229775 27627.2 5298.57 -7.4203 
5139 1 63.9011 6.73722 7.47722 5.93964 -156880 -143533 -47824 234401 -19741 3734.56 -7.41409 
5140 1 64.5952 5.50182 7.47727 5.93555 -163536 -138722 39408.5 241638 27877.2 5064.73 -7.41923 
5141 1 63.8689 4.28207 7.47479 5.93717 -166381 -138867 -31147.7 243972 -22428.2 3853.92 -7.415 
5142 1 64.5625 3.04649 7.47422 5.93489 -171542 -135041 22078.2 249483 27540.1 4803.9 -7.41813 
5143 1 63.8362 1.8267 7.47232 5.93619 -174317 -133983 -13458.8 249448 -24598.4 3976.83 -7.416 
5144 1 64.5296 0.590985 7.47118 5.9358 -177572 -131288 4041.95 253117 26589 4511.69 -7.41702 
5302 1 66.771 9.17626 7.48375 5.93854 -141387 -150802 63143.9 220176 27280.6 7307.42 -7.42082 
5303 1 66.0447 7.95672 7.4806 5.94065 -145708 -151926 -55754 225114 -17947.3 5020.76 -7.41367 
5304 1 66.7391 6.72146 7.4806 5.93584 -153494 -145811 47768.3 234230 27823.2 7013.6 -7.41977 
5305 1 66.0126 5.50192 7.47763 5.93779 -157617 -145813 -39692.2 236911 -20877.9 5254.1 -7.41452 
5306 1 66.7064 4.26642 7.47692 5.93476 -164280 -140633 30915.5 244362 27777 6696.52 -7.41868 
5307 1 65.9798 3.04683 7.47436 5.93634 -168102 -139359 -22360.7 244641 -23355.9 5483.27 -7.41549 
5308 1 66.6733 1.81114 7.47299 5.9353 -173223 -135263 13070.5 250303 27117.2 6347.44 -7.41757 
5309 1 65.9468 0.591418 7.47104 5.93603 -176851 -132710 -4288 248142 -25263.5 5717.34 -7.41653 
5467 1 68.1886 9.17545 7.48401 5.94195 -132471 -162011 -63376.1 213947 -15964.8 6220.56 -7.41326 
5469 1 68.1565 6.72108 7.48083 5.93864 -146372 -154430 -48044.4 227918 -19104.1 6586.84 -7.41406 
5471 1 68.1237 4.26634 7.47701 5.9367 -159447 -146487 -31192.6 237895 -21877.3 6940.99 -7.41498 
5473 1 68.0905 1.81122 7.47288 5.93593 -171022 -138239 -13308.3 243713 -24124.3 7292.9 -7.41599 
5468 1 68.8833 7.94035 7.48405 5.93644 -141161 -154592 55878.8 224912 27594.3 9074.43 -7.42031 
5470 1 68.8506 5.48568 7.48005 5.93486 -154462 -147911 39635.8 237279 27841.7 8699.22 -7.41923 
5472 1 68.8173 3.03069 7.47549 5.93497 -166148 -140990 22116.5 245556 27471.6 8295.41 -7.41811 
5474 1 68.7837 0.575361 7.47075 5.93673 -175909 -133935 3880.81 249511 26459.2 7850.75 -7.417 
5632 1 71.028 9.15831 7.48717 5.93746 -127154 -165285 63637.5 213562 27179.9 11270.4 -7.42082 
5633 1 70.3009 7.93935 7.484 5.93981 -133161 -165046 -56130.6 216884 -17102.3 7833.33 -7.41363 
5634 1 70.9952 6.70409 7.48326 5.93533 -142519 -157089 48157.5 228210 27730.4 10827.8 -7.41977 
5635 1 70.268 5.48506 7.47999 5.93748 -148476 -155588 -39897.5 229166 -20146 8335.77 -7.41449 
5636 1 70.9617 4.24948 7.4784 5.93493 -156852 -148687 31118.1 238817 27652 10366 -7.41867 
5637 1 70.2346 3.0303 7.47531 5.93615 -162617 -145756 -22340.7 237254 -22731.4 8828.18 -7.41547 
5638 1 70.9278 1.79445 7.47301 5.93627 -169424 -139938 13044.1 245152 26922.8 9866.62 -7.41754 
5639 1 70.2009 0.575059 7.47039 5.93653 -175045 -135572 -4028.31 241044 -24731.2 9316.35 -7.41653 
5797 1 72.4457 9.15656 7.48666 5.94139 -118309 -177340 -63842.9 203898 -14872.6 8966.29 -7.41321 
5798 1 73.1403 7.92146 7.48608 5.93623 -128506 -168092 56357.5 217037 27431.7 13106.5 -7.4203 
5799 1 72.4128 6.70278 7.48288 5.93865 -135472 -166527 -48390 218348 -18147.8 9642.58 -7.41402 
5800 1 73.1066 5.4673 7.48132 5.93524 -145194 -158185 39978.4 229970 27654.2 12575.9 -7.41921 
5801 1 72.3791 4.24847 7.47802 5.93677 -152062 -155193 -31320.9 228760 -21059.8 10302.6 -7.41495 
5802 1 73.0724 3.01266 7.47563 5.93608 -160532 -147948 22237.7 238691 27210.9 12017.3 -7.41809 
5803 1 72.3451 1.79361 7.47256 5.93662 -167252 -143425 -13169.9 234874 -23432.9 10950.5 -7.41598 
5804 1 73.0378 0.55751 7.46956 5.9387 -173994 -137377 3744.8 242961 26082.6 11408.1 -7.41696 
5962 1 75.286 9.13761 7.48796 5.93771 -112873 -180592 64056.6 203693 26929.1 15568.5 -7.4208 
5963 1 74.558 7.91933 7.48517 5.94013 -120463 -179063 -56533.8 205321 -15873.9 10827.7 -7.41357 
5964 1 75.2521 6.68396 7.48377 5.93607 -131377 -169252 48553.7 218895 27467.3 14950.7 -7.41974 
5965 1 74.5242 5.46554 7.48057 5.93786 -139132 -166275 -40144.4 218043 -19085.3 11685 -7.41444 
5966 1 75.2175 4.22978 7.47821 5.9363 -149117 -157533 31355.8 230015 27318.3 14320.4 -7.41863 
5967 1 74.4897 3.01114 7.47495 5.93706 -156890 -152942 -22335.3 226514 -21833.5 12523.7 -7.41543 
5968 1 75.1825 1.77503 7.47187 5.93841 -165321 -145381 13041.1 236726 26464.7 13649.4 -7.41749 
5969 1 74.4551 0.556069 7.4689 5.93812 -173051 -139247 -3734.5 230609 -23977.1 13338.9 -7.41651 
6127 1 76.7038 9.13451 7.48633 5.9422 -104208 -193380 -64126.7 190169 -13323.4 11848.3 -7.41315 
6128 1 77.3982 7.8993 7.4852 5.93753 -116133 -182159 56622.6 205569 27080.8 17521.4 -7.42025 
6129 1 76.6698 6.68131 7.48244 5.93967 -124426 -179279 -48647.5 205060 -16788 12932.9 -7.41396 
6130 1 77.3633 5.44563 7.48024 5.93708 -136019 -169023 40219.4 219016 27239.4 16799.9 -7.41916 
6131 1 76.635 4.22743 7.47711 5.93814 -144351 -164472 -31403.4 215842 -19898.1 13994.6 -7.4149 
6132 1 77.3278 2.99134 7.47405 5.93858 -154728 -155303 22319.8 228204 26668.1 16053.1 -7.41803 
6133 1 76.5998 1.77283 7.47093 5.93854 -163083 -149088 -12992.4 222334 -22456.3 15025.8 -7.41595 
6134 1 77.292 0.536371 7.46732 5.94201 -171687 -141276 3598.47 232813 25356.3 15248.2 -7.41688 
6292 1 79.545 9.11312 7.48513 5.93972 -99315.5 -196321 63897.1 189872 26486.5 20315.1 -7.4207 
6293 1 78.816 7.89559 7.48312 5.942 -108243 -193638 -56592.3 189694 -14155.4 13997.9 -7.4135 
6294 1 79.5098 6.66002 7.48119 5.93852 -120727 -181810 48579.5 205574 26967 19484.3 -7.41966 
6295 1 78.7809 5.4423 7.47852 5.93985 -130048 -177483 -40184.3 202806 -17594.1 15314.6 -7.41438 
6296 1 79.4738 4.20625 7.47562 5.93932 -141726 -166855 31383.3 217135 26688.6 18642.2 -7.41855 
6297 1 78.7452 2.98823 7.47266 5.93951 -151190 -160749 -22216.9 211641 -20568.6 16595.8 -7.41538 
6298 1 79.4374 1.75175 7.46908 5.94213 -161305 -151334 12947.7 224296 25640.8 17756.4 -7.4174 
6299 1 78.7093 0.533328 7.46623 5.94119 -170799 -143481 -3396.98 216078 -22919.5 17818.6 -7.41647 
6457 1 80.9629 9.10819 7.48216 5.9448 -90865.4 -209456 -63655.7 172057 -11183.6 14823.1 -7.41309 
6458 1 81.657 7.87276 7.4806 5.94083 -104641 -196076 56103.3 189703 26504 22387.7 -7.42011 
6459 1 80.9275 6.65554 7.47869 5.94242 -113857 -191996 -48398.4 187233 -14896.3 16425.5 -7.4139 
6460 1 81.6206 5.41955 7.47605 5.94084 -127249 -179673 39947.4 203553 26527.6 21435.7 -7.41903 
6461 1 80.8914 4.20206 7.47357 5.94125 -136931 -173827 -31186.5 198400 -18269 17989.6 -7.41484 
6462 1 81.5835 2.96557 7.47013 5.94292 -149042 -162816 22124.1 213135 25750.6 20451.4 -7.41791 
6463 1 80.8547 1.74769 7.46748 5.94213 -158977 -155048 -12691.2 205206 -21080.2 19489.1 -7.41588 
6464 1 81.5461 0.510755 7.46362 5.94705 -169096 -145542 3379.47 218073 24173.3 19399.1 -7.41676 
6622 1 83.8048 9.08367 7.4782 5.9441 -87573.7 -211385 62387.5 171382 25871 25485.6 -7.42047 
6623 1 83.0748 7.86695 7.47722 5.94528 -97113.6 -207858 -55676.3 169255 -11787.8 17261.4 -7.41345 
6624 1 83.7681 6.63106 7.47494 5.94328 -111396 -193887 47634.6 187351 26197.7 24426.8 -7.41946 
6625 1 83.0382 5.41411 7.47319 5.94394 -121570 -188505 -39584.1 182608 -15516.6 19137.1 -7.41432 
6626 1 83.7305 4.17764 7.47001 5.94454 -135038 -175899 30804.4 199253 25694.1 23333.3 -7.41837 
6627 1 83.001 2.96034 7.46784 5.94396 -145638 -168466 -21768.7 191695 -18785.2 20944.7 -7.41531 
6628 1 83.6923 1.72335 7.46411 5.94793 -157403 -157280 12591 206712 24357.4 22180.2 -7.41724 
6629 1 82.9635 0.505581 7.46193 5.94614 -168193 -147848 -3019.88 196395 -21414.5 22637.3 -7.41639 
6787 1 85.2228 9.07637 7.47395 5.94828 -79528 -224448 -61580 148970 -8264.89 17745.7 -7.41307 
6788 1 85.9163 7.84059 7.47207 5.9468 -95015.4 -208818 54009 168611 25729.6 27558.4 -7.4198 
6789 1 85.1858 6.62418 7.4712 5.94642 -104845 -204082 -46995.9 164200 -12284.5 19960.2 -7.41384 
6790 1 85.8782 5.38777 7.46834 5.94717 -119706 -189712 38582.8 182634 25491.1 26368.5 -7.41877 
6791 1 85.148 4.17104 7.46689 5.94649 -130435 -182877 -30271.2 175503 -15982.8 22102.1 -7.41476 
6792 1 85.8394 2.93403 7.46337 5.94969 -143845 -170100 21325.2 192406 24389.7 25110.8 -7.41768 
6793 1 85.1097 1.71688 7.46168 5.94802 -155172 -161089 -12139.1 182496 -19115.2 24124.6 -7.41578 
6794 1 85.8002 0.479334 7.45791 5.95435 -166483 -150111 3039.5 197557 22438.8 23757.4 -7.41657 
6953 1 87.3342 7.8321 7.4675 5.94967 -88030.6 -220423 -52937.4 143428 -8560.51 20366.8 -7.41344 
6955 1 87.2959 5.37961 7.46434 5.94893 -114364 -198326 -37740.8 156666 -12634.6 22862.7 -7.41426 
6957 1 87.2569 2.92607 7.46007 5.95016 -140565 -175543 -20683.2 165795 -16256.9 25235.4 -7.4152 
6959 1 87.2176 0.471423 7.45541 5.95345 -165514 -152288 -2612.84 170635 -19233.4 27415.2 -7.41624 
6952 1 88.0652 9.04798 7.46751 5.95155 -79131.3 -224223 58599.5 147553 25181.5 30690.8 -7.42001 