ITEM: TIMESTEP
0
ITEM: NUMBER OF ATOMS
18152
ITEM: BOX BOUNDS pp pp pp
0.0000000000000000e+00 1.1698915500000000e+02
0.0000000000000000e+00 2.0263116099999999e+02
0.0000000000000000e+00 1.8399999999999999e+01
ITEM: ATOMS id type x y z c_csym c_2[1] c_2[2] c_2[3] c_2[4] c_2[5] c_2[6] c_3 
187 1 0.799177 8.58808 7.5 6.03193 -144263 -132495 -153865 -413.322 14126.9 -2262.59 -7.41076 
188 1 0.0773397 7.36759 7.5 6.03192 -134450 -141467 -153540 134.701 14271.5 -452.886 -7.41079 
189 1 0.773397 6.13222 7.5 6.03193 -141665 -133600 -155756 -414.129 10091.8 -1947.08 -7.41067 
190 1 0.0515598 4.91173 7.5 6.03192 -134867 -139871 -156155 91.0143 9076.79 -327.529 -7.41066 
191 1 0.747617 3.67636 7.5 6.03193 -139440 -134826 -157139 -414.558 6088.28 -1637.06 -7.41061 
192 1 0.0257799 2.45586 7.5 6.03192 -135697 -138319 -157594 46.271 4351.8 -176.59 -7.41059 
193 1 0.721837 1.22049 7.5 6.03191 -137600 -136169 -157898 -415.358 2036.89 -1347.73 -7.41057 
194 1 0 0 7.5 6.03191 -136948 -136921 -158037 44.1323 0.0399833 0.0509162 -7.41057 
353 1 2.21707 8.5732 7.5 6.03194 -134388 -142397 -151637 1830.93 16808.3 -3662.17 -7.41088 
354 1 2.91313 7.33783 7.5 6.03194 -142906 -133324 -154022 -1245.7 12217.7 -6549.96 -7.41076 
355 1 2.19129 6.11734 7.5 6.03194 -134596 -140784 -154844 1675.55 11359.7 -3657.39 -7.41072 
356 1 2.88735 4.88196 7.5 6.03194 -140504 -134489 -155788 -1382.88 8169.54 -5944.96 -7.41068 
357 1 2.16551 3.66147 7.5 6.03194 -135219 -139205 -156787 1508.14 6407.43 -3654.13 -7.41063 
358 1 2.86157 2.4261 7.5 6.03192 -138478 -135778 -156983 -1521.58 4111.72 -5381.54 -7.41062 
359 1 2.13973 1.20561 7.5 6.03192 -136267 -137770 -157646 1377.78 1883.83 -3659.72 -7.41059 
518 1 5.05286 8.54343 7.5 6.03194 -144255 -133380 -151002 -1925.39 14641.2 -11510.7 -7.41091 
519 1 4.33102 7.32294 7.5 6.03194 -134596 -142012 -152975 3371.14 13678.5 -6949.7 -7.41081 
520 1 5.02708 6.08757 7.5 6.03194 -141697 -134478 -153251 -2197.64 10536.5 -10615.2 -7.4108 
521 1 4.30524 4.86708 7.5 6.03194 -135012 -140407 -155360 3090.62 8458.86 -7076.43 -7.41069 
522 1 5.0013 3.6317 7.5 6.03194 -139506 -135702 -154982 -2475.7 6432.48 -9765.45 -7.41072 
523 1 4.27946 2.41121 7.5 6.03192 -135831 -138855 -156568 2791.78 3702.67 -7235.36 -7.41064 
524 1 4.97552 1.17584 7.5 6.03192 -137714 -137123 -156072 -2797.74 2261.5 -8995.4 -7.41066 
683 1 6.47075 8.52855 7.5 6.03194 -134772 -143544 -150661 5161.9 16046.9 -10249.2 -7.41092 
684 1 7.16681 7.29317 7.5 6.03194 -142995 -134797 -149351 -2846.51 13188.9 -15681.6 -7.411 
685 1 6.44497 6.07268 7.5 6.03194 -134986 -141921 -153430 4779.87 10547.6 -10511.4 -7.41078 
686 1 7.14103 4.83731 7.5 6.03194 -140656 -135953 -151713 -3264.29 9028.77 -14560 -7.41088 
687 1 6.41919 3.61682 7.5 6.03194 -135602 -140330 -154929 4364.73 5518.24 -10812.7 -7.41071 
688 1 7.11525 2.38144 7.5 6.03192 -138682 -137240 -153487 -3686.85 4818.26 -13515.8 -7.41079 
689 1 6.39341 1.16095 7.5 6.03192 -136629 -138887 -155334 3969.69 902.082 -11175.7 -7.4107 
848 1 9.30654 8.49878 7.5 6.03194 -144370 -135438 -143921 -3317.02 16081.8 -21111.5 -7.41128 
849 1 8.5847 7.27829 7.5 6.03194 -135134 -143726 -151104 6559.05 12680.5 -13971.8 -7.41089 
850 1 9.28076 6.04292 7.5 6.03194 -141911 -136522 -147000 -3873.43 11890.3 -19763.6 -7.41112 
851 1 8.55892 4.82243 7.5 6.03194 -135551 -142113 -152836 6039.64 7366.19 -14428 -7.41081 
852 1 9.25498 3.58705 7.5 6.03194 -139800 -137737 -149548 -4441.44 7635.09 -18468.5 -7.41099 
853 1 8.53314 2.36656 7.5 6.03192 -136352 -140554 -153379 5481.37 2480.89 -14944.3 -7.41079 
854 1 9.2292 1.13119 7.5 6.03192 -138072 -139157 -151432 -5053.76 3271.17 -17274 -7.41089 
1013 1 10.7244 8.4839 7.5 6.03194 -135439 -145780 -148485 8401.41 14825.3 -17407.4 -7.41101 
1014 1 11.4205 7.24852 7.5 6.03194 -143245 -137396 -140690 -4290.93 14962.6 -25301.8 -7.41145 
1015 1 10.6987 6.02803 7.5 6.03194 -135672 -144163 -150395 7796.39 9246.76 -18055.5 -7.41092 
1016 1 11.3947 4.79266 7.5 6.03194 -141020 -138539 -144088 -5003.86 10691.6 -23809.7 -7.41127 
1017 1 10.6729 3.57217 7.5 6.03194 -136280 -142575 -151020 7130.04 4083.39 -18743 -7.41089 
1018 1 11.3689 2.33679 7.5 6.03192 -139137 -139817 -146885 -5723.89 6306.1 -22384.1 -7.41112 
1019 1 10.6471 1.1163 7.5 6.03192 -137275 -141132 -150535 6463.4 -700.308 -19501.3 -7.41093 
1178 1 13.5602 8.45413 7.5 6.03194 -144628 -138553 -132674 -4510.88 18149.8 -31028.2 -7.41186 
1179 1 12.8384 7.23364 7.5 6.03194 -135945 -146426 -147707 9603.86 11122.3 -21606.4 -7.41104 
1180 1 13.5344 5.99826 7.5 6.03194 -142322 -139619 -136974 -5362 13924.7 -29421.1 -7.41164 
1181 1 12.8126 4.77777 7.5 6.03194 -136375 -144839 -148361 8850.06 5703.64 -22504.9 -7.41101 
1182 1 13.5087 3.5424 7.5 6.03194 -140334 -140820 -140749 -6232.21 9551.72 -27824.8 -7.41144 
1183 1 12.7868 2.32191 7.5 6.03192 -137156 -143298 -147809 8029.09 661.908 -23443.8 -7.41105 
1184 1 13.4829 1.08653 7.5 6.03192 -138698 -142225 -143846 -7145.23 5013.88 -26293.7 -7.41127 
1343 1 14.9781 8.43924 7.5 6.03194 -136342 -148826 -144887 11419.2 12921.9 -24939.4 -7.41116 
1344 1 15.6742 7.20387 7.5 6.03194 -143675 -140943 -128121 -5511.83 17233.4 -35117.2 -7.4121 
1345 1 14.9523 5.98338 7.5 6.03194 -136618 -147271 -145510 10605.3 7300.23 -26104.9 -7.41114 
1346 1 15.6484 4.74801 7.5 6.03194 -141610 -142067 -132911 -6524.51 12937.2 -33436 -7.41184 
1347 1 14.9266 3.52751 7.5 6.03194 -137228 -145731 -144841 9695.35 2026 -27264.8 -7.41119 
1348 1 15.6226 2.29214 7.5 6.03192 -139850 -143324 -137107 -7547.69 8451.84 -31755.8 -7.41162 
1349 1 14.9008 1.07165 7.5 6.03192 -138189 -144325 -143049 8758.09 -2909.59 -28451.1 -7.4113 
1508 1 17.8139 8.40948 7.5 6.03194 -145047 -142464 -117509 -5459.54 20489.4 -40663.5 -7.41265 
1509 1 17.0921 7.18899 7.5 6.03194 -136977 -149780 -142589 12347.9 8802.63 -29375.8 -7.41127 
1510 1 17.7881 5.95361 7.5 6.03194 -142943 -143512 -123320 -6598.48 16358.1 -38999.9 -7.41234 
1511 1 17.0663 4.73312 7.5 6.03194 -137443 -148283 -141749 11379.5 3348.18 -30809.4 -7.41133 
1512 1 17.7623 3.49775 7.5 6.03194 -141113 -144685 -128639 -7765.45 11991.5 -37258.8 -7.41206 
1513 1 17.0405 2.27726 7.5 6.03192 -138217 -146816 -139700 10310.8 -1784.07 -32216.7 -7.41145 
1514 1 17.7366 1.04188 7.5 6.03192 -139588 -146052 -133295 -8973.09 7399.34 -35493.6 -7.4118 
1673 1 19.2318 8.39459 7.5 6.03194 -137411 -152251 -139731 14017.3 10122.9 -32132.9 -7.4114 
1675 1 19.206 5.93873 7.5 6.03194 -137766 -150846 -138663 13028.8 4560.43 -33894.1 -7.41147 
1677 1 19.1802 3.48286 7.5 6.03194 -138407 -149429 -136311 11904.8 -717.021 -35569.9 -7.41161 
1679 1 19.1545 1.027 7.5 6.03192 -139345 -148122 -132844 10722 -5692.1 -37184.2 -7.41181 
1674 1 19.9279 7.15922 7.5 6.03194 -144297 -145092 -111994 -6463.38 19687.9 -44264 -7.41294 
1676 1 19.9021 4.70335 7.5 6.03194 -142431 -146189 -118424 -7755.99 15526.3 -42562.7 -7.41259 
1678 1 19.8763 2.24749 7.5 6.03192 -140813 -147400 -124303 -9062.23 11102.7 -40755 -7.41227 
1838 1 22.0676 8.36482 7.5 6.03194 -145637 -146736 -99024.6 -6138.82 22792.4 -48968.4 -7.41363 
1839 1 21.3458 7.14433 7.5 6.03194 -138155 -153297 -135728 14579.7 5582.93 -36334.3 -7.4116 
1840 1 22.0418 5.90896 7.5 6.03194 -143775 -147763 -106517 -7531.21 18932.7 -47408.9 -7.41322 
1841 1 21.32 4.68847 7.5 6.03194 -138697 -151985 -133024 13441.9 227.641 -38323.4 -7.41176 
1842 1 22.016 3.45309 7.5 6.03194 -142124 -148890 -113591 -8958.41 14760.6 -45656.8 -7.41284 
1843 1 21.2942 2.2326 7.5 6.03192 -139488 -150669 -129133 12166.6 -4848.17 -40190.8 -7.41198 
1844 1 21.9902 0.99723 7.5 6.03192 -140716 -150182 -120057 -10421.8 10306.1 -43758.9 -7.41248 
2003 1 23.4855 8.34994 7.5 6.03194 -138561 -155508 -133089 15960.8 6338.39 -37971.2 -7.41172 
2004 1 24.1815 7.11457 7.5 6.03194 -145109 -149329 -93048.6 -7114.15 22085.1 -51547.9 -7.41394 
2005 1 23.4597 5.89408 7.5 6.03194 -139043 -154354 -129992 14855.8 979.715 -40304.7 -7.4119 
2006 1 24.1558 4.6587 7.5 6.03194 -143462 -150385 -101251 -8634.41 18253.8 -49947.2 -7.41349 
2007 1 23.4339 3.43821 7.5 6.03194 -139750 -153150 -125640 13575.2 -4135.97 -42460.6 -7.41215 
2008 1 24.13 2.20284 7.5 6.03192 -141994 -151519 -108990 -10167.2 14099.2 -48117.5 -7.41307 
2009 1 23.4081 0.982346 7.5 6.03192 -140690 -152016 -120210 12202.4 -8970.34 -44449.9 -7.41245 
2168 1 26.3213 8.32017 7.5 6.03194 -146394 -150805 -78223.8 -6538.73 24869.2 -54766.4 -7.41473 
2169 1 25.5994 7.09968 7.5 6.03194 -139394 -156409 -127366 16075.7 1476.44 -41381.6 -7.41202 
2170 1 26.2955 5.86431 7.5 6.03194 -144794 -151801 -87449.2 -8116.12 21465.8 -53399.2 -7.41423 
2171 1 25.5737 4.64382 7.5 6.03194 -140055 -155374 -122524 14838.7 -3615.17 -43845.1 -7.4123 
2172 1 26.2697 3.40844 7.5 6.03194 -143330 -152856 -96376 -9731.24 17691.4 -51727 -7.41374 
2173 1 25.5479 2.18795 7.5 6.03192 -140901 -154290 -116540 13428.5 -8447.58 -46091.3 -7.41263 
2174 1 26.2439 0.952578 7.5 6.03192 -142032 -154030 -104791 -11374.8 13586.9 -49787 -7.41327 
2333 1 27.7392 8.30529 7.5 6.03194 -139698 -158034 -125287 17033.4 1674.61 -41481.2 -7.41212 
2334 1 28.4352 7.06991 7.5 6.03194 -146082 -153060 -72416.5 -7440.35 24294.7 -55833.9 -7.41503 
2335 1 27.7134 5.84942 7.5 6.03194 -140355 -157219 -119938 15887.2 -3333.78 -44247.6 -7.41242 
2336 1 28.4094 4.61405 7.5 6.03194 -144660 -154053 -82410.6 -9100.78 20975.5 -54393 -7.41449 
2337 1 27.6876 3.39356 7.5 6.03194 -141172 -156306 -113384 14532.9 -8112.38 -46758.9 -7.41278 
2338 1 28.3837 2.15818 7.5 6.03192 -143335 -155075 -92067.8 -10770.1 17286.7 -52617.3 -7.41396 
2339 1 27.6618 0.937694 7.5 6.03192 -142151 -155413 -105818 13056.6 -12609.7 -49011.8 -7.4132 
2498 1 30.575 8.27552 7.5 6.03194 -147287 -154092 -56439.7 -6648.87 26663 -57135.5 -7.4159 
2499 1 29.8531 7.05503 7.5 6.03194 -140597 -158584 -118015 16657 -3317.88 -43637.3 -7.41251 
2500 1 30.5492 5.81966 7.5 6.03194 -145952 -155038 -67347.1 -8314.88 23861.8 -55977.4 -7.4153 
2501 1 29.8273 4.59916 7.5 6.03194 -141425 -157895 -110893 15406.2 -7998.27 -46398 -7.4129 
2502 1 30.5234 3.36379 7.5 6.03194 -144664 -155991 -78110.6 -10015 20651 -54432 -7.41471 
2503 1 29.8016 2.1433 7.5 6.03192 -142367 -157103 -102695 13956.2 -12413.7 -48872.3 -7.41336 
2504 1 30.4976 0.907926 7.5 6.03192 -143453 -157007 -88495.4 -11735 17072.4 -52527.5 -7.41414 
2663 1 31.9928 8.26064 7.5 6.03194 -140734 -159399 -116859 17093.5 -3565.47 -42053.5 -7.41257 
2664 1 32.6889 7.02526 7.5 6.03194 -147165 -155755 -51484.3 -7417.3 26285.6 -56408.2 -7.41616 
2665 1 31.9671 5.80477 7.5 6.03194 -141609 -158969 -109189 15989.4 -8115.38 -45022.1 -7.41299 
2666 1 32.6631 4.5694 7.5 6.03194 -145956 -156660 -63187.5 -9108.76 23601.6 -55137 -7.41551 
2667 1 31.9413 3.34891 7.5 6.03194 -142579 -158394 -100377 14655.6 -12419.9 -47693.3 -7.41347 
2668 1 32.6373 2.11353 7.5 6.03192 -144750 -157536 -74711 -10800.8 20516 -53466.4 -7.41488 
2669 1 31.9155 0.893042 7.5 6.03192 -143634 -157784 -90637.4 13180.7 -16422.1 -50052.1 -7.41401 
2828 1 34.8286 8.23087 7.5 6.03194 -148265 -156167 -35148.8 -6455.37 28210.5 -55680.8 -7.41704 
2829 1 34.1068 7.01038 7.5 6.03194 -141678 -159482 -108358 16234.8 -8446.47 -42711.6 -7.41303 
2830 1 34.8029 5.775 7.5 6.03194 -147175 -157038 -47602.7 -8096.32 26085.9 -54703.2 -7.41636 
2831 1 34.081 4.55451 7.5 6.03194 -142710 -159159 -98972.5 15059.1 -12623.9 -45531.5 -7.41354 
2832 1 34.7771 3.31914 7.5 6.03194 -146040 -157862 -60087 -9764.79 23528.8 -53303.6 -7.41567 
2833 1 34.0552 2.09865 7.5 6.03192 -143786 -158688 -88588.8 13670.4 -16507.6 -48039.1 -7.41411 
2834 1 34.7513 0.863274 7.5 6.03192 -144886 -158691 -72346.9 -11442 20574.6 -51503.3 -7.415 
2993 1 36.2465 8.21598 7.5 6.03194 -141599 -159425 -108442 16114.4 -8947.84 -39603 -7.41302 
2994 1 36.9426 6.98061 7.5 6.03194 -148286 -157111 -31678.7 -7025.91 28077.7 -53163.2 -7.41723 
2995 1 36.2208 5.76012 7.5 6.03194 -142719 -159373 -98547 15126 -12995.4 -42503.5 -7.41356 
2996 1 36.9168 4.52474 7.5 6.03194 -147261 -157902 -44926.5 -8630.54 26069 -52049.1 -7.4165 
2997 1 36.195 3.30425 7.5 6.03194 -143875 -159137 -87576 13905.4 -16759.9 -45107.4 -7.41416 
2998 1 36.891 2.06888 7.5 6.03192 -146142 -158611 -58162.5 -10227 23636.7 -50523.3 -7.41577 
2999 1 36.1692 0.84839 7.5 6.03192 -145041 -158821 -75768.8 12536 -20185.2 -47392.7 -7.41481 
3159 1 38.3605 6.96573 7.5 6.03194 -142574 -159053 -99117.2 14835.7 -13480.6 -38771.7 -7.41354 
3161 1 38.3347 4.50986 7.5 6.03194 -143832 -159071 -87641.4 13809.5 -17137.5 -41402.8 -7.41416 
3163 1 38.3089 2.054 7.5 6.03192 -145069 -158904 -75243.4 12574.3 -20457.1 -43740.3 -7.41484 
3158 1 39.0823 8.18622 7.5 6.03194 -149257 -156881 -15740.5 -5942.04 29575.3 -50599.4 -7.4181 
3160 1 39.0565 5.73035 7.5 6.03194 -148379 -157654 -29542.9 -7446.4 28119.6 -49765.5 -7.41734 
3162 1 39.0308 3.27449 7.5 6.03194 -147361 -158330 -43550.6 -8967.53 26218.1 -48524.6 -7.41657 
3164 1 39.005 0.818622 7.5 6.03192 -146231 -158963 -57489.3 -10489.9 23895.2 -46894.4 -7.41581 
3323 1 40.5002 8.17133 7.5 6.03194 -142256 -158253 -100650 14187.3 -14009.2 -34524.9 -7.41346 
3324 1 41.1963 6.93596 7.5 6.03194 -149363 -157144 -14245.4 -6257.11 29685.3 -46554.8 -7.41818 
3325 1 40.4744 5.71547 7.5 6.03194 -143629 -158526 -88777.5 13369.3 -17578.9 -37105 -7.4141 
3326 1 41.1705 4.48009 7.5 6.03194 -148481 -157806 -28811.9 -7668.08 28309.9 -45591.8 -7.41738 
3327 1 40.4487 3.2596 7.5 6.03194 -144985 -158588 -75885.3 12333.6 -20816.9 -39426.4 -7.4148 
3328 1 41.1447 2.02423 7.5 6.03192 -147415 -158344 -43525.9 -9062.4 26493.8 -44252.6 -7.41657 
3329 1 40.4229 0.803738 7.5 6.03192 -146283 -158538 -62241.6 11158.4 -23670.5 -41466.1 -7.41555 
3488 1 43.336 8.14156 7.5 6.03194 -150186 -156416 673.72 -5102.55 30787.8 -42542 -7.419 
3489 1 42.6142 6.92107 7.5 6.03194 -143252 -157573 -90927.3 12589.6 -18010 -32407.6 -7.414 
3490 1 43.3102 5.6857 7.5 6.03194 -149473 -157076 -14237.7 -6373.64 29922.4 -41837.3 -7.41818 
3491 1 42.5884 4.46521 7.5 6.03194 -144735 -157868 -77662.2 11763.8 -21197.1 -34638.6 -7.41472 
3492 1 43.2844 3.22983 7.5 6.03194 -148535 -157603 -29511.3 -7650.48 28601.6 -40780.5 -7.41734 
3493 1 42.5626 2.00934 7.5 6.03192 -146143 -157955 -63538.4 10748.8 -23998.9 -36628.2 -7.41548 
3494 1 43.2587 0.773969 7.5 6.03192 -147401 -158050 -44855.2 -8926.44 26837.5 -39387.6 -7.4165 
3653 1 44.7539 8.12668 7.5 6.03194 -142703 -156313 -93990.3 11494.2 -18352.5 -27499.1 -7.41384 
3654 1 45.45 6.89131 7.5 6.03194 -150311 -156197 -100.701 -5123.98 31080.2 -37385.8 -7.41896 
3655 1 44.7281 5.67081 7.5 6.03194 -144310 -156825 -80494.7 10874.3 -21521.6 -29567 -7.41457 
3656 1 45.4242 4.43544 7.5 6.03194 -149532 -156731 -15719.4 -6255.79 30233.5 -36592.4 -7.4181 
3657 1 44.7023 3.21495 7.5 6.03194 -145860 -157118 -66021.8 10069 -24310.3 -31436.7 -7.41536 
3658 1 45.3984 1.97958 7.5 6.03192 -148490 -157108 -31620.6 -7366.41 28930.9 -35490.9 -7.41723 
3659 1 44.6766 0.759085 7.5 6.03192 -147297 -157278 -50865.9 9148.81 -26670 -33089.1 -7.41618 
3818 1 47.5897 8.09691 7.5 6.03194 -150974 -155237 13352.6 -3953.98 31817.9 -32361.5 -7.41971 
3819 1 46.8678 6.87642 7.5 6.03194 -143714 -155567 -84263.3 9691.46 -21713.3 -24386.9 -7.41438 
3820 1 47.5639 5.64105 7.5 6.03194 -150379 -155784 -2404.02 -4917.17 31417 -31806.1 -7.41884 
3821 1 46.8421 4.42056 7.5 6.03194 -145397 -156054 -69592.5 9089.74 -24527.3 -26070.6 -7.41517 
3822 1 47.5381 3.18518 7.5 6.03194 -149490 -156175 -18648.4 -5879.8 30551.8 -30977 -7.41795 
3823 1 46.8163 1.96469 7.5 6.03192 -146966 -156327 -54109.2 8335.03 -26912.3 -27581.4 -7.41601 
3824 1 47.5123 0.729317 7.5 6.03192 -148332 -156463 -35073.4 -6846.27 29223.4 -29889.5 -7.41705 
3983 1 49.0076 8.08203 7.5 6.03194 -142966 -154205 -88818.5 8255.69 -21702 -19247.7 -7.41415 
3984 1 49.7036 6.84665 7.5 6.03194 -151058 -154833 10204.9 -3669.51 32188 -26532.2 -7.41954 
3985 1 48.9818 5.62616 7.5 6.03194 -144766 -154868 -74114.8 7838.39 -24574.8 -20687.5 -7.41494 
3986 1 49.6779 4.39079 7.5 6.03194 -150345 -155251 -6176.88 -4462.24 31730.3 -25951.3 -7.41864 
3987 1 48.956 3.1703 7.5 6.03194 -146481 -155311 -58460.7 7283.64 -27027 -21996.6 -7.41578 
3988 1 49.6521 1.93492 7.5 6.03192 -149307 -155496 -22941.8 -5236.95 30802.8 -25146.5 -7.41772 
3989 1 48.9302 0.714433 7.5 6.03192 -148042 -155618 -42172 6652.03 -29013.7 -23162.5 -7.41667 
4148 1 51.8434 8.05226 7.5 6.03194 -151556 -153940 21904 -2540.47 32587.9 -20868.8 -7.42019 
4149 1 51.1215 6.83177 7.5 6.03194 -143985 -153666 -79427.2 6354.88 -24385.9 -15415.5 -7.41466 
4150 1 51.8176 5.59639 7.5 6.03194 -151037 -154394 5577.55 -3148.05 32503.8 -20508.5 -7.41929 
4151 1 51.0957 4.3759 7.5 6.03194 -145825 -154266 -63772.5 5980.12 -26941.1 -16471.1 -7.41551 
4152 1 51.7918 3.14053 7.5 6.03194 -150171 -154676 -11323.1 -3752.71 31946.9 -19962.2 -7.41836 
4153 1 51.07 1.92004 7.5 6.03192 -147521 -154653 -47334.5 5501.9 -29034.8 -17424.3 -7.4164 
4154 1 51.766 0.684665 7.5 6.03192 -148986 -154847 -28479.4 -4374.29 30910 -19243.2 -7.41742 
4313 1 53.2613 8.03738 7.5 6.03194 -143088 -152546 -85352.3 4683.8 -23906 -10350.9 -7.41435 
4314 1 53.9573 6.802 7.5 6.03194 -151552 -153657 16420.9 -1965.46 32915.6 -14730.4 -7.41989 
4315 1 53.2355 5.58151 7.5 6.03194 -145021 -153283 -69874.2 4462.49 -26590.6 -11111.8 -7.41518 
4316 1 53.9315 4.34614 7.5 6.03194 -150874 -153991 -424.664 -2385.44 32695 -14414.8 -7.41896 
4317 1 53.2097 3.12565 7.5 6.03194 -146854 -153806 -53460 4159.98 -28828 -11805.7 -7.41607 
4318 1 53.9058 1.89027 7.5 6.03192 -149831 -154144 -17714.7 -2794.59 31993.8 -13963.1 -7.41802 
4319 1 53.1839 0.669781 7.5 6.03192 -148503 -154193 -36440.7 3830.01 -30576.2 -12429 -7.41699 
4478 1 56.097 8.00761 7.5 6.03194 -151885 -153082 26181.8 -938.665 33013.8 -8688.29 -7.42043 
4479 1 55.3752 6.78712 7.5 6.03194 -144102 -152444 -76582.5 2772.86 -25923.4 -5996.45 -7.41483 
4480 1 56.0713 5.55174 7.5 6.03194 -151404 -153473 9565.41 -1163.39 33092.7 -8572.32 -7.41951 
4481 1 55.3494 4.33125 7.5 6.03194 -146035 -153091 -60373 2620.31 -28331.9 -6393.65 -7.4157 
4482 1 56.0455 3.09588 7.5 6.03194 -150548 -153688 -7669.23 -1388.21 32692.8 -8358.92 -7.41857 
4483 1 55.3237 1.87539 7.5 6.03192 -147808 -153528 -43395.3 2420.14 -30261.4 -6753.78 -7.41662 
4484 1 56.0197 0.640013 7.5 6.03192 -149346 -153787 -25197.3 -1648.17 31801.8 -8058.2 -7.41761 
4643 1 57.5149 7.99272 7.5 6.03194 -143107 -151809 -83708 956.248 -24900.5 -1179.87 -7.41445 
4644 1 58.211 6.75735 7.5 6.03194 -151755 -153143 18477.7 -111.64 33191.5 -2496.71 -7.42 
4645 1 57.4892 5.53686 7.5 6.03194 -145101 -152566 -67886 922.105 -27496.6 -1250.92 -7.4153 
4646 1 58.1852 4.30148 7.5 6.03194 -151091 -153433 1471.27 -141.604 33055.2 -2488.04 -7.41907 
4647 1 57.4634 3.08099 7.5 6.03194 -146988 -153110 -51133.6 869.602 -29635 -1313.5 -7.4162 
4648 1 58.1594 1.84562 7.5 6.03192 -150047 -153540 -16000.7 -174.055 32432.4 -2429.78 -7.41811 
4649 1 57.4376 0.625129 7.5 6.03192 -148680 -153520 -33788.8 843.338 -31275.5 -1373.2 -7.41714 
4807 1 59.6547 9.19833 7.5 6.03194 -142081 -151417 -91060.7 -944.523 -23493.5 3297.37 -7.41406 
4808 1 60.3507 7.96296 7.5 6.03194 -151934 -153001 26161.5 751.729 33049.2 3748.25 -7.42042 
4809 1 59.6289 6.74246 7.5 6.03194 -144090 -152268 -75806.4 -892.61 -26283.3 3576.23 -7.41487 
4810 1 60.325 5.50709 7.5 6.03194 -151458 -153372 9537.29 919.599 33136.1 3591.42 -7.41951 
4811 1 59.6031 4.2866 7.5 6.03194 -146045 -152912 -59466.5 -827.094 -28648.8 3839.25 -7.41575 
4812 1 60.2992 3.05123 7.5 6.03194 -150605 -153566 -7706.4 1082.89 32742.8 3443.63 -7.41857 
4813 1 59.5773 1.83074 7.5 6.03192 -147836 -153344 -42362.2 -749.164 -30533.7 4077.24 -7.41668 
4814 1 60.2734 0.595361 7.5 6.03192 -149405 -153645 -25244.5 1188.19 31854.9 3298.81 -7.41761 
4972 1 62.4905 9.16856 7.5 6.03194 -151958 -153026 32486.3 1415.91 32729.4 10089.6 -7.42077 
4973 1 61.7686 7.94807 7.5 6.03194 -143042 -152216 -83939.7 -2783.43 -24663.2 8049.22 -7.41443 
4974 1 62.4647 6.7127 7.5 6.03194 -151653 -153483 16376.5 1776.66 32997.9 9813.01 -7.41988 
4975 1 61.7428 5.49221 7.5 6.03194 -145020 -152947 -68198.5 -2630.43 -27264.2 8661.29 -7.41528 
4976 1 62.4389 4.25683 7.5 6.03194 -150984 -153777 -485.555 2138.62 32791.6 9502.34 -7.41896 
4977 1 61.7171 3.03634 7.5 6.03194 -146891 -153462 -51526 -2433.59 -29413.2 9223.71 -7.41618 
4978 1 62.4131 1.80097 7.5 6.03192 -149948 -153888 -17794.2 2484.5 32099.8 9153.82 -7.41801 
4979 1 61.6913 0.580477 7.5 6.03192 -148574 -153842 -34258.8 -2154.39 -31070.7 9722.1 -7.41712 
5137 1 63.9084 9.15368 7.5 6.03194 -142002 -152403 -92090.6 -4710.81 -22615.6 12129.1 -7.41399 
5138 1 64.6044 7.9183 7.5 6.03194 -151695 -153723 21856.1 2418.36 32708.7 16094.9 -7.42018 
5139 1 63.8826 6.69781 7.5 6.03194 -143953 -153209 -77130.5 -4501.34 -25451.6 13110.8 -7.41479 
5140 1 64.5786 5.46244 7.5 6.03194 -151194 -154121 5508.33 2974.11 32645.3 15671.3 -7.41928 
5141 1 63.8568 4.24195 7.5 6.03194 -145855 -153802 -61082.5 -4214.05 -27875.8 14020.8 -7.41566 
5142 1 64.5529 3.00657 7.5 6.03194 -150340 -154344 -11417.3 3521 32105.1 15166 -7.41836 
5143 1 63.831 1.78608 7.5 6.03192 -147605 -154179 -44262.8 -3856.38 -29833.1 14841.2 -7.41657 
5144 1 64.5271 0.550709 7.5 6.03192 -149162 -154453 -28601.8 3989.55 31075.7 14577.1 -7.41742 
5302 1 66.7441 9.12391 7.5 6.03194 -151616 -154036 25866.3 2842.02 32340.8 22335.9 -7.4204 
5303 1 66.0223 7.90342 7.5 6.03194 -142885 -153676 -86060.2 -6400.38 -23188.8 17141.1 -7.41431 
5304 1 66.7184 6.66804 7.5 6.03194 -151250 -154537 10142.5 3578.38 32376 21855 -7.41953 
5305 1 65.9965 5.44755 7.5 6.03194 -144769 -154333 -70827.1 -6052.33 -25891.4 18418.4 -7.41512 
5306 1 66.6926 4.21218 7.5 6.03194 -150558 -154882 -6267.66 4320.54 31940.7 21246.8 -7.41863 
5307 1 65.9707 2.99169 7.5 6.03194 -146562 -154770 -54653.5 -5600.71 -28162.6 19582.8 -7.416 
5308 1 66.6668 1.75632 7.5 6.03192 -149534 -155049 -23065.8 5035.81 31027.6 20510.1 -7.41771 
5309 1 65.945 0.535825 7.5 6.03192 -148185 -155068 -37866.4 -5016.43 -29963.3 20611.9 -7.41691 
5467 1 68.162 9.10903 7.5 6.03194 -141854 -154310 -94782.5 -8288.99 -20460.7 20697.5 -7.41383 
5469 1 68.1363 6.65316 7.5 6.03194 -143673 -155018 -80549.4 -7908.19 -23437.4 22358.6 -7.41459 
5471 1 68.1105 4.1973 7.5 6.03194 -145457 -155505 -65220.1 -7391.1 -26029.4 23885.1 -7.41542 
5473 1 68.0847 1.74143 7.5 6.03192 -147111 -155775 -49097.7 -6751.75 -28182.1 25251.9 -7.41629 
5468 1 68.8581 7.87365 7.5 6.03194 -151185 -154954 13310 3949.73 32058.4 27936 -7.41971 
5470 1 68.8323 5.41779 7.5 6.03194 -150624 -155419 -2474.69 4872.97 31681.7 27283.2 -7.41884 
5472 1 68.8065 2.96192 7.5 6.03194 -149760 -155719 -18753.9 5785.52 30836.2 26455.6 -7.41794 
5474 1 68.7808 0.506057 7.5 6.03192 -148618 -155914 -35220.1 6604.17 29515.2 25454.7 -7.41704 
5632 1 70.9978 9.07926 7.5 6.03194 -151043 -155294 14934.2 4098.58 31765 33777.4 -7.41979 
5633 1 70.276 7.85877 7.5 6.03194 -142602 -155807 -90034.1 -9741.03 -20499.6 25775.1 -7.41407 
5634 1 70.972 6.62339 7.5 6.03194 -150570 -155872 -138.604 5178.27 31403.9 33139.5 -7.41896 
5635 1 70.2502 5.4029 7.5 6.03194 -144330 -156330 -75742.5 -9186.34 -23411.6 27676.6 -7.41484 
5636 1 70.9463 4.16753 7.5 6.03194 -149830 -156309 -15789.4 6271.92 30578.5 32281.4 -7.4181 
5637 1 70.2244 2.94704 7.5 6.03194 -145990 -156628 -60489.2 -8477.83 -25926.3 29396.4 -7.41566 
5638 1 70.9205 1.71166 7.5 6.03192 -148816 -156583 -31731 7332.81 29288.6 31203.8 -7.41723 
5639 1 70.1987 0.491173 7.5 6.03192 -147515 -156790 -44584.1 -7594.46 -28003 30905.9 -7.41653 
5797 1 72.4157 9.06437 7.5 6.03194 -141592 -156649 -99061.8 -11509.1 -17073.6 28598.3 -7.41357 
5798 1 73.1118 7.829 7.5 6.03194 -150440 -156163 675.428 5249.59 31178.1 38663.6 -7.419 
5799 1 72.3899 6.60851 7.5 6.03194 -143218 -157187 -85993.9 -10943.5 -20297.5 30879.6 -7.41427 
5800 1 73.086 5.37313 7.5 6.03194 -149780 -156727 -14261.1 6497.71 30329.6 37833.7 -7.41818 
5801 1 72.3642 4.15264 7.5 6.03194 -144833 -157503 -71810.1 -10193.8 -23176.4 32960.4 -7.41504 
5802 1 73.0602 2.91727 7.5 6.03194 -148886 -157147 -29569.7 7739.38 29023.6 36740.5 -7.41734 
5803 1 72.3384 1.69678 7.5 6.03192 -146353 -157603 -56794.5 -9281.75 -25654.9 34809.9 -7.41586 
5804 1 73.0344 0.461405 7.5 6.03192 -147784 -157477 -44958.8 8877.93 27262.2 35387.9 -7.4165 
5962 1 75.2515 9.03461 7.5 6.03194 -150288 -156220 -58.6538 5111.18 31064 43697.2 -7.41896 
5963 1 74.5297 7.81411 7.5 6.03194 -142154 -158023 -95743 -12618.1 -16687.8 33417.6 -7.41374 
5964 1 75.2257 6.57874 7.5 6.03194 -149656 -156893 -14218.1 6479.28 30157.4 42947.6 -7.41818 
5965 1 74.5039 5.35825 7.5 6.03194 -143678 -158334 -82820.5 -11854.9 -19924.7 35856.7 -7.41444 
5966 1 75.1999 4.12288 7.5 6.03194 -148834 -157453 -28809.7 7872.02 28793.9 41896.1 -7.41738 
5967 1 74.4781 2.90239 7.5 6.03194 -145169 -158428 -68899.1 -10900.8 -22808.4 38048.3 -7.41519 
5968 1 75.1742 1.66701 7.5 6.03192 -147819 -157875 -43560.4 9232.87 26983.7 40544.7 -7.41657 
5969 1 74.4523 0.446521 7.5 6.03192 -146577 -158397 -54265.9 -9742.24 -25295 39960.6 -7.41599 
6127 1 76.6694 9.01972 7.5 6.03194 -141169 -158789 -104759 -14163.5 -12598.1 35225.1 -7.41324 
6128 1 77.3655 7.78435 7.5 6.03194 -149513 -156749 -15666.4 6244.82 30115 47459.8 -7.4181 
6129 1 76.6436 6.56386 7.5 6.03194 -142561 -159073 -93276.8 -13414.4 -16178.2 38005.9 -7.41386 
6130 1 77.3397 5.32848 7.5 6.03194 -148710 -157428 -29480.1 7751.56 28662.1 46497.4 -7.41734 
6131 1 76.6178 4.10799 7.5 6.03194 -143974 -159143 -80644.3 -12447.1 -19461.3 40528.6 -7.41455 
6132 1 77.3139 2.87262 7.5 6.03194 -147761 -157996 -43511.5 9258.82 26765.8 45202.2 -7.41657 
6133 1 76.5921 1.65213 7.5 6.03192 -145344 -159015 -67122.1 -11291.3 -22389.7 42760.9 -7.41528 
6134 1 77.2881 0.416753 7.5 6.03192 -146686 -158508 -57487.8 10662.1 24439 43579.8 -7.41581 
6292 1 79.5052 8.98995 7.5 6.03194 -149411 -156253 -18567.7 5834.59 30236.6 51223 -7.41795 
6293 1 78.7834 7.76946 7.5 6.03194 -141511 -159676 -102939 -14823.9 -11962 39347.8 -7.41333 
6294 1 79.4794 6.53409 7.5 6.03194 -148571 -157024 -31563.8 7410.55 28674 50382.9 -7.41723 
6295 1 78.7576 5.3136 7.5 6.03194 -142805 -159698 -91774.1 -13872.7 -15628.8 42174.6 -7.41393 
6296 1 79.4536 4.07822 7.5 6.03194 -147630 -157721 -44818.7 9023.72 26665 49186.2 -7.4165 
6297 1 78.7318 2.85773 7.5 6.03194 -144115 -159522 -79557.3 -12708.1 -18991.1 44707.4 -7.4146 
6298 1 79.4279 1.62236 7.5 6.03192 -146587 -158321 -58075.5 10609.8 24231 47637.2 -7.41578 
6299 1 78.706 0.401869 7.5 6.03192 -145405 -159251 -66549 -11324.8 -22000.6 46914.9 -7.41531 
6457 1 80.9231 8.97507 7.5 6.03194 -140556 -160114 -111577 -16037.5 -7320.73 39852.6 -7.41285 
6458 1 81.6191 7.73969 7.5 6.03194 -148475 -156221 -34997.8 6893.42 28854 53417.2 -7.41705 
6459 1 80.8973 6.5192 7.5 6.03194 -141695 -160064 -102039 -15128.7 -11345.9 42938.6 -7.41337 
6460 1 81.5934 5.28383 7.5 6.03194 -147487 -157017 -47439.7 8565.47 26718.3 52345 -7.41637 
6461 1 80.8715 4.06334 7.5 6.03194 -142900 -159824 -91303.7 -13986.4 -15123.4 45734.5 -7.41396 
6462 1 81.5676 2.82797 7.5 6.03194 -146447 -157746 -59925.4 10247.9 24158.3 50906.5 -7.41568 
6463 1 80.8457 1.60748 7.5 6.03192 -144122 -159418 -79605.1 -12644.6 -18592.4 48211.2 -7.4146 
6464 1 81.5418 0.372101 7.5 6.03192 -145375 -158467 -72202 11831.6 21196.4 49109.9 -7.41501 
6622 1 83.7589 8.9453 7.5 6.03194 -148482 -155026 -39677.3 6249.47 29203.6 55504.9 -7.4168 
6623 1 83.037 7.72481 7.5 6.03194 -140670 -160225 -111207 -16170.2 -6668.41 42811.5 -7.41287 
6624 1 83.7331 6.48944 7.5 6.03194 -147391 -155884 -51287.3 7932.78 26940.2 54564 -7.41616 
6625 1 83.0113 5.26895 7.5 6.03194 -141733 -159898 -102105 -15077.8 -10832.1 45814.9 -7.41337 
6626 1 83.7073 4.03357 7.5 6.03194 -146294 -156717 -62970.4 9661.89 24248.2 53254.7 -7.41552 
6627 1 82.9855 2.81308 7.5 6.03194 -142870 -159409 -91885.9 -13768.2 -14736.5 48514.2 -7.41393 
6628 1 83.6815 1.57771 7.5 6.03192 -145191 -157504 -74487.5 11373.8 21158.2 51585.1 -7.41489 
6629 1 82.9597 0.357217 7.5 6.03192 -144058 -158867 -80783.8 -12239.9 -18329.8 50883.3 -7.41454 
6787 1 85.1768 8.93042 7.5 6.03194 -139756 -160181 -119073 -16956.3 -1671.74 41828.9 -7.41245 
6788 1 85.8728 7.69504 7.5 6.03194 -147400 -154354 -56233.9 7178.19 27322.2 55777.3 -7.4159 
6789 1 85.151 6.47455 7.5 6.03194 -140646 -159746 -111728 -15939.7 -6184.1 44968 -7.41285 
6790 1 85.847 5.23918 7.5 6.03194 -146192 -155251 -67100.3 8905.33 24504.7 54596.7 -7.41531 
6791 1 85.1252 4.01869 7.5 6.03194 -141656 -159160 -103131 -14691.1 -10489.2 47824.9 -7.41332 
6792 1 85.8213 2.78331 7.5 6.03194 -145028 -156139 -77833.9 10650.9 21290.5 53065.9 -7.41472 
6793 1 85.0994 1.56282 7.5 6.03192 -142752 -158456 -93490.4 -13250.3 -14524.8 50379.5 -7.41385 
6794 1 85.7955 0.327449 7.5 6.03192 -143929 -157072 -88202.8 12308.3 17707 51196.8 -7.41415 
6953 1 87.2907 7.68016 7.5 6.03194 -139663 -159385 -119975 -16534.9 -1264.15 43262.5 -7.4124 
6955 1 87.2649 5.22429 7.5 6.03194 -140516 -158687 -113110 -15373.7 -5927.68 46197.6 -7.41278 
6957 1 87.2392 2.76843 7.5 6.03194 -141505 -157874 -105062 -14007.7 -10363.8 48865.2 -7.41323 
6959 1 87.2134 0.312565 7.5 6.03192 -142623 -157063 -96040.7 -12438 -14521.8 51248.9 -7.41372 
6952 1 88.0126 8.90065 7.5 6.03194 -147568 -152478 -62121.2 6355.59 27836.8 55972.4 -7.41559 
6954 1 87.9868 6.44478 7.5 6.03194 -146199 -153405 -72168.8 8033.86 24910.2 54903.1 -7.41504 
6956 1 87.961 3.98892 7.5 6.03194 -144915 -154358 -82110.7 9763.3 21586.6 53503.9 -7.4145 
6958 1 87.9352 1.53305 7.5 6.03192 -143722 -155323 -91726 11483.8 17899.6 51789.2 -7.41397 
7117 1 89.4305 8.88576 7.5 6.03194 -138806 -158839 -126691 -16837.1 3830.52 40813 -7.41204 
7118 1 90.1265 7.65039 7.5 6.03194 -146364 -151249 -78004.1 7102.62 25431 54201.1 -7.41474 
7119 1 89.4047 6.4299 7.5 6.03194 -139475 -158019 -121636 -15783.5 -1144.69 43738.6 -7.41233 
7120 1 90.1007 5.19453 7.5 6.03194 -144914 -152231 -87158 8769.65 22020.3 52911.2 -7.41424 
7121 1 89.3789 3.97404 7.5 6.03194 -140322 -157094 -115275 -14518.5 -5933.18 46434.3 -7.41268 
7122 1 90.0749 2.73866 7.5 6.03194 -143598 -153255 -96019.6 10460.6 18253.4 51337.7 -7.41375 