ITEM: TIMESTEP
68
ITEM: NUMBER OF ATOMS
1352
ITEM: BOX BOUNDS pp pp pp
0.0000000000000000e+00 3.1928000000000001e+01
0.0000000000000000e+00 5.5300918199999998e+01
0.0000000000000000e+00 1.5000000000000000e+01
ITEM: ATOMS id type x y z c_csym c_2[1] c_2[2] c_2[3] c_2[4] c_2[5] c_2[6] c_3 
47 1 1.0546 8.56049 3.00427 6.01905 -166396 -124730 -35438.4 -7582.15 7152.92 -9148.54 -7.41296 
48 1 0.29789 7.36148 2.99534 6.01688 -131233 -155615 36295 -9893.38 20295.9 -2007.57 -7.4172 
49 1 0.957284 6.10616 2.98682 6.02459 -175599 -132829 -16287 -21211.5 -1536.34 -4551.43 -7.41329 
50 1 0.200693 4.90724 2.97827 6.01385 -137681 -155169 24572.6 -24179.2 32685.9 -9313.5 -7.41573 
51 1 0.859841 3.65173 2.96882 6.01009 -177675 -132161 -3486.28 -22214.9 23793.4 -5243.88 -7.41357 
52 1 0.102035 2.45354 2.9586 6.0147 -144470 -156633 -3769.25 -13552.3 39968.3 -4066.58 -7.41362 
53 1 0.759559 1.19727 2.95196 6.0158 -160278 -141221 -15144.7 -4364.7 20800.6 -13031 -7.41294 
54 1 -9.23102e-08 2.25982e-06 2.9482 6.02992 -150157 -150193 -21196.8 40.5204 -0.339358 0.207276 -7.41267 
93 1 2.47141 8.50397 3.00564 6.0074 -160579 -129757 22771.6 -11699.5 28325.4 17305.5 -7.41689 
94 1 3.12992 7.24796 2.9969 6.01829 -184903 -107178 -11282.4 -22403.3 -5485.82 -14773.6 -7.41407 
95 1 2.374 6.04857 2.98874 6.01584 -160716 -130343 17831.2 -15400.4 16097.9 4716.54 -7.41575 
96 1 3.03258 4.79254 2.98306 6.01783 -189382 -110398 10800.8 -23203.4 -2390.52 -18151.6 -7.41483 
97 1 2.27643 3.59328 2.97287 6.0086 -169490 -135094 2832.23 -7038.91 33870.8 -12241 -7.41427 
98 1 2.93413 2.33693 2.96896 6.01216 -178967 -120073 11922.7 -3112.39 15446.3 -35307.4 -7.41463 
99 1 2.17615 1.13861 2.95855 6.00684 -159234 -146573 -9543.58 15291.4 19355.6 -26095.5 -7.41321 
138 1 5.30173 8.39043 3.01085 6.00566 -199817 -84613.3 -3099.18 -38450.6 9910.67 -35846.6 -7.41548 
139 1 4.54662 7.19062 2.99984 6.01422 -170974 -118351 -9497.23 -17862.2 10213.1 8607.91 -7.41471 
140 1 5.20524 5.93453 2.99645 6.01581 -178747 -109985 19605.2 -29514.6 -5684.31 -25262.8 -7.41618 
141 1 4.44917 4.73525 2.98809 6.01998 -171817 -131162 -12727.9 -5294.12 5374.59 2276.5 -7.41376 
142 1 5.10762 3.47921 2.98713 6.01517 -171002 -116958 32796.8 -7964.03 1360.01 -23414.6 -7.41655 
143 1 4.35065 2.28023 2.97792 6.0179 -171174 -141548 -9878.55 24127.3 8579.96 -10187.8 -7.41343 
144 1 5.00852 1.02417 2.9796 6.01224 -158456 -137127 17647.5 18270.4 9533.29 -29249.6 -7.4154 
183 1 6.71838 8.33281 3.01818 5.99542 -190685 -97281.2 -33610 -24915.4 25620.2 -15009.4 -7.41429 
184 1 7.37746 7.07686 3.01583 6.0093 -189884 -107044 27686.1 -34611.4 11382.2 -54320.9 -7.41787 
185 1 6.62196 5.87731 3.0036 6.01922 -159017 -131493 -35931.6 -8971.15 1032.64 -10246.4 -7.41324 
186 1 7.28139 4.6218 3.00432 6.01412 -162312 -130642 36852.2 -16690.7 11820.9 -29462.4 -7.41774 
187 1 6.52428 3.42304 2.99468 6.02506 -154814 -146537 -28912.8 14723.2 -5529.3 -1215.86 -7.41292 
188 1 7.18333 2.16752 2.99594 6.01446 -150007 -137124 28366.7 10883.6 16515.6 -11382.6 -7.41674 
189 1 6.42515 0.969084 2.98845 6.02094 -153801 -148077 -5952.09 42237 -13255.3 155.083 -7.41397 
228 1 9.54725 8.22189 3.04573 5.9965 -217157 -87136 61767.9 -24273.3 9989.96 -76563.5 -7.42145 
229 1 8.79415 7.02078 3.02875 5.99321 -171974 -114193 -54751.4 2769.13 15935.7 -32189 -7.41343 
230 1 9.45409 5.76546 3.03019 6.00466 -187167 -124335 51010.7 -6146.91 23648 -58793 -7.41998 
231 1 8.69814 4.56598 3.01553 6.00561 -143066 -142396 -45475.7 17998.3 3170.08 -24063.1 -7.41306 
232 1 9.35806 3.31089 3.01717 6.00242 -157294 -141445 34867.1 15133.7 37119.4 -33342.8 -7.41816 
233 1 8.60004 2.1124 3.00517 6.01628 -138528 -149111 -27346.7 39974.4 -7747.9 -11900.8 -7.41345 
234 1 9.25909 0.857008 3.00702 6.00563 -145948 -142919 3879.44 36256.1 27654.3 -15084.2 -7.41588 
681 2 0.361899 8.61677 6.39568 6.01415 -124147 -168856 36851.8 5225.08 31426.3 4493.14 -7.41774 
682 2 0.459272 6.16294 6.41287 6.01516 -123525 -164340 32796.6 19359.8 20957.8 10528.9 -7.41655 
683 2 0.556771 3.70949 6.43104 6.01214 -131956 -167059 11923.3 23888.9 38299.1 4277.78 -7.41463 
684 2 0.657088 1.25643 6.44804 6.01579 -142309 -159353 -15145.3 6010.41 21686.5 -11497.7 -7.41294 
685 2 1.75233e-07 2.39649e-06 6.4518 6.0299 -150134 -150194 -21196.8 -7.85484 0.218891 0.037958 -7.41267 
723 2 1.77892 8.67344 6.3964 6.01924 -130787 -159893 -35932.2 7509.6 9389.64 4229.22 -7.41324 
724 2 2.53683 7.47514 6.40355 6.0158 -101588 -187172 19605.9 15015.7 19036.1 17554.4 -7.41618 
725 2 1.87626 6.22072 6.41191 6.01998 -136795 -166214 -12728.2 15026.4 716.161 -5792.93 -7.41376 
726 2 2.63417 5.02256 6.41694 6.01783 -110060 -189752 10801 22572.6 14524.7 11146.7 -7.41483 
727 2 1.97366 3.76809 6.42713 6.00863 -137521 -166936 2831.55 11462.1 27535.7 -23212.8 -7.41427 
728 2 2.73256 2.57051 6.43117 6.01012 -124257 -185490 -3486.44 8609.42 16438.5 -17984.6 -7.41357 
729 2 2.07381 1.31513 6.4414 6.01469 -141912 -159170 -3769.69 -12096.8 23507.2 -32579.9 -7.41362 
730 2 2.83334 0.117729 6.43852 6.00644 -149995 -154172 -4754.2 -8607.67 -4237.5 -41764.5 -7.4136 
768 2 4.61546 8.78665 6.38915 6.00565 -80157.3 -204339 -3099.08 30657.9 35999.2 9340.41 -7.41548 
769 2 3.95395 7.5328 6.40016 6.01419 -115982 -173321 -9496.87 13849 -2347.93 -13148.2 -7.41471 
770 2 4.71195 6.33457 6.4031 6.01829 -107237 -184816 -11282.8 22494 10051.5 12137.7 -7.41407 
771 2 4.05121 5.08023 6.41126 6.0158 -124627 -166383 17831.3 5448.12 3963.93 -16300.3 -7.41575 
772 2 4.80945 3.88211 6.41318 6.02457 -125159 -183179 -16286.8 7975.27 3173.65 3606.48 -7.41329 
773 2 4.14945 2.62743 6.42173 6.01384 -129811 -163019 24572.6 -19698.1 24408.5 -23650.3 -7.41573 
774 2 4.90846 1.42958 6.42076 6.0161 -140444 -169119 -7311.42 -16104.7 -2866.3 -18611.5 -7.41375 
775 2 4.25 0.174077 6.42714 6.01378 -149782 -154150 8010.48 -39920.4 11680.7 -22431.3 -7.41435 
813 2 6.03272 8.8446 6.37996 5.99211 -91338.8 -198924 1476.02 28107 9602.48 -49343.6 -7.41633 
814 2 6.79045 7.64624 6.38239 6.00215 -91779.4 -190290 -30930.1 34177.9 25225.7 -9807.93 -7.4138 
815 2 6.12895 6.39229 6.39436 6.00741 -127306 -162963 22771.2 7440.38 -823.999 -33183.6 -7.41689 
816 2 6.88631 5.19355 6.39573 6.01908 -128626 -162469 -35438.4 14307.4 11499.2 -1620.26 -7.41296 
817 2 6.22628 3.93872 6.40466 6.01689 -140899 -145941 36295.2 -15543.3 11885.8 -16572.5 -7.4172 
818 2 6.98421 2.74015 6.4053 6.02373 -145230 -154335 -27981.3 -10773.5 1956.07 1900.09 -7.41311 
819 2 6.32518 1.48483 6.41159 6.01575 -146310 -144412 24094.6 -41517.7 21651.4 -5590.38 -7.41599 
820 2 7.08374 0.286491 6.40854 6.01846 -148265 -146013 -958.004 -25822.7 -10276.7 -2575.7 -7.4147 
858 2 8.8718 8.95536 6.35266 5.9945 -61322.6 -225564 -50394.4 38194.4 27893.4 -15259.8 -7.41359 
859 2 8.20756 7.70311 6.36783 5.9899 -109385 -192125 41759.7 6273.24 14588.3 -66010.2 -7.41921 
860 2 8.96442 6.50399 6.36965 5.99435 -104809 -178405 -52736.3 14493.1 23794 -22465.3 -7.41325 
861 2 8.30307 5.24997 6.38368 6.00854 -148597 -153714 40684.5 -15680.7 21977.4 -42614.7 -7.41857 
862 2 9.06018 4.05087 6.38524 6.00703 -136070 -150053 -46402.9 -8418.09 18238.9 -17195.7 -7.41317 
863 2 8.40083 2.79564 6.39579 6.01499 -157772 -134476 28941.9 -38741.1 28785.4 -21649.1 -7.41728 
864 2 9.15889 1.59696 6.39452 6.01142 -146487 -141867 -28472.7 -32849.1 53.5604 -11248.1 -7.41392 
865 2 8.50037 0.341295 6.40005 6.01383 -148902 -138699 1369.98 -52395.9 22602.7 -9507.01 -7.41516 
903 2 10.2893 9.00984 6.33732 5.98472 -75582.4 -220407 86883.4 -1865.32 17500.2 -60884.8 -7.42355 
905 2 10.3814 6.55799 6.35336 6.0028 -123122 -190828 71784.9 -28736.2 40169.3 -52183.8 -7.422 
907 2 10.4768 4.10472 6.37036 6.00453 -151473 -155754 45144.3 -50343.4 49811 -47061.4 -7.41968 
909 2 10.5755 1.65038 6.38133 6.00191 -151909 -137346 13261.8 -75105 40748.4 -38367.3 -7.41701 
273 1 10.9639 8.16896 3.05935 5.99595 -198402 -94024.2 -94878.4 17831.8 18590.6 -12809.9 -7.41214 
274 1 11.6242 6.91362 3.06159 6.00487 -211326 -97002.9 102063 15047.6 8198.76 -59895.4 -7.4246 
275 1 10.8707 5.71238 3.04538 5.9946 -167148 -118482 -71509.2 41637.9 9564.85 -27909.4 -7.41291 
276 1 11.5311 4.45737 3.04763 5.99155 -186024 -120964 66891 38494.3 42025.8 -53984 -7.42158 
277 1 10.7747 3.25764 3.03143 5.99377 -142042 -140587 -44661.2 62319.3 3697.19 -33079.5 -7.41354 
278 1 11.4343 2.00249 3.03319 5.98211 -156506 -137490 25870.5 67652.3 55809.8 -44439.9 -7.41823 
279 1 10.6758 0.803834 3.01995 6.00002 -139475 -142111 -18787.6 81226.6 -15280.3 -32129.3 -7.41471 
318 1 13.7935 8.06553 3.0832 6.0062 -182978 -91393.5 174199 15524.7 -7079.47 -26454.7 -7.42957 
319 1 13.0408 6.86357 3.07202 6.01667 -187791 -101508 -133886 49130.9 -6218.56 4171.99 -7.41012 
320 1 13.7021 5.60881 3.07461 5.99605 -188856 -99128.8 125465 51462.2 20502.4 -34295.5 -7.42654 
321 1 12.9476 4.40758 3.06122 6.00514 -168402 -123544 -77451.7 83770.7 -5944.41 -19924.3 -7.41256 
322 1 13.6082 3.15283 3.06205 5.97069 -168956 -118428 67434 94731.2 64388 -40125.1 -7.42214 
323 1 12.8509 1.95298 3.04823 5.99136 -145890 -140967 -33714.9 119822 -10477.7 -31444.6 -7.41441 
324 1 13.5096 0.697699 3.05048 5.97095 -150556 -139218 11825.6 128931 56745.6 -45889.3 -7.41779 
363 1 15.2103 8.01541 3.08365 6.01893 -157382 -122269 -202222 25368.2 -16838.9 10430.4 -7.40639 
364 1 15.8735 6.76175 3.08572 6.00196 -144251 -121163 178409 42791.6 14070.2 -4171.55 -7.42987 
365 1 15.1186 5.56058 3.07853 6.00956 -165965 -129247 -133489 70063.8 -28092.1 2755.1 -7.40991 
366 1 15.7811 4.30673 3.07691 5.97883 -153571 -120942 111809 88867.7 52344.1 -1214.16 -7.42572 
367 1 15.0248 3.10614 3.06894 5.99366 -155839 -144275 -60155.9 122702 -14717.4 -2803.41 -7.41333 
368 1 15.6848 1.85146 3.06583 5.96411 -150838 -130070 44986.8 144916 72418.1 -10629.7 -7.42051 
369 1 14.9264 0.651823 3.06021 5.97867 -145850 -144381 -10301.3 162574 -34976.7 -5859.31 -7.41606 
407 1 17.3813 9.16481 3.08365 6.01895 -108995 -170682 -202222 2464.7 -613.798 -19798.3 -7.40639 
408 1 18.0463 7.91277 3.0832 6.0062 -101012 -173454 174200 32121.8 26450.7 7095.85 -7.42957 
409 1 17.2904 6.71236 3.07938 6.01182 -118521 -169844 -164446 38592.8 -26661.3 -1208.99 -7.4085 
410 1 17.9546 5.4598 3.07368 5.99116 -123996 -161849 127184 65871.9 51630.5 23490.5 -7.42649 
411 1 17.1979 4.25972 3.0707 5.99449 -136019 -165910 -91265.5 81635 -13419.4 19481.5 -7.41211 
412 1 17.8595 3.00587 3.06159 5.97622 -141399 -142650 64908.3 113247 69442.2 32935.4 -7.422 
413 1 17.1016 1.80624 3.06129 5.97926 -143733 -156268 -33420.6 137509 -16639.2 31360.2 -7.41489 
414 1 17.7603 0.551127 3.05491 5.97603 -144297 -139613 10890.2 153923 50896.3 23310.2 -7.41755 
452 1 20.2196 9.06199 3.07461 5.99606 -77136.5 -210744 125464 13361.7 19448.9 34904 -7.42653 
453 1 19.4636 7.86184 3.07202 6.01668 -80399.9 -208929 -133886 12470.9 -503.645 -7471.38 -7.41012 
454 1 20.1285 6.61009 3.06159 6.00487 -112689 -195514 102063 42367 47771.1 37048.7 -7.4246 
455 1 19.3715 5.41051 3.05935 5.99599 -104457 -187889 -94878.8 35919.9 1798.13 22505.6 -7.41214 
456 1 20.034 4.15721 3.04573 5.99646 -140822 -163476 61768 68685.8 61311.2 46933.4 -7.42146 
457 1 19.2763 2.95797 3.04625 5.98151 -130527 -164979 -52767 75824.1 6215.7 41593.4 -7.41396 
458 1 19.9357 1.70303 3.03446 5.98974 -146876 -140861 19812.1 102333 51368.6 45467 -7.41798 
459 1 19.177 0.504145 3.04094 5.97449 -144704 -147968 -14967.7 111019 -29434.6 47670.4 -7.41595 
904 2 11.0456 7.81013 6.33939 6.0052 -75904.7 -213582 -93388.6 1529.47 13623.4 -7257.3 -7.41201 
906 2 11.1383 5.3586 6.35551 5.99157 -106684 -180675 -72420.5 -18871 16343.2 -27780.4 -7.41299 
908 2 11.2345 2.90568 6.37004 5.9893 -133088 -156123 -47780.7 -50178.2 12680.1 -36588 -7.41389 
910 2 11.3342 0.451766 6.37505 5.98613 -144480 -145268 -18107.8 -76535.1 -22175.2 -38819.3 -7.41542 
948 2 13.1286 9.11311 6.32028 6.01708 -85078.4 -202813 -163633 -2087.76 3365.57 24035.7 -7.40846 
949 2 12.4629 7.86174 6.3254 6.00478 -93977.2 -198777 137039 -32902.7 34915.6 -22798.1 -7.4272 
950 2 13.2194 6.66177 6.32841 6.01009 -96119.2 -194074 -134610 -29350.7 -11720.3 -2882.48 -7.41017 
951 2 12.5552 5.40942 6.33889 5.99625 -124400 -178768 97528.8 -59929 57690.9 -36711.6 -7.42431 
952 2 13.3125 4.20985 6.34032 5.98922 -121697 -176110 -79495.2 -63839.6 345.689 -30736.2 -7.4128 
953 2 12.6512 2.95585 6.35281 5.9872 -143337 -149206 48457.1 -96697.9 64465.6 -46001.4 -7.42049 
954 2 13.4094 1.75663 6.35031 5.97553 -139722 -157464 -34215.5 -112584 -10124 -44500 -7.4149 
955 2 12.7508 0.501339 6.35879 5.98289 -143314 -139847 3623.88 -128612 41411.5 -39110.2 -7.41682 
993 2 14.546 9.1651 6.31238 6.00849 -102946 -158553 196209 -8304.45 9150.51 -3671.5 -7.43093 
994 2 15.3008 7.96416 6.3164 6.01819 -126147 -153531 -202368 -22815.2 -20146.7 6007.73 -7.4064 
995 2 14.6365 6.71151 6.31735 5.99876 -119111 -153905 167858 -47339.6 30921.9 -8062.3 -7.42913 
996 2 15.3924 5.51098 6.32183 6.0049 -141090 -155178 -134202 -62877.7 -28025.7 -6848.24 -7.40996 
997 2 14.7293 4.2577 6.32746 5.98041 -138143 -141612 104778 -90007.6 60384.7 -21805.7 -7.42507 
998 2 15.4862 3.05754 6.3312 5.9885 -146467 -156669 -60571.3 -117795 -12311.6 -17527 -7.41345 
999 2 14.8262 1.80297 6.33804 5.96987 -145560 -135640 40817.6 -144248 68643.3 -17541.8 -7.42008 
1000 2 15.5847 0.603439 6.33815 5.97687 -146492 -147155 -9111.48 -161995 -37891.2 -20925.3 -7.41629 
1039 2 16.7178 8.01469 6.31238 6.00846 -151670 -109647 196210 -20004.2 -1395.69 9759.81 -7.43093 
1040 2 17.4715 6.81314 6.32028 6.01708 -175308 -112588 -163634 -49746.4 -22498.7 -9102.39 -7.40846 
1041 2 16.8091 5.55903 6.31879 5.99308 -164190 -109287 144113 -60832.3 25604.9 12382 -7.42786 
1042 2 17.5641 4.35786 6.32849 6.00551 -167855 -129985 -89980.8 -94318.7 -17365.7 7342.53 -7.41195 
1043 2 16.903 3.10347 6.32988 5.9678 -159022 -119834 75761 -113075 67709.2 18036.9 -7.42303 
1044 2 17.6603 1.90337 6.33974 5.9872 -149236 -143888 -33597.2 -142275 -17160.6 15188.8 -7.41458 
1045 2 17.0015 0.648224 6.33961 5.96818 -149465 -138369 15961.6 -154782 60386.8 29801.4 -7.41816 
1084 2 19.549 8.11746 6.32841 6.01009 -195225 -94910.9 -134610 -27359.9 8356.34 -8708.56 -7.41017 
1085 2 18.8881 6.86236 6.3254 6.00477 -200893 -91819 137038 -29218.6 2285.71 41636.5 -7.4272 
1086 2 19.6414 5.66071 6.33939 6.00521 -177990 -111467 -93388.6 -60122 -526.564 15426.7 -7.41201 
1087 2 18.9806 4.40587 6.33732 5.98472 -185604 -110283 86882.2 -62000.7 43977.7 45598.2 -7.42355 
1088 2 19.7365 3.20552 6.35266 5.99449 -151445 -135452 -50394.6 -90183.6 -731.052 31786.5 -7.41358 
1089 2 19.077 1.95045 6.35125 5.97046 -158831 -131298 34903.3 -100789 65913.5 47561.7 -7.41935 
1090 2 19.8353 0.751362 6.3645 5.98979 -141004 -141409 -17415.5 -113707 -20158.3 37570.3 -7.41521 
1129 2 20.9657 8.16845 6.33889 5.99626 -216903 -86311.4 97526.9 6079.14 2947.91 68318.2 -7.42431 
1131 2 21.0579 5.71156 6.35336 6.00281 -198641 -115252 71786 -15253.1 25107.7 60879.1 -7.422 
1133 2 21.1531 3.2564 6.36783 5.98988 -165956 -135578 41760.1 -39042.3 49872 45639.4 -7.41921 
1135 2 21.252 0.802185 6.37996 5.99209 -147652 -142628 1475.92 -60635.6 37931.3 32988.3 -7.41633 
497 1 21.6371 9.00915 3.06122 6.00516 -62136.3 -229856 -77450.8 -22586.7 20228.3 4814.6 -7.41256 
498 1 22.3023 7.75753 3.04763 5.99156 -104041 -203046 66892 9158.49 25738.6 63387.2 -7.42158 
499 1 21.5456 6.55811 3.04538 5.99457 -94447.6 -191209 -71508.7 80.4849 19387.5 22237.4 -7.41291 
500 1 22.2079 5.30476 3.03019 6.00465 -145477 -166028 51010.9 30489 39092.9 49875.4 -7.41998 
501 1 21.4507 4.10557 3.02875 5.99322 -126189 -160036 -54751.3 23539.9 19909.1 29894.5 -7.41343 
502 1 22.1105 2.85064 3.01583 6.00931 -157796 -139214 27686.5 53305.4 41352.3 37017.5 -7.41787 
503 1 21.3524 1.65188 3.01818 5.9954 -142137 -145806 -33610.2 52872.4 187.397 29693 -7.41429 
504 1 22.0108 0.396225 3.01085 6.00566 -146774 -137806 -3099.63 69049.7 26088.9 26506.7 -7.41548 
542 1 24.4767 8.90112 3.03319 5.98208 -83716.7 -210305 25871.4 -25573.1 10581.4 70553.3 -7.41823 
543 1 23.7194 7.70237 3.03143 5.99373 -86993.5 -195681 -44660.2 -30546.2 26799.5 19741.6 -7.41354 
544 1 24.3817 6.44887 3.01717 6.00242 -132420 -166379 34866.9 -583.618 10317.1 48817.3 -7.41816 
545 1 23.6247 5.24982 3.01553 6.00562 -126891 -158445 -45476.4 -8815.6 19254.1 14777.4 -7.41306 
546 1 24.2847 3.99497 3.00432 6.01413 -153070 -139878 36851.8 22050.1 19604.5 24969.9 -7.41774 
547 1 23.5271 2.79613 3.0036 6.01921 -146125 -144481 -35931.5 16331.6 8357.96 6017.82 -7.41324 
548 1 24.1859 1.54061 2.99645 6.01581 -152756 -136003 19605.6 44585.6 24721 7708.3 -7.41618 
549 1 23.4274 0.342181 2.99984 6.01421 -147019 -142293 -9496.65 31705 -12560.9 4541.28 -7.41471 
587 1 25.894 8.84356 3.01995 6.00004 -71122.4 -210447 -18787.2 -41727.5 35465.8 2831.96 -7.41471 
588 1 26.5563 7.59011 3.00702 6.00566 -112295 -176658 3878.95 -16796.2 -763.857 31490.5 -7.41588 
589 1 25.7986 6.39165 3.00517 6.01629 -111912 -175868 -27347.4 -24657.3 14181 -759.94 -7.41345 
590 1 26.4592 5.13719 2.99594 6.01446 -130919 -156161 28366.7 159.735 1599.67 19994.7 -7.41674 
591 1 25.7014 3.93867 2.99468 6.02506 -135855 -165518 -28913 -3886.53 3817.78 -4179.8 -7.41292 
592 1 26.3611 2.68372 2.98713 6.01517 -137429 -150546 32796.6 27457.7 19597.7 12884.9 -7.41655 
593 1 25.6026 1.48547 2.98809 6.01998 -145849 -157134 -12728.3 20171.6 -4659.25 3516.29 -7.41376 
594 1 26.2612 0.230022 2.98306 6.01784 -150230 -149587 10801 45803 16914.9 7005.55 -7.41483 
632 1 28.7316 8.73031 3.00548 6.01145 -114502 -173784 -28472.8 -14415.7 9768.36 5577.63 -7.41392 
633 1 27.9734 7.53218 2.99995 6.01383 -95847 -191697 1369.7 -21783.3 19534.9 -14820.3 -7.41516 
634 1 28.6342 6.27794 2.99146 6.01846 -124143 -170070 -957.75 -11961.6 -2906.85 10187.9 -7.4147 
635 1 27.8762 5.0798 2.98845 6.02093 -112860 -188953 -5952.18 -18679.7 6492.5 -11557.2 -7.41397 
636 1 28.5368 3.82542 2.9796 6.01224 -126526 -169000 17647.8 39.5879 20563.6 22880.4 -7.4154 
637 1 27.7779 2.62766 2.97792 6.01787 -128072 -184754 -9878.58 694.325 4533.24 12524.5 -7.41343 
638 1 28.4371 1.37257 2.96896 6.01214 -137536 -161465 11922.7 27173.6 22854.1 31030.1 -7.41463 
639 1 27.6779 0.174807 2.97287 6.00862 -149705 -154831 2831.82 18373.5 -6334.61 35453.3 -7.41427 
669 1 30.1487 8.67315 3.00421 6.015 -106760 -185552 28941.8 -9237.23 33140.4 -14104.6 -7.41728 
670 1 30.8089 7.41858 2.9947 6.02373 -142673 -156920 -27980.8 -9411.52 -667.712 -2644.78 -7.41311 
671 1 30.0513 6.22018 2.98841 6.01577 -108927 -181712 24094.3 -19909.2 15666.3 -15955.5 -7.41599 
672 1 30.7118 4.96564 2.97924 6.01611 -147911 -161520 -7311.99 -20549.5 14684.2 11789 -7.41375 
673 1 29.9538 3.76764 2.97286 6.0138 -118414 -185420 8010.25 -21706.9 25265.7 1099.36 -7.41435 
674 1 30.6133 2.51261 2.96148 6.00641 -145720 -158561 -4753.66 -6085.27 34051.1 24551.8 -7.4136 
675 1 29.8539 1.31529 2.95855 6.00688 -136508 -169344 -9543.31 -2139.33 12921.8 29809.7 -7.41321 
676 1 30.5114 0.0591627 2.95196 6.01582 -149810 -151802 -15144.7 10457.8 885.54 24529.9 -7.41294 
1130 2 21.7182 6.96678 6.35551 5.99156 -178728 -108680 -72420.8 -22358.2 15886.3 28043.9 -7.41299 
1132 2 21.8132 4.51142 6.36965 5.99435 -147445 -135663 -52736.3 -39042.2 7559.61 31838.2 -7.41325 
1134 2 21.9109 2.05758 6.38239 6.00216 -136110 -145992 -30930.2 -59713.1 -4119.31 26750.1 -7.4138 
1174 2 23.7944 8.27654 6.37004 5.98928 -193875 -95282.2 -47780 15248.7 25347 29275.4 -7.41389 
1175 2 23.1348 7.02085 6.37036 6.00452 -198227 -109054 45145.3 23152.1 15850.2 66669.1 -7.41968 
1176 2 23.8898 5.82091 6.38524 6.00706 -153845 -132179 -46403.3 -1699.42 5772.75 24393 -7.41317 
1177 2 23.2299 4.56568 6.38368 6.00855 -165924 -136298 40685.1 5599.91 25917.2 40340.9 -7.41857 
1178 2 23.9871 3.36694 6.39573 6.01904 -141661 -149491 -35437.8 -21728.2 -4346.36 10769.6 -7.41296 
1179 2 23.3276 2.11168 6.39436 6.00739 -147579 -142713 22771 -19266.1 29150.3 15878 -7.41689 
1180 2 24.0861 0.913386 6.4031 6.01829 -145955 -146110 -11282.8 -44839.9 -15537.3 2635.92 -7.41407 
1219 2 25.211 8.33345 6.38133 6.0019 -206003 -83284.3 13261.9 43850.5 12851.9 54473.4 -7.41701 
1220 2 25.9655 7.13336 6.39452 6.01146 -171497 -116930 -28473.4 18465.4 9713.99 5670.97 -7.41392 
1221 2 25.3065 5.87752 6.39579 6.01501 -173758 -118409 28941.6 29357.5 4356.48 35752.1 -7.41728 
1222 2 26.0629 4.67843 6.4053 6.02373 -161427 -138048 -27981.2 1501.34 -2623.45 743.454 -7.41311 
1223 2 25.4038 3.42276 6.40466 6.01688 -158075 -128682 36295.5 5540.52 8409.67 18580.3 -7.4172 
1224 2 26.1613 2.22405 6.41318 6.02459 -161797 -146539 -16287.1 -29080.1 -4709.78 945 -7.41329 
1225 2 25.5028 0.968334 6.41126 6.01583 -151268 -139828 17830.8 -20815.1 12134.1 11583.4 -7.41575 
1264 2 28.0406 8.44711 6.39298 6.00564 -175080 -113803 3879.21 19350.6 26890.9 -16407.5 -7.41588 
1265 2 27.3822 7.19089 6.40005 6.01383 -186657 -100979 1369.46 30571.4 -3067.36 24328.4 -7.41516 
1266 2 28.138 5.99145 6.40853 6.01845 -168942 -125225 -957.943 13922.5 7369.61 -7611.87 -7.4147 
1267 2 27.4795 4.73535 6.41159 6.01574 -180825 -109905 24095.1 21582.2 -5984.81 21545.7 -7.41599 
1268 2 28.2357 3.53606 6.42076 6.01611 -175938 -133689 -7311.76 -4229.81 17550.9 6823.42 -7.41375 
1269 2 27.5779 2.27982 6.42173 6.01385 -171714 -121088 24572.7 -4608.67 8277.33 32963.6 -7.41573 
1270 2 28.3356 1.08122 6.43117 6.01013 -162852 -147040 -3486.3 -30887.9 7354.84 23227.5 -7.41357 
1309 2 29.4574 8.50405 6.39483 6.01627 -181145 -106513 -27347 15472.3 6432.17 12660.9 -7.41345 
1310 2 30.2135 7.30471 6.40406 6.01446 -149699 -137413 28366.3 10981 18115.5 -8612.04 -7.41674 
1311 2 29.5547 6.04888 6.41155 6.02092 -186106 -115781 -5951.87 23603.9 -6762.24 11401.8 -7.41397 
1312 2 30.3107 4.84959 6.4204 6.01223 -158404 -137241 17647.8 18392.4 30096.8 6368.66 -7.4154 
1313 2 29.6522 3.59357 6.42714 6.01379 -187565 -116326 8010.52 18036.2 13584.8 21331.3 -7.41435 
1314 2 30.4094 2.39488 6.43852 6.00638 -160608 -143575 -4753.34 2552.21 38288 17212.6 -7.4136 
1315 2 29.7522 1.1384 6.4414 6.01465 -165459 -135775 -3768.99 -1479.46 16461 36647.7 -7.41362 
1350 2 31.6303 7.36171 6.40532 6.02509 -161364 -139960 -28912.7 10999.7 -1710.98 5396.56 -7.41292 
1351 2 31.7274 4.90789 6.42208 6.01788 -170017 -142823 -9878.25 25010.6 13112.1 -2336.61 -7.41343 
1352 2 31.826 2.4539 6.44145 6.00685 -162998 -142861 -9543.56 13109 32276.7 -3712.94 -7.41321 
39 1 1.41644 18.3817 3.0836 6.0182 -166501 -113209 -202369 284.995 -4869.91 -20451.3 -7.4064 
40 1 0.664185 17.1798 3.08762 6.00848 -137422 -123942 196210 -28141.3 7755.19 -6088.28 -7.43093 
41 1 1.32789 15.9263 3.07972 6.0171 -171529 -116390 -163635 -52266.6 -19132.7 -14931.5 -7.40846 
42 1 0.576997 14.7241 3.0746 6.00478 -144189 -148425 137040 -61540.9 37200.7 -18838.1 -7.4272 
43 1 1.24097 13.4708 3.06061 6.0052 -180276 -109048 -93388.8 -59085.3 13096.9 -8168.1 -7.41201 
44 1 0.488683 12.2695 3.04664 6.00281 -149162 -164725 71784.4 -43411.3 65277.3 -8695.01 -7.422 
45 1 1.15041 11.0154 3.03035 5.99436 -172474 -110686 -52735.9 -24723.1 31352.5 -9373.06 -7.41325 
46 1 0.395069 9.81565 3.01632 6.00854 -138879 -163390 40684.3 -9969 47894.5 2274.55 -7.41857 
85 1 2.83344 18.3307 3.08265 5.99875 -186080 -86936.6 167857 -8375.52 8478.95 30810.5 -7.42914 
86 1 3.49515 17.0758 3.07817 6.00489 -206311 -89992.6 -134202 -25604.3 -19942.7 -20847.5 -7.40996 
87 1 2.74521 15.8729 3.08121 5.99311 -175613 -97938.8 144114 -53946 23526.2 15983 -7.42786 
88 1 3.40793 14.6184 3.07151 6.0055 -221183 -76675.3 -89980.8 -63767.3 -2324.29 -18711.2 -7.41196 
89 1 2.65811 13.4157 3.06268 5.98471 -182674 -113220 86882.4 -63403.1 61477.5 15286.9 -7.42355 
90 1 3.31967 12.1609 3.04734 5.99451 -217607 -69264.8 -50394.3 -52044.1 27162.4 -16525.7 -7.41358 
91 1 2.56731 10.9595 3.03217 5.98991 -176912 -124566 41759.7 -32592.9 64460.8 20371.1 -7.41921 
92 1 3.22661 9.70382 3.01761 6.00214 -195209 -86858.4 -30930.1 -25629.5 21106.1 -16942.3 -7.4138 
130 1 5.66194 18.2265 3.05968 5.98922 -217921 -79842.2 -79494.9 -8707.53 -26446.1 15667.5 -7.4128 
131 1 4.91208 17.0234 3.07254 5.98043 -218559 -61260.7 104778 -43202.6 11308.3 63197.8 -7.42507 
132 1 5.57297 15.7677 3.06881 5.98851 -256346 -46915.9 -60570.8 -54767.4 -21334.3 -1898.29 -7.41345 
133 1 4.82484 14.5638 3.07012 5.96777 -227400 -51444.5 75762.5 -73378.4 49475.3 49619.1 -7.42303 
134 1 5.48549 13.3079 3.06026 5.9872 -268377 -24653.7 -33597.7 -73435.5 4574.44 -22455.8 -7.41457 
135 1 4.73638 12.1045 3.04875 5.97049 -225489 -64683.5 34902.6 -62261.3 74147.6 33301.4 -7.41935 
136 1 5.39563 10.8482 3.0355 5.9898 -239777 -42743 -17416.3 -56640.5 22458 -36243 -7.41521 
137 1 4.64329 9.64679 3.02004 5.99209 -196343 -93836.6 1476.67 -32527.3 47534.4 16356.2 -7.41633 
175 1 7.07855 18.1721 3.04719 5.98718 -231275 -61237.7 48458.7 -45533.7 -7606.25 78829.2 -7.42049 
176 1 7.73801 16.9159 3.04969 5.97554 -250682 -46550.7 -34216 -48766.1 -43600.3 13482.7 -7.4149 
177 1 6.98949 15.7121 3.06196 5.96986 -262963 -18215.1 40818.8 -76223.6 19130.9 68217.2 -7.42008 
178 1 7.64905 14.4554 3.06185 5.97685 -287346 -6302.19 -9112.08 -80872.3 -37066.4 -22351.8 -7.41629 
179 1 6.90187 13.2508 3.06039 5.96815 -275194 -12558.7 15961.9 -82335.9 56002.8 37396.3 -7.41816 
180 1 7.56113 11.994 3.05491 5.97603 -274073 -9829.55 10889.4 -78890.2 -5260.8 -55732.7 -7.41755 
181 1 6.81208 10.7906 3.04094 5.97449 -243350 -49246.4 -14967.4 -54224.1 56001 1656.66 -7.41595 
182 1 7.47099 9.53408 3.03446 5.98974 -230879 -56817.3 19812.2 -53694 13691.4 -67220.3 -7.41798 
220 1 9.90568 18.0607 3.02495 5.98611 -211367 -78405 -18107.9 -38004.4 -44704.8 206.253 -7.41542 
221 1 9.15442 16.8586 3.04121 5.98289 -252104 -31183.2 3624.95 -65720.5 -13163.7 55419.5 -7.41683 
222 1 9.81341 15.6019 3.05048 5.97096 -253824 -35999.8 11825.4 -69447.3 -68113.7 -26199.1 -7.41779 
223 1 9.0653 14.3979 3.06021 5.97866 -285482 -4618.77 -10300.8 -81924.4 12414.6 33220.2 -7.41606 
224 1 9.72502 13.1413 3.06583 5.96408 -260707 -20119.4 44987.5 -81389.1 -45414.2 -57401.7 -7.42051 
225 1 8.97746 11.9369 3.06129 5.97926 -272424 -27624.1 -33421.4 -63566.8 35478.1 -1270.43 -7.41489 
226 1 9.6374 10.6807 3.06159 5.97621 -240205 -43822.2 64908.7 -55812 -6198.01 -76606.3 -7.422 
227 1 8.88753 9.47772 3.04625 5.98151 -222098 -73352.9 -52767.4 -23249.6 32913.8 -26180.1 -7.41396 
678 2 0.0881996 15.9783 6.3168 6.00622 -127656 -146803 174200 47244.5 19370.2 19358.8 -7.42957 
679 2 0.175242 13.5237 6.33841 6.00488 -138319 -169861 102063 56669.1 55970.1 22846.6 -7.4246 
680 2 0.265986 11.0702 6.36981 6.00463 -134564 -176924 51010.8 23974.4 62740.4 8917.99 -7.41998 
716 2 2.17141 17.2845 6.31428 6.00197 -90007.4 -175388 178410 11183.7 3422.65 14271.2 -7.42987 
717 2 1.50574 16.0327 6.32062 6.01185 -123486 -164950 -164447 41805.8 -14377.2 -22483.6 -7.4085 
718 2 2.25837 14.8312 6.32632 5.99116 -95508.6 -190386 127183 49020.8 46158.6 32968.7 -7.42649 
719 2 1.59259 13.5795 6.34065 5.996 -135716 -156680 -94878.8 54418.2 20389.7 -9694.48 -7.41214 
720 2 2.34675 12.3791 6.35427 5.99646 -98448.7 -205856 61766.8 43881.7 71301.3 29630.1 -7.42146 
721 2 1.6831 11.1264 6.37125 5.9932 -131066 -155134 -54751.1 26563.9 35844.3 2294.63 -7.41343 
722 2 2.44001 9.9275 6.38417 6.00929 -97826.5 -199252 27686 18477.2 52734.4 17303.9 -7.41787 
761 2 3.58908 17.3376 6.32147 6.00956 -77663.1 -217567 -133489 19367.8 -11660.3 -25705.4 -7.40991 
762 2 4.3437 16.137 6.32309 5.97884 -52271.5 -222190 111809 30080 25121.3 45938.1 -7.42572 
763 2 3.67605 14.8865 6.3293 5.99448 -87468.2 -214319 -91265.8 54107.9 10161.9 -21363.3 -7.41211 
764 2 4.43107 13.6866 6.33841 5.97622 -44417 -239583 64908.2 56878.8 63244.2 43670.2 -7.422 
765 2 3.76418 12.4357 6.35375 5.98153 -90551.9 -204927 -52767.4 53094.8 39129.5 -15413.6 -7.41395 
766 2 4.52126 11.2371 6.36554 5.98974 -53785.9 -233976 19812.9 48449 65060.2 21753.7 -7.41798 
767 2 3.85723 9.98469 6.38182 5.9954 -99137.5 -188901 -33609.9 27998.6 25809.4 -14683 -7.41429 
806 2 6.42949 17.4419 6.33795 5.97072 -49069.7 -238287 67433.7 25310.7 -2555.45 75823.7 -7.42214 
807 2 5.76161 16.1917 6.33106 5.99366 -40841.7 -259315 -60155.6 56485.4 -9785.81 -11344.5 -7.41334 
808 2 6.51819 14.9928 6.33417 5.96414 -9814.69 -271099 44987 63361 27003.4 68031.8 -7.42051 
809 2 5.84897 13.7432 6.33871 5.9793 -33962.3 -266115 -33421.2 74406.1 18839.6 -30089.8 -7.41489 
810 2 6.60656 12.5451 6.34509 5.97603 -7537.18 -276354 10890.8 74855.6 45636.2 32421.6 -7.41755 
811 2 5.93888 11.2947 6.35906 5.97445 -50868.2 -241719 -14968.4 57083 26566.3 -49325.9 -7.41595 
812 2 6.69703 10.0969 6.3645 5.9898 -42893.4 -239611 -17416.1 56956.6 42616.4 -1327.12 -7.41521 
851 2 7.84722 17.4977 6.35177 5.99135 -38403.8 -248371 -33716.1 57751.5 -32469 6648.81 -7.41441 
852 2 8.60496 16.2996 6.34952 5.97094 -30302.2 -259413 11827.4 59687.8 -11367.1 72088.7 -7.41779 
853 2 7.93631 15.0497 6.33979 5.97867 -3904.94 -286221 -10303 80628.8 -22562 -27360.3 -7.41606 
854 2 8.69424 13.852 6.33815 5.97687 -6565.95 -287058 -9111.29 81376.6 824.981 43276.8 -7.41629 
855 2 8.02462 12.6026 6.33961 5.96819 -7013.9 -280834 15961.8 72679.5 -4384.58 -67197.4 -7.41816 
856 2 8.78222 11.4045 6.33974 5.98721 -22001.1 -271103 -33597.3 68853.8 21734.1 7266.8 -7.41457 
857 2 8.11466 10.1541 6.35125 5.97048 -50908.6 -239210 34902.9 38463 8233.12 -80863.4 -7.41935 
897 2 10.0228 16.3573 6.35879 5.98289 -29410.3 -253818 3624.7 62719.7 -54575.9 -16309.3 -7.41682 
899 2 10.1123 13.9091 6.33804 5.96987 -13266.5 -267873 40818.9 67699.4 -49511.7 -50675.5 -7.42008 
901 2 10.2002 11.4603 6.32988 5.96778 -31774.1 -247017 75760.4 39364.5 -18233.6 -67656.9 -7.42303 
265 1 11.3223 18.0031 3.01995 6.00002 -211783 -69703.9 -18787.4 -39474.4 -20185.4 29297.2 -7.41471 
266 1 11.9811 16.7469 3.03319 5.98209 -200836 -93178.2 25871 -42047.4 -66391.2 -26112.9 -7.41823 
267 1 11.2299 15.5448 3.04823 5.99138 -245997 -40925.6 -33715.3 -62020.5 -21992.5 24796 -7.41441 
268 1 11.8904 14.289 3.06205 5.97069 -212914 -74358.3 67433.2 -69098.4 -66943.6 -35698.8 -7.42214 
269 1 11.1416 13.0855 3.06894 5.99366 -253489 -46622.9 -60155.9 -66503.3 4931.83 14147 -7.41333 
270 1 11.8032 11.8302 3.07691 5.97887 -205886 -68598.6 111808 -58300.8 -27223.8 -44725.3 -7.42572 