ITEM: TIMESTEP
0
ITEM: NUMBER OF ATOMS
1352
ITEM: BOX BOUNDS pp pp pp
0.0000000000000000e+00 3.1928000000000001e+01
0.0000000000000000e+00 5.5300918199999998e+01
0.0000000000000000e+00 1.5000000000000000e+01
ITEM: ATOMS id type x y z c_csym c_2[1] c_2[2] c_2[3] c_2[4] c_2[5] c_2[6] c_3 
47 1 1.039 8.562 3 6.02218 -147837 -133738 -32182.8 -15961.9 2087.99 -6899.13 -7.4133 
48 1 0.283 7.363 3 6.01928 -129712 -143877 31054 -27813.6 20336.9 820.137 -7.41618 
49 1 0.945 6.108 3 6.02403 -138281 -88152.1 -29997.9 -13501.5 4187.57 -2591.79 -7.41346 
50 1 0.189 4.908 3 6.02502 -133152 -160550 3429.42 17571 38617.5 -7848.59 -7.41506 
51 1 0.85 3.654 3 6.02801 -150663 -142371 -36157.4 11757.2 37508.9 -6365.02 -7.41329 
52 1 0.094 2.454 3 6.02183 -175611 -138006 -43047.1 2231.28 49582.4 -5173.45 -7.41306 
53 1 0.756 1.2 3 6.02333 -133801 -129685 -58179.8 -747.272 27508.1 -17312.2 -7.41199 
54 1 0 0 3 6.02606 -135516 -151398 -65528.6 15457.6 -8.43702 83.394 -7.41177 
93 1 2.456 8.508 3 6.02484 -126615 -128959 25225.2 6182.5 25391 18671 -7.41584 
94 1 3.117 7.253 3 6.022 -161930 -149886 -14723.1 -32932.9 -6728.86 -11652.2 -7.41441 
95 1 2.362 6.054 3 6.02288 -146003 -172276 8516.96 -25621.6 19789.2 3781.37 -7.41542 
96 1 3.023 4.799 3 6.02288 -148089 -106162 -7049.86 -2765.91 4904.73 -17543.2 -7.41427 
97 1 2.267 3.599 3 6.02264 -134992 -154698 -22814 26813.6 42423.6 -19624 -7.41431 
98 1 2.928 2.345 3 6.02372 -156877 -164423 -19469.8 305.194 22474.1 -41199.6 -7.41394 
99 1 2.173 1.145 3 6.02128 -141974 -172759 -49377.4 8298.27 25220.9 -37769.4 -7.41316 
138 1 5.29 8.399 3 6.02379 -146951 -141248 6562.66 11800 5986.4 -28560.7 -7.41549 
139 1 4.534 7.199 3 6.02414 -134278 -154519 -6276.96 24467.4 10383.9 12021.8 -7.41465 
140 1 5.195 5.945 3 6.02052 -158076 -159102 16739.1 -5512.05 -4260.34 -20792.6 -7.41599 
141 1 4.44 4.745 3 6.02288 -137914 -138282 -22109.7 -2464.37 10060.5 129.329 -7.41369 
142 1 5.101 3.49 3 6.02173 -152191 -141714 20202.7 -22848.8 5747.59 -23833.2 -7.41589 
143 1 4.345 2.291 3 6.0206 -140819 -149007 -32652.9 -4450.02 15680.9 -19507.6 -7.41396 
144 1 5.006 1.036 3 6.02294 -143978 -139014 -1336.57 -24631.3 10523.2 -35927.8 -7.41467 
183 1 6.707 8.344 3 6.0217 -143337 -166540 -11182.1 9425.47 22103.1 -7294.31 -7.41462 
184 1 7.368 7.09 3 6.02666 -148772 -150573 37115.4 7955.9 11186.5 -43135 -7.41702 
185 1 6.612 5.89 3 6.02368 -123835 -134679 -28715.4 8587.49 718.118 -3388.98 -7.41347 
186 1 7.274 4.636 3 6.02183 -189326 -130447 38031.3 -6127.14 13361.4 -23927.5 -7.41738 
187 1 6.518 3.436 3 6.02469 -126150 -118879 -33791.9 11156.5 -3540.17 170.399 -7.41313 
188 1 7.179 2.181 3 6.0211 -147530 -148206 24226.6 -25438.3 17898.8 -11383.1 -7.41584 
189 1 6.423 0.982 3 6.02062 -135308 -135420 -18119.6 -16879.5 -9322.38 -2570.82 -7.41416 
228 1 9.541 8.235 3 6.02403 -139407 -107100 75699.4 -13822.5 14108.2 -57111 -7.41881 
229 1 8.785 7.035 3 6.02502 -131673 -150788 -20882 26108.2 13063.6 -23312.1 -7.41402 
230 1 9.446 5.781 3 6.02801 -149896 -157092 59903.7 6885.65 24731 -45397.3 -7.41836 
231 1 8.69 4.581 3 6.02217 -171149 -133203 -30040.2 9649.42 1264.33 -16279.5 -7.41364 
232 1 9.352 3.327 3 6.02334 -138274 -137553 40416.9 -6316.84 34768 -26048.5 -7.41727 
233 1 8.596 2.127 3 6.02666 -132542 -151018 -24085.5 27346.2 -7878.8 -6206.94 -7.41382 
234 1 9.257 0.873 3 6.02073 -151167 -169448 10225.8 -6950.32 27641.3 -11323.8 -7.41553 
681 2 0.378 8.617 6.4 6.02414 -135305 -164270 37991.2 -18274.2 27350.4 266.009 -7.41685 
682 2 0.472 6.163 6.4 6.02288 -138747 -145205 20420.8 12405.9 23410.4 6909.42 -7.41522 
683 2 0.567 3.709 6.4 6.0206 -141411 -150243 -19579.5 17958.3 46888.6 1224.82 -7.41407 
684 2 0.661 1.254 6.4 6.02129 -144053 -165250 -58414.8 397.969 28968.2 -14864.4 -7.41246 
685 2 0 0 6.4 6.02684 -135821 -151079 -65527.9 -12756.5 8.14083 76.6168 -7.41178 
723 2 1.795 8.671 6.4 6.022 -158803 -147528 -28801 29712.9 3269.72 1054.19 -7.41371 
724 2 2.55 7.472 6.4 6.02288 -144564 -173750 16810.2 34766.3 15913.1 14129.4 -7.41587 
725 2 1.889 6.217 6.4 6.02288 -147159 -102191 -22398.7 -2304.84 4831.81 -8677.05 -7.41371 
726 2 2.645 5.017 6.4 6.02264 -132529 -157426 -7129.71 -11905.7 17695.5 4491.02 -7.41504 
727 2 1.984 3.763 6.4 6.02372 -162587 -158417 -22727.9 -5527.73 38192.2 -27014.5 -7.41398 
728 2 2.739 2.563 6.4 6.02156 -139588 -174457 -36251.6 9421.88 24248.7 -29283.6 -7.41395 
729 2 2.078 1.309 6.4 6.02412 -142945 -145779 -42492.2 -16041.5 29452 -40386.5 -7.41288 
730 2 2.834 0.109 6.4 6.02416 -138057 -155004 -41241.5 -7371.45 -1649.33 -53811.3 -7.41306 
768 2 4.629 8.781 6.4 6.01928 -131509 -136173 6517.35 34275.9 27747 9067.98 -7.41516 
769 2 3.967 7.526 6.4 6.02403 -135053 -90764 -6278.69 9268.29 -5205.52 -15040.8 -7.41413 
770 2 4.723 6.326 6.4 6.02502 -128375 -156251 -14721 -10023.1 6744.85 11625.6 -7.41447 
771 2 4.062 5.072 6.4 6.02801 -150187 -144885 8270.43 -17732.2 6687.1 -19061.9 -7.41501 
772 2 4.818 3.872 6.4 6.02183 -171866 -140854 -29735.8 7973.61 4288.63 -2424.7 -7.41415 
773 2 4.156 2.618 6.4 6.02333 -140116 -132963 3385.49 -6565.05 26219.5 -29485.4 -7.41474 
774 2 4.912 1.418 6.4 6.02666 -132585 -158531 -26650.6 -3179.58 -48.0345 -28839.8 -7.41401 
775 2 4.251 0.164 6.4 6.02212 -149324 -170590 -20902.2 -9384.36 8518.43 -32634.2 -7.41442 
813 2 6.046 8.835 6.4 6.02368 -157831 -162392 15524.4 -3296.83 5871.83 -41722.6 -7.41598 
814 2 6.801 7.635 6.4 6.0217 -140380 -167354 -16271.5 6237.16 18733 -6361.02 -7.41429 
815 2 6.14 6.381 6.4 6.02665 -148942 -146164 25311.2 -20173.7 -3430.37 -31267.4 -7.41617 
816 2 6.896 5.181 6.4 6.02368 -122407 -135477 -32260.6 6518.35 6967.91 1634.26 -7.41335 
817 2 6.234 3.927 6.4 6.02183 -188493 -130632 31287.4 -11971.6 9347.24 -18042.5 -7.4167 
818 2 6.99 2.727 6.4 6.0265 -131818 -154698 -30879.2 -9373.21 -900.636 1165.08 -7.41353 
819 2 6.329 1.473 6.4 6.02281 -143243 -151781 12618.2 -28433.3 17952.1 -8927.37 -7.41533 
820 2 7.085 0.273 6.4 6.02167 -127097 -104426 -6610.49 20565 -11848 -5494.7 -7.41418 
858 2 8.879 8.944 6.4 6.02406 -144389 -169746 -5636.23 12717.4 21121.7 -18568 -7.41486 
859 2 8.218 7.69 6.4 6.02379 -151075 -149814 50564.8 -17872.2 9478.79 -53804.8 -7.41808 
860 2 8.974 6.49 6.4 6.02414 -133735 -150863 -22494.5 -8993.5 18466.6 -18145.6 -7.41375 
861 2 8.313 5.236 6.4 6.02052 -159890 -165081 46024.2 -9438.75 14403.6 -38422.5 -7.41786 
862 2 9.068 4.036 6.4 6.02288 -135003 -133075 -28882.4 19234.4 11620 -11253.7 -7.41305 
863 2 8.407 2.781 6.4 6.02173 -150858 -143011 31588.4 4817.28 22318 -18910.8 -7.41686 
864 2 9.163 1.582 6.4 6.02173 -138290 -143855 -18222.6 23588.6 -5493.28 -6998.12 -7.41418 
865 2 8.502 0.327 6.4 6.02294 -143622 -135529 1828.68 5753.99 19271.8 -5594.24 -7.41476 
903 2 10.296 8.999 6.4 6.02334 -144569 -139997 97268.2 -3013.99 11469.2 -43343.4 -7.42041 
905 2 10.391 6.544 6.4 6.022 -166638 -167686 80463.3 26071.4 26125.2 -44476.8 -7.41983 
907 2 10.485 4.09 6.4 6.02288 -146439 -119677 56763.9 -7424.55 35996.9 -41247 -7.41789 
909 2 10.58 1.636 6.4 6.02372 -153722 -171510 26405 -11570.4 31846.6 -30833.8 -7.41635 
273 1 10.958 8.181 3 6.02288 -149862 -166640 -17986.6 -20178.3 14114.6 -13527.7 -7.4143 
274 1 11.619 6.926 3 6.02288 -147821 -123799 106859 -480.141 13329.2 -41296.2 -7.42066 
275 1 10.863 5.726 3 6.02264 -132795 -151790 -19716.5 29215.1 8881.42 -24466.9 -7.41421 
276 1 11.524 4.472 3 6.02372 -160382 -175877 76274.3 482.821 35002.2 -39712 -7.41933 
277 1 10.769 3.272 3 6.02156 -136966 -170126 -16066.3 7252.07 4680.22 -26500.8 -7.4145 
278 1 11.43 2.018 3 6.02412 -143434 -156683 38758.1 7513.41 43269.4 -34764.3 -7.41706 
279 1 10.674 0.818 3 6.02416 -135803 -155194 -2098.01 21033.9 -11906.1 -24499.2 -7.41479 
318 1 13.791 8.072 3 6.02052 -157836 -174390 156246 1518.51 -608.772 -13976 -7.42356 
319 1 13.036 6.872 3 6.02288 -140763 -138614 -31049.9 -1806.06 -2044.66 -3715.28 -7.413 
320 1 13.697 5.617 3 6.02173 -153851 -154519 127237 -15557.4 15856.4 -20961.8 -7.42197 
321 1 12.941 4.418 3 6.02061 -139792 -151159 -9707.41 -7521.33 3073.87 -19586.7 -7.41465 
322 1 13.602 3.163 3 6.02334 -148067 -145019 84144.1 -15506 41302.5 -28692.6 -7.41917 
323 1 12.847 1.963 3 6.02129 -141222 -174142 6892.28 7077.98 -761.372 -27089.5 -7.41567 
324 1 13.508 0.709 3 6.02665 -135675 -167089 40386.7 10385.3 35129.1 -35409.2 -7.41703 
363 1 15.208 8.017 3 6.02368 -127977 -135499 -58668.8 3684.22 -9189.32 4578.23 -7.41199 
364 1 15.87 6.763 3 6.02183 -189228 -141034 159926 3626.01 7097.93 -195.543 -7.4238 
365 1 15.114 5.563 3 6.02469 -129888 -124991 -25047.4 5410.14 -12367.9 -149.714 -7.41338 
366 1 15.775 4.308 3 6.0213 -151287 -159647 121664 -14607.7 31305.9 1061.64 -7.421 
367 1 15.019 3.109 3 6.02041 -131531 -142179 7729.39 -26311.7 -1897.18 -3655.34 -7.41542 
368 1 15.681 1.854 3 6.02385 -128624 -116477 73781.7 -11327.9 41337.2 -6115.39 -7.41795 
369 1 14.925 0.654 3 6.02442 -131454 -168139 32532.4 20015.9 -16137.8 -7556.04 -7.41686 
407 1 17.381 9.162 3 6.02502 -133067 -151970 -58749.2 12298.3 653.684 -10134.8 -7.41218 
408 1 18.042 7.908 3 6.02801 -148265 -161854 156320 13341.9 12368.1 6429.77 -7.42304 
409 1 17.286 6.708 3 6.02217 -175081 -139597 -40582.7 -3312.48 -12233.6 954.322 -7.41327 
410 1 17.948 5.454 3 6.02334 -140824 -145422 127290 3255.78 30314.2 20277.7 -7.42183 
411 1 17.192 4.254 3 6.02666 -134176 -162259 -6479.56 15703 -5024.29 15762.3 -7.41491 
412 1 17.853 3 3 6.02052 -155951 -177531 85329.4 5187.88 44160.5 26832.3 -7.41942 
413 1 17.098 1.8 3 6.02288 -136534 -144569 19060.2 -14961.2 -7658.41 23936.4 -7.41603 
414 1 17.759 0.545 3 6.02255 -135051 -128498 43951 2250.17 29124.2 21079.5 -7.41688 
452 1 20.215 9.053 3 6.02414 -147027 -123589 126904 1298.68 10266.3 24345.3 -7.42143 
453 1 19.459 7.853 3 6.0239 -132687 -153552 -30834.6 6872.19 4193.55 93.4267 -7.41406 
454 1 20.12 6.599 3 6.02523 -160839 -175987 106964 1246.15 29143.3 32243.9 -7.42108 
455 1 19.365 5.399 3 6.02406 -140278 -176064 -18147.2 -11484.4 4731.65 18954.5 -7.4143 
456 1 20.026 4.145 3 6.02379 -150113 -157561 75614.5 16451.5 42433.4 40765.3 -7.41931 
457 1 19.27 2.945 3 6.02414 -132137 -158463 -2725.1 7307.84 3426.95 33552.9 -7.41495 
458 1 19.931 1.691 3 6.02156 -148810 -173248 39631.3 4505.5 36947 37493.5 -7.4176 
459 1 19.176 0.491 3 6.02336 -139228 -146558 17363.8 -13642.5 -20833.1 38199.9 -7.41545 
904 2 11.052 7.799 6.4 6.02484 -127799 -123704 -18719.5 8397.43 13173.2 -11699.8 -7.4137 
906 2 11.146 5.345 6.4 6.02288 -144468 -168325 -19050.3 41077.2 13720.2 -22780.2 -7.41414 
908 2 11.241 2.89 6.4 6.02264 -130044 -153019 -12950.5 -12101.7 6603.38 -28839.3 -7.41465 
910 2 11.335 0.436 6.4 6.02123 -140270 -176440 4903.88 4188.84 -20197.5 -30993.1 -7.41568 
948 2 13.13 9.108 6.4 6.02288 -131492 -121495 -40892.7 5174.97 3994.27 10802.3 -7.41239 
949 2 12.469 7.853 6.4 6.02218 -154428 -157251 133010 14415.5 18658.9 -18632.5 -7.42202 
950 2 13.225 6.654 6.4 6.01928 -131284 -137270 -30671.4 37975.9 -2641.72 -5137.14 -7.41344 
951 2 12.563 5.399 6.4 6.02403 -137858 -110954 104314 9902.57 36383.2 -32472.7 -7.42036 
952 2 13.319 4.199 6.4 6.02502 -130841 -160634 -8174.09 -9814.59 2136.76 -24896.1 -7.41486 
953 2 12.658 2.945 6.4 6.02801 -144743 -163021 67127.4 -16503.6 44423.2 -38391.1 -7.41837 
954 2 13.414 1.745 6.4 6.02218 -171856 -146478 11102.4 1652.17 -6811.01 -35705.7 -7.41586 
955 2 12.752 0.491 6.4 6.02352 -128619 -147948 30599.3 -5044.91 26665.5 -32733 -7.41659 
993 2 14.547 9.162 6.4 6.02288 -142803 -123830 169766 -3008.62 3412.05 -1641.96 -7.42356 
994 2 15.303 7.962 6.4 6.02264 -136827 -147502 -58608.3 -14614.7 -9786.01 3126.23 -7.41228 
995 2 14.642 6.708 6.4 6.02368 -158187 -177307 152521 -2914.16 15627.9 -8067.16 -7.4232 
996 2 15.397 5.508 6.4 6.0217 -143375 -173921 -24589.6 590.511 -12901.6 -5518.7 -7.41418 
997 2 14.736 4.254 6.4 6.02666 -146419 -163621 114981 -14674.4 36838.2 -18061.6 -7.42086 
998 2 15.492 3.054 6.4 6.02368 -126157 -147645 8618.39 -320.102 -3387.7 -13368.1 -7.41552 
999 2 14.83 1.8 6.4 6.02182 -180636 -146060 69472.4 -5042.38 40821.4 -15435.9 -7.41895 
1000 2 15.586 0.6 6.4 6.02468 -127467 -136222 34551.3 -3507.33 -18761.8 -14041 -7.4163 
1039 2 16.72 8.017 6.4 6.02523 -158123 -175530 169524 530.965 -315.672 3739.67 -7.42377 
1040 2 17.475 6.817 6.4 6.02406 -142844 -171654 -40617.9 -3857.27 -11386.4 -1959.13 -7.41325 
1041 2 16.814 5.563 6.4 6.02379 -150201 -159591 140946 -12646.4 15716.3 5819.46 -7.42224 
1042 2 17.57 4.363 6.4 6.02414 -135843 -158316 -7384.28 -18456.5 -3567.53 8359.9 -7.4148 
1043 2 16.909 3.109 6.4 6.02156 -152203 -178092 96070.4 531.046 40325.5 11826.6 -7.42028 
1044 2 17.664 1.909 6.4 6.02316 -136837 -145247 16427.9 8363.03 -3605.03 14453.1 -7.4156 
1045 2 17.003 0.654 6.4 6.02131 -140918 -161540 50421.8 16690 33483.4 21078.1 -7.41771 
1084 2 19.554 8.126 6.4 6.02217 -176816 -139385 -30496.9 -11802 5710.12 395.339 -7.4137 
1085 2 18.892 6.872 6.4 6.02334 -141337 -144562 132818 -1794.9 6764.76 25503.6 -7.42231 
1086 2 19.648 5.672 6.4 6.02665 -134112 -158716 -18961.5 -29779.7 3636.6 17226.3 -7.41402 
1087 2 18.987 4.418 6.4 6.02052 -159607 -175642 97064.8 -1497.08 31816.3 31622.8 -7.42031 
1088 2 19.742 3.218 6.4 6.02288 -135236 -140453 -5751.32 6237.89 5535.71 27468.1 -7.41441 
1089 2 19.081 1.963 6.4 6.02152 -148148 -154792 53809.9 19204.5 43839.9 36372.3 -7.41774 
1090 2 19.837 0.764 6.4 6.02081 -137626 -154573 10025.6 7708.53 -11610.1 31067.8 -7.41577 
1129 2 20.97 8.181 6.4 6.02183 -191722 -140294 104486 -2378.78 9733.43 47809.8 -7.4214 
1131 2 21.065 5.726 6.4 6.0213 -154171 -155062 80305.8 18771.2 25570 44883.7 -7.41965 
1133 2 21.159 3.272 6.4 6.02156 -135021 -107876 50535.9 17859.3 41804.5 35095.5 -7.4172 
1135 2 21.254 0.818 6.4 6.0261 -139810 -160726 15547 -10220.9 33205.2 26006.1 -7.41557 
497 1 21.632 8.999 3 6.02288 -152456 -166422 -9615.13 -40285.9 15465.8 12317.6 -7.4145 
498 1 22.293 7.744 3 6.02288 -146531 -120891 75769.7 5376.57 16933.5 50179.6 -7.4191 
499 1 21.537 6.544 3 6.02264 -134285 -152022 -19426.7 6552.42 16798.7 19968.6 -7.41402 
500 1 22.198 5.29 3 6.02368 -160266 -171510 59923 8731.34 27006.7 44113.6 -7.41878 
501 1 21.443 4.09 3 6.0217 -137996 -170392 -20943.3 -6466.32 13684.3 22979.5 -7.41409 
502 1 22.104 2.836 3 6.02665 -145383 -153984 37232.6 21879.4 31803.3 31296.4 -7.41703 
503 1 21.348 1.636 3 6.02369 -124386 -139020 -11183.9 -5249.92 -4827.41 22852.1 -7.41422 
504 1 22.01 0.382 3 6.02202 -179698 -136067 6722.38 9881.72 21709.1 19492.8 -7.4158 
542 1 24.466 8.89 3 6.02183 -192546 -131662 38924.5 5955.35 8515.16 54905.3 -7.41737 
543 1 23.71 7.69 3 6.02288 -128187 -119503 -15799.4 -7282.44 20604.7 17276.8 -7.4134 
544 1 24.371 6.435 3 6.02219 -154778 -145761 40224.3 -8393.55 5088.9 43091.4 -7.41708 
545 1 23.615 5.236 3 6.02041 -127085 -129644 -30251.3 -36698.1 13349.7 9303.84 -7.41338 
546 1 24.277 3.981 3 6.02156 -138026 -99718 38017.5 -2237.61 13988.4 23575.8 -7.4162 
547 1 23.521 2.781 3 6.02281 -130070 -151116 -28811.5 10677.3 2591.72 2304.43 -7.41353 
548 1 24.182 1.527 3 6.0265 -144320 -152628 16784.5 28622.5 20196.4 6706.72 -7.41547 
549 1 23.426 0.327 3 6.022 -175491 -138086 -6260.76 -4323.05 -15582.9 2978.47 -7.41507 
587 1 25.882 8.835 3 6.02217 -175610 -136912 -2087.34 -5648.73 27205.7 2003.67 -7.41497 
588 1 26.544 7.581 3 6.02334 -140092 -127411 10311.9 6023.48 -3953.29 29673.2 -7.41552 
589 1 25.788 6.381 3 6.02665 -130009 -153453 -23832.7 12258.6 9245.2 -3698.48 -7.41383 
590 1 26.449 5.127 3 6.02052 -161597 -159028 24284.8 10478.4 963.423 21173.6 -7.41605 
591 1 25.694 3.927 3 6.02288 -133515 -135641 -33895.1 -22285.5 1685.94 -3146.34 -7.41341 
592 1 26.355 2.672 3 6.02173 -153828 -141805 20291.9 -7894.68 17683.4 16927.6 -7.41568 
593 1 25.599 1.473 3 6.0206 -137449 -147740 -22299 -24884.1 -5191.43 8652.89 -7.41446 
594 1 26.26 0.218 3 6.02295 -145396 -137966 -7208.62 -3012.59 12719.4 13058.5 -7.41437 
632 1 28.716 8.726 3 6.02523 -154754 -155064 -18192.4 -385.528 3301.68 8253.29 -7.41405 
633 1 27.961 7.526 3 6.02406 -138749 -175450 1887.77 -7063.22 14592.8 -13930.8 -7.4152 
634 1 28.622 6.272 3 6.02379 -150894 -138247 -7025.83 15641.3 -1187.56 13002.7 -7.41466 
635 1 27.866 5.072 3 6.02414 -132185 -156584 -18237.8 4989.95 6882.25 -6734.16 -7.41434 
636 1 28.527 3.818 3 6.02156 -157789 -158295 -1100.56 3214.22 25949.5 27148.4 -7.41535 
637 1 27.772 2.618 3 6.02334 -137732 -140222 -32568.2 -22637.7 9082.41 23293.9 -7.4135 
638 1 28.433 1.363 3 6.0204 -146218 -143761 -19376.7 -8547.1 24545.6 39991.4 -7.41427 
639 1 27.677 0.164 3 6.02194 -143999 -151965 -22495.3 -24231.1 -4296.14 46496.6 -7.414 
669 1 30.133 8.671 3 6.02264 -135094 -160532 31516.7 15391.3 27511 -9880.52 -7.41665 
670 1 30.794 7.417 3 6.02368 -155658 -153951 -30839.7 2755.61 -1448.96 181.216 -7.41394 
671 1 30.039 6.217 3 6.0217 -140320 -178517 12731.3 -2314.31 16685.3 -11017.2 -7.41567 
672 1 30.7 4.963 3 6.02666 -151301 -139701 -26946.3 13982.3 24918.6 14541.2 -7.41401 
673 1 29.944 3.763 3 6.02368 -127193 -143697 -21010.7 -5744.59 32568.2 9099.89 -7.4139 
674 1 30.606 2.509 3 6.02183 -186188 -126316 -41137.6 3995.22 45788.1 28352.5 -7.41349 
675 1 29.85 1.309 3 6.0263 -134859 -157088 -49440.7 11648.1 20233.3 40756 -7.41251 
676 1 30.511 0.055 3 6.02321 -137475 -152106 -58198.7 20355 1463.68 32582.8 -7.41207 
1130 2 21.726 6.981 6.4 6.02469 -128509 -121474 -19059.8 -12825.8 12903.2 23441.9 -7.41342 
1132 2 21.821 4.527 6.4 6.02041 -129319 -131858 -22478.5 20522.2 6478.18 25058.6 -7.41354 
1134 2 21.915 2.072 6.4 6.02241 -131519 -152467 -16180.4 -25578.3 -3848.4 19418.3 -7.41397 
1174 2 23.804 8.29 6.4 6.02288 -141769 -132434 -12724.9 2181.37 21730.2 20143.6 -7.41386 
1175 2 23.143 7.035 6.4 6.02173 -155505 -147304 56843.2 19813.4 17813.2 51895.4 -7.41854 
1176 2 23.899 5.836 6.4 6.02061 -137249 -141477 -29118.2 7845.7 3913 15625.6 -7.41362 
1177 2 23.238 4.581 6.4 6.02334 -151815 -134512 46276.6 22761.8 26069.5 31612.1 -7.41744 
1178 2 23.993 3.381 6.4 6.0217 -140637 -162829 -32047.3 -9876.89 -4867.45 5205.76 -7.41385 
1179 2 23.332 2.127 6.4 6.02665 -142202 -152978 25186.6 -3860.29 28813.7 12654.9 -7.41615 
1180 2 24.088 0.927 6.4 6.0235 -129635 -137927 -14586.7 -12051.8 -13482.3 19.095 -7.41417 
1219 2 25.221 8.344 6.4 6.02288 -146452 -111666 26519.3 1589.09 10803.5 43101.4 -7.41592 
1220 2 25.977 7.144 6.4 6.02264 -131855 -148420 -18245.9 -25746.6 8793.58 -1177.61 -7.4144 
1221 2 25.316 5.89 6.4 6.02372 -160909 -164312 31362.3 3722.98 5227.55 28819.3 -7.41652 
1222 2 26.071 4.69 6.4 6.02156 -137025 -168653 -31060.2 -8297.42 -522.499 -1361.89 -7.41417 
1223 2 25.41 3.436 6.4 6.02414 -148356 -147789 31266.3 -2719.11 10804.9 17210.5 -7.41627 
1224 2 26.166 2.236 6.4 6.02415 -135234 -152474 -30047.7 -24018.7 -123.967 4977.66 -7.41395 
1225 2 25.505 0.982 6.4 6.02177 -148578 -169913 8199.41 12345.1 13128.6 15262.9 -7.41579 
1264 2 28.055 8.453 6.4 6.02502 -130201 -160939 10305.9 -21299.9 23691.3 -18258.2 -7.41547 
1265 2 27.394 7.199 6.4 6.02801 -146961 -144169 2010.61 -8306.67 -4764.33 19562.4 -7.41479 
1266 2 28.15 5.999 6.4 6.02217 -172475 -141747 -6784.3 -9037.3 10597.7 -7457.71 -7.41485 
1267 2 27.488 4.745 6.4 6.02334 -141227 -128980 12752.5 4143.47 -1138.92 20007.6 -7.41552 
1268 2 28.244 3.545 6.4 6.02665 -134113 -158715 -26951.5 -29778.2 24977.7 14367.6 -7.41402 
1269 2 27.583 2.291 6.4 6.02052 -155856 -164957 3269 3519.76 12451.3 37428.5 -7.41499 
1270 2 28.338 1.091 6.4 6.02328 -141499 -138593 -36556.7 2044.95 13397.6 35539.1 -7.41339 
1309 2 29.472 8.508 6.4 6.02484 -142936 -138749 -23860.8 -12409.1 1411.92 9852.45 -7.41383 
1310 2 30.228 7.308 6.4 6.02368 -125094 -147848 24143 -4497.68 18854.4 -9709.69 -7.41578 
1311 2 29.566 6.054 6.4 6.02183 -190495 -120292 -18273.6 -384.844 -2436.84 9311.56 -7.41488 
1312 2 30.322 4.854 6.4 6.02469 -129006 -127528 -956.971 -7281.35 36451.7 8969.27 -7.41426 
1313 2 29.661 3.599 6.4 6.0213 -153898 -139686 -21000.3 17576.9 24157.2 23793.3 -7.41397 
1314 2 30.417 2.4 6.4 6.02041 -133313 -134697 -41036.7 23196.1 47408.6 25535 -7.41286 
1315 2 29.755 1.145 6.4 6.02384 -129598 -102213 -42413 17077.9 20389.2 45645.4 -7.41228 
1350 2 31.645 7.363 6.4 6.02052 -155466 -151240 -33565.8 -683.113 -1913.64 3013.52 -7.41397 
1351 2 31.739 4.908 6.4 6.02173 -157372 -131576 -32546.1 15917.6 24679.1 -3820.17 -7.41406 
1352 2 31.834 2.454 6.4 6.02334 -149673 -123908 -49596.4 14631.9 45120.2 -2829.73 -7.41259 
39 1 1.417 18.379 3 6.02519 -137307 -147990 -58709.9 23191.2 -2202.25 -9972.45 -7.41238 
40 1 0.661 17.179 3 6.02379 -147723 -157001 169709 14544.6 3089.95 -2148.62 -7.42405 
41 1 1.322 15.925 3 6.02406 -154839 -159632 -40710.1 -1635.38 -7372.67 -8869.15 -7.41325 
42 1 0.567 14.725 3 6.02523 -158869 -177729 133159 -343.714 25358.1 -6869.03 -7.42222 
43 1 1.228 13.471 3 6.02396 -149618 -139324 -18789 15701.1 16693.7 -5485.19 -7.41426 
44 1 0.472 12.271 3 6.02414 -139194 -149110 80275.6 6523.6 51628.1 -444.481 -7.4196 
45 1 1.134 11.017 3 6.02183 -188428 -118515 -22471.2 5512.09 24972.5 -6956.57 -7.41404 
46 1 0.378 9.817 3 6.02288 -130795 -133618 46149.3 2883.79 40484.3 6717.53 -7.41689 
85 1 2.834 18.325 3 6.0213 -153670 -156006 152618 -15751.7 793.292 17552.3 -7.42289 
86 1 3.495 17.07 3 6.0262 -136168 -118767 -24564.5 8701.02 -11296.1 -8346.01 -7.41343 
87 1 2.739 15.87 3 6.02334 -142307 -142720 140966 2563.26 12899.1 10801.9 -7.42242 
88 1 3.401 14.616 3 6.02368 -143054 -129352 -7363.34 3211.16 5431.65 -7309.08 -7.41462 
89 1 2.645 13.416 3 6.0262 -146820 -164448 97008.2 16117.2 43238.1 11768.7 -7.42 
90 1 3.306 12.162 3 6.02639 -148963 -142093 -5819.98 16036.3 26585.4 -9004.21 -7.41443 
91 1 2.55 10.962 3 6.02217 -181439 -146566 50261 4414.68 51337.8 18630.4 -7.41801 
92 1 3.212 9.708 3 6.02334 -137688 -120450 -16284 3040.6 14901.6 -12983.3 -7.41426 
130 1 5.668 18.215 3 6.01928 -137926 -132113 -8148.42 -17460.4 -20514.2 14301.5 -7.41465 
131 1 4.912 17.016 3 6.02149 -155697 -154420 115120 -13917.7 2834.79 40872.1 -7.42087 
132 1 5.573 15.761 3 6.02288 -152716 -131266 8559.83 -3423.34 -13352.1 3766.44 -7.41522 
133 1 4.818 14.561 3 6.02052 -159656 -172678 96123.4 5434.03 30238.8 29089 -7.42004 
134 1 5.479 13.307 3 6.02414 -153188 -143392 16557 24894.1 10637.8 -10277.5 -7.41597 
135 1 4.723 12.107 3 6.02379 -143251 -155740 53861.6 21707.7 53393.8 19763.9 -7.41821 
136 1 5.384 10.853 3 6.02523 -158556 -159613 10070.7 2972.49 21120.7 -25637.6 -7.41542 
137 1 4.629 9.653 3 6.02406 -145175 -173217 15376.5 3577.02 39117.1 15773.1 -7.41596 
175 1 7.085 18.161 3 6.02368 -160881 -171756 67155.2 3040.4 -11081.4 57667.5 -7.4188 
176 1 7.746 16.907 3 6.02264 -146080 -146107 11157.4 27163 -34330.5 11906.1 -7.4158 
177 1 6.99 15.707 3 6.02288 -148770 -117334 69371.9 6561.59 6988.64 43056 -7.41796 
178 1 7.651 14.452 3 6.02138 -162270 -159692 34642 -21940.3 -21519.3 -9261.2 -7.41713 
179 1 6.896 13.253 3 6.02288 -164580 -162241 50162 -21261.9 35079 18425.3 -7.41757 
180 1 7.557 11.998 3 6.02288 -145767 -113713 44122.5 9304 3590.24 -35668.8 -7.41696 
181 1 6.801 10.798 3 6.02264 -145664 -147207 17335.3 25912.9 43543.9 -1059.87 -7.41603 
182 1 7.462 9.544 3 6.02368 -159779 -167078 39677.3 3189.55 13967.5 -50742.9 -7.41727 
220 1 9.918 18.052 3 6.02406 -146284 -168981 4964.12 5518.92 -37005.7 -2008.41 -7.41543 
221 1 9.163 16.852 3 6.02523 -160172 -163646 30469.1 3282.82 -15083.3 39488.2 -7.41648 
222 1 9.824 15.598 3 6.02396 -143683 -153579 40355.9 23633.9 -48209.3 -12666.2 -7.41727 
223 1 9.068 14.398 3 6.02414 -145247 -132026 32419.2 14090.2 1501.53 17843.8 -7.41655 
224 1 9.73 13.144 3 6.02183 -193038 -136077 73625.3 11498.8 -25898.1 -32698.4 -7.41888 
225 1 8.974 11.944 3 6.02288 -142188 -116889 19454.5 11762.8 24674.2 -5297.97 -7.4155 
226 1 9.635 10.689 3 6.02218 -156137 -153377 85409.5 -12586.9 1214.27 -51719.7 -7.41913 
227 1 8.879 9.49 3 6.01928 -137634 -130401 -2777.17 -18470.5 27343.4 -19798.6 -7.41487 
678 2 0.094 15.979 6.4 6.02052 -157639 -174598 156305 -1699.35 11697.5 7496.43 -7.42357 
679 2 0.189 13.525 6.4 6.02379 -144773 -161431 106701 -16247.4 42463 9087.36 -7.42156 
680 2 0.283 11.071 6.4 6.02406 -147973 -182098 60385.6 2029.5 51731.6 1219.64 -7.41878 
716 2 2.173 17.288 6.4 6.02334 -141345 -142047 159852 -1721.16 3501.09 6205.75 -7.42344 
717 2 1.511 16.034 6.4 6.02368 -139057 -128806 -40549.6 2356.18 -5405.75 -11050.5 -7.41291 
718 2 2.267 14.834 6.4 6.0262 -147994 -163960 127239 -13486.1 32703.4 16192.2 -7.42154 
719 2 1.606 13.58 6.4 6.02639 -151623 -141662 -18032.5 -10899 18768.6 -5391.12 -7.41389 
720 2 2.362 12.38 6.4 6.02217 -186038 -146684 75382.4 77.664 56505.1 16308.8 -7.41948 
721 2 1.7 11.126 6.4 6.02334 -139538 -119257 -20928 -786.398 26704.5 310.876 -7.41405 
722 2 2.456 9.926 6.4 6.02484 -130113 -129717 37008.8 -405.247 42973.8 11920 -7.41671 
761 2 3.59 17.343 6.4 6.02406 -148256 -169227 -24676.6 9015.83 -6312.63 -10560.4 -7.41412 
762 2 4.345 16.143 6.4 6.02523 -160714 -176132 121624 2412.32 16453.8 26585.4 -7.42108 
763 2 3.684 14.889 6.4 6.02396 -145857 -146688 -6418.18 -10426.4 11049.8 -12257.8 -7.41514 
764 2 4.44 13.689 6.4 6.02414 -143585 -144018 85200 -1785.62 45415.6 24785.9 -7.41918 
765 2 3.778 12.435 6.4 6.02183 -191352 -123394 -2725.42 -275.897 30758.1 -13839.6 -7.41525 
766 2 4.534 11.235 6.4 6.02288 -137445 -126071 39661.1 3479.5 50913.1 13311 -7.41639 
767 2 3.873 9.98 6.4 6.02219 -149761 -137214 -11186 17123.8 17373.1 -15522.6 -7.41418 
806 2 6.423 17.452 6.4 6.02406 -159382 -173281 84276.6 4398.18 -4307.41 50118.9 -7.41949 
807 2 5.762 16.198 6.4 6.02379 -145316 -146951 7595.72 -5368.93 -4089.86 189.351 -7.41597 
808 2 6.518 14.998 6.4 6.02403 -147610 -119010 73628.6 4909.63 15373 38828.8 -7.41814 
809 2 5.857 13.743 6.4 6.02138 -161777 -158016 19199.3 40200 16942.9 -18648.3 -7.41645 
810 2 6.612 12.544 6.4 6.02288 -161795 -163916 44103.2 38339.1 32640 14741.9 -7.41727 
811 2 5.951 11.289 6.4 6.02288 -143434 -110229 17362.7 2901.98 22656.9 -37140.7 -7.41568 
812 2 6.707 10.089 6.4 6.02264 -141818 -148561 9995.34 -7975.26 32706.2 -5460.25 -7.41555 
851 2 7.84 17.507 6.4 6.02219 -134473 -134195 6666.41 5608.77 -23930.7 12880.1 -7.41528 
852 2 8.596 16.307 6.4 6.02242 -146054 -113759 40291.1 3542.06 -13082.3 48103.1 -7.41671 
853 2 7.935 15.052 6.4 6.02288 -154111 -130434 32553.2 22373.4 -14638.1 -10198.3 -7.41637 
854 2 8.69 13.852 6.4 6.02052 -157759 -164035 34800.6 8060.78 -2725.21 23308 -7.41715 
855 2 8.029 12.598 6.4 6.02414 -152795 -149780 50026.4 -9954.69 1568.69 -39523.4 -7.41751 
856 2 8.785 11.398 6.4 6.02379 -141124 -149803 16522.1 -5456.02 14225.3 -4148.89 -7.41641 
857 2 8.124 10.144 6.4 6.02523 -160961 -168703 53731.1 3256.13 9621.15 -56235.8 -7.41772 
897 2 10.013 16.361 6.4 6.0262 -137507 -122896 30446.4 5113.31 -41666.9 -6718.7 -7.41584 
899 2 10.107 13.907 6.4 6.02368 -141862 -140934 69173.9 6896.36 -33809.5 -27532.8 -7.41821 
901 2 10.202 11.453 6.4 6.02639 -150599 -159682 96095.9 -9730.46 -9949.46 -40765.8 -7.41952 
265 1 11.335 17.997 3 6.02334 -138926 -123728 -2151.84 2315.1 -15323 22516.7 -7.41496 
266 1 11.997 16.743 3 6.02368 -134180 -144124 38847.9 4559.42 -51708.3 -20072.4 -7.41689 
267 1 11.241 15.543 3 6.0262 -148251 -145066 6868.63 19137.8 -23076.8 14223.8 -7.41513 
268 1 11.902 14.289 3 6.02639 -148199 -161407 84270.3 16861.9 -45405.7 -21351.9 -7.41908 
269 1 11.146 13.089 3 6.02217 -190441 -129932 7594.37 7935.36 -2160.81 3487.37 -7.41579 
270 1 11.808 11.835 3 6.02334 -143799 -141390 121681 4671.8 -14796.9 -27630 -7.42129 
271 1 11.052 10.635 3 6.02484 -136902 -118218 -6503.19 10973 16085.9 -3483.85 -7.41458 
272 1 11.713 9.38 3 6.022 -165685 -170459 127199 -29451.5 2439.91 -36411.1 -7.42183 
310 1 14.169 17.888 3 6.02288 -141637 -146445 40379.1 -9403.02 -39967.7 -17120.5 -7.41672 
311 1 13.414 16.688 3 6.02052 -155493 -152687 -16082.6 2872.73 -25286.5 9203.18 -7.41437 
312 1 14.075 15.434 3 6.02414 -147546 -161903 75802.2 19614.2 -51953.2 -10375.9 -7.41935 
313 1 13.319 14.234 3 6.02379 -148884 -139211 -9623.55 18083 -18389.4 7150.88 -7.41499 
314 1 13.98 12.98 3 6.02523 -159298 -177614 127287 186.146 -26041.2 -3284.97 -7.42174 
315 1 13.225 11.78 3 6.02406 -154772 -162682 -24818.7 543.943 6008.3 10782.2 -7.41412 
316 1 13.886 10.526 3 6.02379 -148513 -157635 159894 14654.4 -3733.9 -6174.53 -7.4235 
317 1 13.13 9.326 3 6.02414 -140692 -150662 -40614.6 24845.4 6882.7 10110 -7.4131 
355 1 15.586 17.834 3 6.02288 -140519 -100335 -30185.9 793.343 -14809.5 7038.94 -7.41301 
356 1 16.247 16.579 3 6.02288 -153596 -176628 60380.9 -31271.8 -51730.1 1374.27 -7.41878 
357 1 15.492 15.38 3 6.022 -165525 -147746 -19556.2 -30048.8 -25758.8 4527.41 -7.41398 
358 1 16.153 14.125 3 6.02519 -141555 -127158 106924 2921.35 -42481.7 9134.05 -7.421 
359 1 15.397 12.925 3 6.02379 -152619 -135330 -30933.3 14388.2 -2058.82 3543.72 -7.41384 
360 1 16.058 11.671 3 6.02406 -156466 -176742 156321 -2359.08 -11747.6 7405.8 -7.42345 
361 1 15.303 10.471 3 6.02421 -151179 -160937 -58686.7 260.077 8550.22 5464.09 -7.41213 
362 1 15.964 9.217 3 6.02484 -146382 -159618 175406 13935 45.3559 -103.148 -7.42407 
400 1 18.42 17.725 3 6.02396 -134762 -161565 37177.4 14069.1 -42974.3 11885.4 -7.41739 
401 1 17.664 16.525 3 6.02403 -134886 -87515.1 -20931.8 -12837.9 -26704.2 342.187 -7.41337 
402 1 18.326 15.27 3 6.01796 -191099 -140832 75406.7 -29080.7 -56500.1 16297.4 -7.41958 
403 1 17.57 14.071 3 6.02219 -157255 -136039 -18128.5 -18279.6 -18807 -5381.77 -7.41389 
404 1 18.231 12.816 3 6.02351 -143829 -129711 127490 2045.8 -32705.2 16181.2 -7.42109 
405 1 17.475 11.616 3 6.02334 -140232 -126682 -40469.3 1648.53 5325.35 -11156.6 -7.41303 
406 1 18.137 10.362 3 6.02414 -143076 -145156 159718 4737.5 -3487.74 6224.8 -7.42309 
445 1 19.837 17.67 3 6.02801 -144127 -142837 -11117.1 12094.7 -17369.2 -15512.1 -7.41419 
446 1 20.498 16.416 3 6.02389 -139928 -160010 39828.1 9684.26 -50909.5 13285.7 -7.41709 
447 1 19.742 15.216 3 6.02414 -191632 -125864 -2811.52 1350.28 -30800.2 -13804.6 -7.41514 
448 1 20.404 13.962 3 6.02219 -143317 -141549 85409 702.12 -45447.5 24737.5 -7.41928 
449 1 19.648 12.762 3 6.02253 -143380 -112789 -6630.7 -2705.34 -11004.4 -12287.2 -7.41444 