(written by TR)

1352	atoms
2	atom types
0	31.928	xlo xhi
0	55.3009182	ylo yhi
0	15.0	zlo zhi


Masses

1	12
2	12

Atoms

1 1 1 0 0.661 54.047 3.000 0 0 0
2 1 1 0 0.567 51.592 3.000 0 0 0
3 1 1 0 0.472 49.138 3.000 0 0 0
4 1 1 0 0.378 46.684 3.000 0 0 0
5 1 1 0 0.283 44.230 3.000 0 0 0
6 1 1 0 0.189 41.776 3.000 0 0 0
7 1 1 0 0.094 39.321 3.000 0 0 0
8 1 1 0 0.000 36.867 3.000 0 0 0
9 1 1 0 2.834 55.192 3.000 0 0 0
10 1 1 0 2.078 53.992 3.000 0 0 0
11 1 1 0 2.739 52.738 3.000 0 0 0
12 1 1 0 1.984 51.538 3.000 0 0 0
13 1 1 0 2.645 50.283 3.000 0 0 0
14 1 1 0 1.889 49.084 3.000 0 0 0
15 1 1 0 2.550 47.829 3.000 0 0 0
16 1 1 0 1.795 46.629 3.000 0 0 0
17 1 1 0 2.456 45.375 3.000 0 0 0
18 1 1 0 1.700 44.175 3.000 0 0 0
19 1 1 0 2.362 42.921 3.000 0 0 0
20 1 1 0 1.606 41.721 3.000 0 0 0
21 1 1 0 2.267 40.467 3.000 0 0 0
22 1 1 0 1.511 39.267 3.000 0 0 0
23 1 1 0 2.173 38.013 3.000 0 0 0
24 1 1 0 1.417 36.813 3.000 0 0 0
25 1 1 0 2.078 35.558 3.000 0 0 0
26 1 1 0 1.322 34.359 3.000 0 0 0
27 1 1 0 1.984 33.104 3.000 0 0 0
28 1 1 0 1.228 31.904 3.000 0 0 0
29 1 1 0 1.889 30.650 3.000 0 0 0
30 1 1 0 1.134 29.450 3.000 0 0 0
31 1 1 0 1.795 28.196 3.000 0 0 0
32 1 1 0 1.039 26.996 3.000 0 0 0
33 1 1 0 1.700 25.742 3.000 0 0 0
34 1 1 0 0.945 24.542 3.000 0 0 0
35 1 1 0 1.606 23.287 3.000 0 0 0
36 1 1 0 0.850 22.088 3.000 0 0 0
37 1 1 0 1.511 20.833 3.000 0 0 0
38 1 1 0 0.756 19.633 3.000 0 0 0
39 1 1 0 1.417 18.379 3.000 0 0 0
40 1 1 0 0.661 17.179 3.000 0 0 0
41 1 1 0 1.322 15.925 3.000 0 0 0
42 1 1 0 0.567 14.725 3.000 0 0 0
43 1 1 0 1.228 13.471 3.000 0 0 0
44 1 1 0 0.472 12.271 3.000 0 0 0
45 1 1 0 1.134 11.017 3.000 0 0 0
46 1 1 0 0.378 9.817 3.000 0 0 0
47 1 1 0 1.039 8.562 3.000 0 0 0
48 1 1 0 0.283 7.363 3.000 0 0 0
49 1 1 0 0.945 6.108 3.000 0 0 0
50 1 1 0 0.189 4.908 3.000 0 0 0
51 1 1 0 0.850 3.654 3.000 0 0 0
52 1 1 0 0.094 2.454 3.000 0 0 0
53 1 1 0 0.756 1.200 3.000 0 0 0
54 1 1 0 0.000 0.000 3.000 0 0 0
55 1 1 0 4.251 55.137 3.000 0 0 0
56 1 1 0 4.912 53.883 3.000 0 0 0
57 1 1 0 4.156 52.683 3.000 0 0 0
58 1 1 0 4.818 51.429 3.000 0 0 0
59 1 1 0 4.062 50.229 3.000 0 0 0
60 1 1 0 4.723 48.975 3.000 0 0 0
61 1 1 0 3.967 47.775 3.000 0 0 0
62 1 1 0 4.629 46.520 3.000 0 0 0
63 1 1 0 3.873 45.321 3.000 0 0 0
64 1 1 0 4.534 44.066 3.000 0 0 0
65 1 1 0 3.778 42.866 3.000 0 0 0
66 1 1 0 4.440 41.612 3.000 0 0 0
67 1 1 0 3.684 40.412 3.000 0 0 0
68 1 1 0 4.345 39.158 3.000 0 0 0
69 1 1 0 3.590 37.958 3.000 0 0 0
70 1 1 0 4.251 36.704 3.000 0 0 0
71 1 1 0 3.495 35.504 3.000 0 0 0
72 1 1 0 4.156 34.249 3.000 0 0 0
73 1 1 0 3.401 33.050 3.000 0 0 0
74 1 1 0 4.062 31.795 3.000 0 0 0
75 1 1 0 3.306 30.595 3.000 0 0 0
76 1 1 0 3.967 29.341 3.000 0 0 0
77 1 1 0 3.212 28.141 3.000 0 0 0
78 1 1 0 3.873 26.887 3.000 0 0 0
79 1 1 0 3.117 25.687 3.000 0 0 0
80 1 1 0 3.778 24.433 3.000 0 0 0
81 1 1 0 3.023 23.233 3.000 0 0 0
82 1 1 0 3.684 21.979 3.000 0 0 0
83 1 1 0 2.928 20.779 3.000 0 0 0
84 1 1 0 3.590 19.524 3.000 0 0 0
85 1 1 0 2.834 18.325 3.000 0 0 0
86 1 1 0 3.495 17.070 3.000 0 0 0
87 1 1 0 2.739 15.870 3.000 0 0 0
88 1 1 0 3.401 14.616 3.000 0 0 0
89 1 1 0 2.645 13.416 3.000 0 0 0
90 1 1 0 3.306 12.162 3.000 0 0 0
91 1 1 0 2.550 10.962 3.000 0 0 0
92 1 1 0 3.212 9.708 3.000 0 0 0
93 1 1 0 2.456 8.508 3.000 0 0 0
94 1 1 0 3.117 7.253 3.000 0 0 0
95 1 1 0 2.362 6.054 3.000 0 0 0
96 1 1 0 3.023 4.799 3.000 0 0 0
97 1 1 0 2.267 3.599 3.000 0 0 0
98 1 1 0 2.928 2.345 3.000 0 0 0
99 1 1 0 2.173 1.145 3.000 0 0 0
100 1 1 0 7.085 55.028 3.000 0 0 0
101 1 1 0 6.329 53.828 3.000 0 0 0
102 1 1 0 6.990 52.574 3.000 0 0 0
103 1 1 0 6.234 51.374 3.000 0 0 0
104 1 1 0 6.896 50.120 3.000 0 0 0
105 1 1 0 6.140 48.920 3.000 0 0 0
106 1 1 0 6.801 47.666 3.000 0 0 0
107 1 1 0 6.046 46.466 3.000 0 0 0
108 1 1 0 6.707 45.212 3.000 0 0 0
109 1 1 0 5.951 44.012 3.000 0 0 0
110 1 1 0 6.612 42.757 3.000 0 0 0
111 1 1 0 5.857 41.557 3.000 0 0 0
112 1 1 0 6.518 40.303 3.000 0 0 0
113 1 1 0 5.762 39.103 3.000 0 0 0
114 1 1 0 6.423 37.849 3.000 0 0 0
115 1 1 0 5.668 36.649 3.000 0 0 0
116 1 1 0 6.329 35.395 3.000 0 0 0
117 1 1 0 5.573 34.195 3.000 0 0 0
118 1 1 0 6.234 32.941 3.000 0 0 0
119 1 1 0 5.479 31.741 3.000 0 0 0
120 1 1 0 6.140 30.486 3.000 0 0 0
121 1 1 0 5.384 29.287 3.000 0 0 0
122 1 1 0 6.046 28.032 3.000 0 0 0
123 1 1 0 5.290 26.832 3.000 0 0 0
124 1 1 0 5.951 25.578 3.000 0 0 0
125 1 1 0 5.195 24.378 3.000 0 0 0
126 1 1 0 5.857 23.124 3.000 0 0 0
127 1 1 0 5.101 21.924 3.000 0 0 0
128 1 1 0 5.762 20.670 3.000 0 0 0
129 1 1 0 5.006 19.470 3.000 0 0 0
130 1 1 0 5.668 18.215 3.000 0 0 0
131 1 1 0 4.912 17.016 3.000 0 0 0
132 1 1 0 5.573 15.761 3.000 0 0 0
133 1 1 0 4.818 14.561 3.000 0 0 0
134 1 1 0 5.479 13.307 3.000 0 0 0
135 1 1 0 4.723 12.107 3.000 0 0 0
136 1 1 0 5.384 10.853 3.000 0 0 0
137 1 1 0 4.629 9.653 3.000 0 0 0
138 1 1 0 5.290 8.399 3.000 0 0 0
139 1 1 0 4.534 7.199 3.000 0 0 0
140 1 1 0 5.195 5.945 3.000 0 0 0
141 1 1 0 4.440 4.745 3.000 0 0 0
142 1 1 0 5.101 3.490 3.000 0 0 0
143 1 1 0 4.345 2.291 3.000 0 0 0
144 1 1 0 5.006 1.036 3.000 0 0 0
145 1 1 0 8.502 54.974 3.000 0 0 0
146 1 1 0 9.163 53.719 3.000 0 0 0
147 1 1 0 8.407 52.520 3.000 0 0 0
148 1 1 0 9.068 51.265 3.000 0 0 0
149 1 1 0 8.313 50.065 3.000 0 0 0
150 1 1 0 8.974 48.811 3.000 0 0 0
151 1 1 0 8.218 47.611 3.000 0 0 0
152 1 1 0 8.879 46.357 3.000 0 0 0
153 1 1 0 8.124 45.157 3.000 0 0 0
154 1 1 0 8.785 43.903 3.000 0 0 0
155 1 1 0 8.029 42.703 3.000 0 0 0
156 1 1 0 8.690 41.448 3.000 0 0 0
157 1 1 0 7.935 40.249 3.000 0 0 0
158 1 1 0 8.596 38.994 3.000 0 0 0
159 1 1 0 7.840 37.794 3.000 0 0 0
160 1 1 0 8.502 36.540 3.000 0 0 0
161 1 1 0 7.746 35.340 3.000 0 0 0
162 1 1 0 8.407 34.086 3.000 0 0 0
163 1 1 0 7.651 32.886 3.000 0 0 0
164 1 1 0 8.313 31.632 3.000 0 0 0
165 1 1 0 7.557 30.432 3.000 0 0 0
166 1 1 0 8.218 29.178 3.000 0 0 0
167 1 1 0 7.462 27.978 3.000 0 0 0
168 1 1 0 8.124 26.723 3.000 0 0 0
169 1 1 0 7.368 25.524 3.000 0 0 0
170 1 1 0 8.029 24.269 3.000 0 0 0
171 1 1 0 7.274 23.069 3.000 0 0 0
172 1 1 0 7.935 21.815 3.000 0 0 0
173 1 1 0 7.179 20.615 3.000 0 0 0
174 1 1 0 7.840 19.361 3.000 0 0 0
175 1 1 0 7.085 18.161 3.000 0 0 0
176 1 1 0 7.746 16.907 3.000 0 0 0
177 1 1 0 6.990 15.707 3.000 0 0 0
178 1 1 0 7.651 14.452 3.000 0 0 0
179 1 1 0 6.896 13.253 3.000 0 0 0
180 1 1 0 7.557 11.998 3.000 0 0 0
181 1 1 0 6.801 10.798 3.000 0 0 0
182 1 1 0 7.462 9.544 3.000 0 0 0
183 1 1 0 6.707 8.344 3.000 0 0 0
184 1 1 0 7.368 7.090 3.000 0 0 0
185 1 1 0 6.612 5.890 3.000 0 0 0
186 1 1 0 7.274 4.636 3.000 0 0 0
187 1 1 0 6.518 3.436 3.000 0 0 0
188 1 1 0 7.179 2.181 3.000 0 0 0
189 1 1 0 6.423 0.982 3.000 0 0 0
190 1 1 0 11.335 54.865 3.000 0 0 0
191 1 1 0 10.580 53.665 3.000 0 0 0
192 1 1 0 11.241 52.410 3.000 0 0 0
193 1 1 0 10.485 51.211 3.000 0 0 0
194 1 1 0 11.146 49.956 3.000 0 0 0
195 1 1 0 10.391 48.756 3.000 0 0 0
196 1 1 0 11.052 47.502 3.000 0 0 0
197 1 1 0 10.296 46.302 3.000 0 0 0
198 1 1 0 10.958 45.048 3.000 0 0 0
199 1 1 0 10.202 43.848 3.000 0 0 0
200 1 1 0 10.863 42.594 3.000 0 0 0
201 1 1 0 10.107 41.394 3.000 0 0 0
202 1 1 0 10.769 40.140 3.000 0 0 0
203 1 1 0 10.013 38.940 3.000 0 0 0
204 1 1 0 10.674 37.685 3.000 0 0 0
205 1 1 0 9.918 36.486 3.000 0 0 0
206 1 1 0 10.580 35.231 3.000 0 0 0
207 1 1 0 9.824 34.031 3.000 0 0 0
208 1 1 0 10.485 32.777 3.000 0 0 0
209 1 1 0 9.730 31.577 3.000 0 0 0
210 1 1 0 10.391 30.323 3.000 0 0 0
211 1 1 0 9.635 29.123 3.000 0 0 0
212 1 1 0 10.296 27.869 3.000 0 0 0
213 1 1 0 9.541 26.669 3.000 0 0 0
214 1 1 0 10.202 25.414 3.000 0 0 0
215 1 1 0 9.446 24.215 3.000 0 0 0
216 1 1 0 10.107 22.960 3.000 0 0 0
217 1 1 0 9.352 21.760 3.000 0 0 0
218 1 1 0 10.013 20.506 3.000 0 0 0
219 1 1 0 9.257 19.306 3.000 0 0 0
220 1 1 0 9.918 18.052 3.000 0 0 0
221 1 1 0 9.163 16.852 3.000 0 0 0
222 1 1 0 9.824 15.598 3.000 0 0 0
223 1 1 0 9.068 14.398 3.000 0 0 0
224 1 1 0 9.730 13.144 3.000 0 0 0
225 1 1 0 8.974 11.944 3.000 0 0 0
226 1 1 0 9.635 10.689 3.000 0 0 0
227 1 1 0 8.879 9.490 3.000 0 0 0
228 1 1 0 9.541 8.235 3.000 0 0 0
229 1 1 0 8.785 7.035 3.000 0 0 0
230 1 1 0 9.446 5.781 3.000 0 0 0
231 1 1 0 8.690 4.581 3.000 0 0 0
232 1 1 0 9.352 3.327 3.000 0 0 0
233 1 1 0 8.596 2.127 3.000 0 0 0
234 1 1 0 9.257 0.873 3.000 0 0 0
235 1 1 0 12.752 54.810 3.000 0 0 0
236 1 1 0 13.414 53.556 3.000 0 0 0
237 1 1 0 12.658 52.356 3.000 0 0 0
238 1 1 0 13.319 51.102 3.000 0 0 0
239 1 1 0 12.563 49.902 3.000 0 0 0
240 1 1 0 13.225 48.647 3.000 0 0 0
241 1 1 0 12.469 47.448 3.000 0 0 0
242 1 1 0 13.130 46.193 3.000 0 0 0
243 1 1 0 12.374 44.993 3.000 0 0 0
244 1 1 0 13.036 43.739 3.000 0 0 0
245 1 1 0 12.280 42.539 3.000 0 0 0
246 1 1 0 12.941 41.285 3.000 0 0 0
247 1 1 0 12.186 40.085 3.000 0 0 0
248 1 1 0 12.847 38.831 3.000 0 0 0
249 1 1 0 12.091 37.631 3.000 0 0 0
250 1 1 0 12.752 36.376 3.000 0 0 0
251 1 1 0 11.997 35.177 3.000 0 0 0
252 1 1 0 12.658 33.922 3.000 0 0 0
253 1 1 0 11.902 32.722 3.000 0 0 0
254 1 1 0 12.563 31.468 3.000 0 0 0
255 1 1 0 11.808 30.268 3.000 0 0 0
256 1 1 0 12.469 29.014 3.000 0 0 0
257 1 1 0 11.713 27.814 3.000 0 0 0
258 1 1 0 12.374 26.560 3.000 0 0 0
259 1 1 0 11.619 25.360 3.000 0 0 0
260 1 1 0 12.280 24.106 3.000 0 0 0
261 1 1 0 11.524 22.906 3.000 0 0 0
262 1 1 0 12.186 21.651 3.000 0 0 0
263 1 1 0 11.430 20.452 3.000 0 0 0
264 1 1 0 12.091 19.197 3.000 0 0 0
265 1 1 0 11.335 17.997 3.000 0 0 0
266 1 1 0 11.997 16.743 3.000 0 0 0
267 1 1 0 11.241 15.543 3.000 0 0 0
268 1 1 0 11.902 14.289 3.000 0 0 0
269 1 1 0 11.146 13.089 3.000 0 0 0
270 1 1 0 11.808 11.835 3.000 0 0 0
271 1 1 0 11.052 10.635 3.000 0 0 0
272 1 1 0 11.713 9.380 3.000 0 0 0
273 1 1 0 10.958 8.181 3.000 0 0 0
274 1 1 0 11.619 6.926 3.000 0 0 0
275 1 1 0 10.863 5.726 3.000 0 0 0
276 1 1 0 11.524 4.472 3.000 0 0 0
277 1 1 0 10.769 3.272 3.000 0 0 0
278 1 1 0 11.430 2.018 3.000 0 0 0
279 1 1 0 10.674 0.818 3.000 0 0 0
280 1 1 0 15.586 54.701 3.000 0 0 0
281 1 1 0 14.830 53.501 3.000 0 0 0
282 1 1 0 15.492 52.247 3.000 0 0 0
283 1 1 0 14.736 51.047 3.000 0 0 0
284 1 1 0 15.397 49.793 3.000 0 0 0
285 1 1 0 14.642 48.593 3.000 0 0 0
286 1 1 0 15.303 47.338 3.000 0 0 0
287 1 1 0 14.547 46.139 3.000 0 0 0
288 1 1 0 15.208 44.884 3.000 0 0 0
289 1 1 0 14.453 43.684 3.000 0 0 0
290 1 1 0 15.114 42.430 3.000 0 0 0
291 1 1 0 14.358 41.230 3.000 0 0 0
292 1 1 0 15.019 39.976 3.000 0 0 0
293 1 1 0 14.264 38.776 3.000 0 0 0
294 1 1 0 14.925 37.522 3.000 0 0 0
295 1 1 0 14.169 36.322 3.000 0 0 0
296 1 1 0 14.830 35.068 3.000 0 0 0
297 1 1 0 14.075 33.868 3.000 0 0 0
298 1 1 0 14.736 32.613 3.000 0 0 0
299 1 1 0 13.980 31.414 3.000 0 0 0
300 1 1 0 14.642 30.159 3.000 0 0 0
301 1 1 0 13.886 28.959 3.000 0 0 0
302 1 1 0 14.547 27.705 3.000 0 0 0
303 1 1 0 13.791 26.505 3.000 0 0 0
304 1 1 0 14.453 25.251 3.000 0 0 0
305 1 1 0 13.697 24.051 3.000 0 0 0
306 1 1 0 14.358 22.797 3.000 0 0 0
307 1 1 0 13.602 21.597 3.000 0 0 0
308 1 1 0 14.264 20.342 3.000 0 0 0
309 1 1 0 13.508 19.143 3.000 0 0 0
310 1 1 0 14.169 17.888 3.000 0 0 0
311 1 1 0 13.414 16.688 3.000 0 0 0
312 1 1 0 14.075 15.434 3.000 0 0 0
313 1 1 0 13.319 14.234 3.000 0 0 0
314 1 1 0 13.980 12.980 3.000 0 0 0
315 1 1 0 13.225 11.780 3.000 0 0 0
316 1 1 0 13.886 10.526 3.000 0 0 0
317 1 1 0 13.130 9.326 3.000 0 0 0
318 1 1 0 13.791 8.072 3.000 0 0 0
319 1 1 0 13.036 6.872 3.000 0 0 0
320 1 1 0 13.697 5.617 3.000 0 0 0
321 1 1 0 12.941 4.418 3.000 0 0 0
322 1 1 0 13.602 3.163 3.000 0 0 0
323 1 1 0 12.847 1.963 3.000 0 0 0
324 1 1 0 13.508 0.709 3.000 0 0 0
325 1 1 0 17.003 54.646 3.000 0 0 0
326 1 1 0 17.664 53.392 3.000 0 0 0
327 1 1 0 16.909 52.192 3.000 0 0 0
328 1 1 0 17.570 50.938 3.000 0 0 0
329 1 1 0 16.814 49.738 3.000 0 0 0
330 1 1 0 17.475 48.484 3.000 0 0 0
331 1 1 0 16.720 47.284 3.000 0 0 0
332 1 1 0 17.381 46.030 3.000 0 0 0
333 1 1 0 16.625 44.830 3.000 0 0 0
334 1 1 0 17.286 43.575 3.000 0 0 0
335 1 1 0 16.531 42.376 3.000 0 0 0
336 1 1 0 17.192 41.121 3.000 0 0 0
337 1 1 0 16.436 39.921 3.000 0 0 0
338 1 1 0 17.098 38.667 3.000 0 0 0
339 1 1 0 16.342 37.467 3.000 0 0 0
340 1 1 0 17.003 36.213 3.000 0 0 0
341 1 1 0 16.247 35.013 3.000 0 0 0
342 1 1 0 16.909 33.759 3.000 0 0 0
343 1 1 0 16.153 32.559 3.000 0 0 0
344 1 1 0 16.814 31.304 3.000 0 0 0
345 1 1 0 16.058 30.105 3.000 0 0 0
346 1 1 0 16.720 28.850 3.000 0 0 0
347 1 1 0 15.964 27.650 3.000 0 0 0
348 1 1 0 16.625 26.396 3.000 0 0 0
349 1 1 0 15.870 25.196 3.000 0 0 0
350 1 1 0 16.531 23.942 3.000 0 0 0
351 1 1 0 15.775 22.742 3.000 0 0 0
352 1 1 0 16.436 21.488 3.000 0 0 0
353 1 1 0 15.681 20.288 3.000 0 0 0
354 1 1 0 16.342 19.034 3.000 0 0 0
355 1 1 0 15.586 17.834 3.000 0 0 0
356 1 1 0 16.247 16.579 3.000 0 0 0
357 1 1 0 15.492 15.380 3.000 0 0 0
358 1 1 0 16.153 14.125 3.000 0 0 0
359 1 1 0 15.397 12.925 3.000 0 0 0
360 1 1 0 16.058 11.671 3.000 0 0 0
361 1 1 0 15.303 10.471 3.000 0 0 0
362 1 1 0 15.964 9.217 3.000 0 0 0
363 1 1 0 15.208 8.017 3.000 0 0 0
364 1 1 0 15.870 6.763 3.000 0 0 0
365 1 1 0 15.114 5.563 3.000 0 0 0
366 1 1 0 15.775 4.308 3.000 0 0 0
367 1 1 0 15.019 3.109 3.000 0 0 0
368 1 1 0 15.681 1.854 3.000 0 0 0
369 1 1 0 14.925 0.654 3.000 0 0 0
370 1 1 0 19.837 54.537 3.000 0 0 0
371 1 1 0 19.081 53.338 3.000 0 0 0
372 1 1 0 19.742 52.083 3.000 0 0 0
373 1 1 0 18.987 50.883 3.000 0 0 0
374 1 1 0 19.648 49.629 3.000 0 0 0
375 1 1 0 18.892 48.429 3.000 0 0 0
376 1 1 0 19.554 47.175 3.000 0 0 0
377 1 1 0 18.798 45.975 3.000 0 0 0
378 1 1 0 19.459 44.721 3.000 0 0 0
379 1 1 0 18.703 43.521 3.000 0 0 0
380 1 1 0 19.365 42.266 3.000 0 0 0
381 1 1 0 18.609 41.067 3.000 0 0 0
382 1 1 0 19.270 39.812 3.000 0 0 0
383 1 1 0 18.514 38.612 3.000 0 0 0
384 1 1 0 19.176 37.358 3.000 0 0 0
385 1 1 0 18.420 36.158 3.000 0 0 0
386 1 1 0 19.081 34.904 3.000 0 0 0
387 1 1 0 18.326 33.704 3.000 0 0 0
388 1 1 0 18.987 32.450 3.000 0 0 0
389 1 1 0 18.231 31.250 3.000 0 0 0
390 1 1 0 18.892 29.996 3.000 0 0 0
391 1 1 0 18.137 28.796 3.000 0 0 0
392 1 1 0 18.798 27.541 3.000 0 0 0
393 1 1 0 18.042 26.342 3.000 0 0 0
394 1 1 0 18.703 25.087 3.000 0 0 0
395 1 1 0 17.948 23.887 3.000 0 0 0
396 1 1 0 18.609 22.633 3.000 0 0 0
397 1 1 0 17.853 21.433 3.000 0 0 0
398 1 1 0 18.514 20.179 3.000 0 0 0
399 1 1 0 17.759 18.979 3.000 0 0 0
400 1 1 0 18.420 17.725 3.000 0 0 0
401 1 1 0 17.664 16.525 3.000 0 0 0
402 1 1 0 18.326 15.270 3.000 0 0 0
403 1 1 0 17.570 14.071 3.000 0 0 0
404 1 1 0 18.231 12.816 3.000 0 0 0
405 1 1 0 17.475 11.616 3.000 0 0 0
406 1 1 0 18.137 10.362 3.000 0 0 0
407 1 1 0 17.381 9.162 3.000 0 0 0
408 1 1 0 18.042 7.908 3.000 0 0 0
409 1 1 0 17.286 6.708 3.000 0 0 0
410 1 1 0 17.948 5.454 3.000 0 0 0
411 1 1 0 17.192 4.254 3.000 0 0 0
412 1 1 0 17.853 3.000 3.000 0 0 0
413 1 1 0 17.098 1.800 3.000 0 0 0
414 1 1 0 17.759 0.545 3.000 0 0 0
415 1 1 0 21.254 54.483 3.000 0 0 0
416 1 1 0 21.915 53.228 3.000 0 0 0
417 1 1 0 21.159 52.029 3.000 0 0 0
418 1 1 0 21.821 50.774 3.000 0 0 0
419 1 1 0 21.065 49.574 3.000 0 0 0
420 1 1 0 21.726 48.320 3.000 0 0 0
421 1 1 0 20.970 47.120 3.000 0 0 0
422 1 1 0 21.632 45.866 3.000 0 0 0
423 1 1 0 20.876 44.666 3.000 0 0 0
424 1 1 0 21.537 43.412 3.000 0 0 0
425 1 1 0 20.782 42.212 3.000 0 0 0
426 1 1 0 21.443 40.958 3.000 0 0 0
427 1 1 0 20.687 39.758 3.000 0 0 0
428 1 1 0 21.348 38.503 3.000 0 0 0
429 1 1 0 20.593 37.304 3.000 0 0 0
430 1 1 0 21.254 36.049 3.000 0 0 0
431 1 1 0 20.498 34.849 3.000 0 0 0
432 1 1 0 21.159 33.595 3.000 0 0 0
433 1 1 0 20.404 32.395 3.000 0 0 0
434 1 1 0 21.065 31.141 3.000 0 0 0
435 1 1 0 20.309 29.941 3.000 0 0 0
436 1 1 0 20.970 28.687 3.000 0 0 0
437 1 1 0 20.215 27.487 3.000 0 0 0
438 1 1 0 20.876 26.232 3.000 0 0 0
439 1 1 0 20.120 25.033 3.000 0 0 0
440 1 1 0 20.782 23.778 3.000 0 0 0
441 1 1 0 20.026 22.578 3.000 0 0 0
442 1 1 0 20.687 21.324 3.000 0 0 0
443 1 1 0 19.931 20.124 3.000 0 0 0
444 1 1 0 20.593 18.870 3.000 0 0 0
445 1 1 0 19.837 17.670 3.000 0 0 0
446 1 1 0 20.498 16.416 3.000 0 0 0
447 1 1 0 19.742 15.216 3.000 0 0 0
448 1 1 0 20.404 13.962 3.000 0 0 0
449 1 1 0 19.648 12.762 3.000 0 0 0
450 1 1 0 20.309 11.507 3.000 0 0 0
451 1 1 0 19.554 10.308 3.000 0 0 0
452 1 1 0 20.215 9.053 3.000 0 0 0
453 1 1 0 19.459 7.853 3.000 0 0 0
454 1 1 0 20.120 6.599 3.000 0 0 0
455 1 1 0 19.365 5.399 3.000 0 0 0
456 1 1 0 20.026 4.145 3.000 0 0 0
457 1 1 0 19.270 2.945 3.000 0 0 0
458 1 1 0 19.931 1.691 3.000 0 0 0
459 1 1 0 19.176 0.491 3.000 0 0 0
460 1 1 0 24.088 54.374 3.000 0 0 0
461 1 1 0 23.332 53.174 3.000 0 0 0
462 1 1 0 23.993 51.920 3.000 0 0 0
463 1 1 0 23.238 50.720 3.000 0 0 0
464 1 1 0 23.899 49.465 3.000 0 0 0
465 1 1 0 23.143 48.266 3.000 0 0 0
466 1 1 0 23.804 47.011 3.000 0 0 0
467 1 1 0 23.049 45.811 3.000 0 0 0
468 1 1 0 23.710 44.557 3.000 0 0 0
469 1 1 0 22.954 43.357 3.000 0 0 0
470 1 1 0 23.615 42.103 3.000 0 0 0
471 1 1 0 22.860 40.903 3.000 0 0 0
472 1 1 0 23.521 39.649 3.000 0 0 0
473 1 1 0 22.765 38.449 3.000 0 0 0
474 1 1 0 23.426 37.195 3.000 0 0 0
475 1 1 0 22.671 35.995 3.000 0 0 0
476 1 1 0 23.332 34.740 3.000 0 0 0
477 1 1 0 22.576 33.540 3.000 0 0 0
478 1 1 0 23.238 32.286 3.000 0 0 0
479 1 1 0 22.482 31.086 3.000 0 0 0
480 1 1 0 23.143 29.832 3.000 0 0 0
481 1 1 0 22.387 28.632 3.000 0 0 0
482 1 1 0 23.049 27.378 3.000 0 0 0
483 1 1 0 22.293 26.178 3.000 0 0 0
484 1 1 0 22.954 24.924 3.000 0 0 0
485 1 1 0 22.198 23.724 3.000 0 0 0
486 1 1 0 22.860 22.469 3.000 0 0 0
487 1 1 0 22.104 21.270 3.000 0 0 0
488 1 1 0 22.765 20.015 3.000 0 0 0
489 1 1 0 22.010 18.815 3.000 0 0 0
490 1 1 0 22.671 17.561 3.000 0 0 0
491 1 1 0 21.915 16.361 3.000 0 0 0
492 1 1 0 22.576 15.107 3.000 0 0 0
493 1 1 0 21.821 13.907 3.000 0 0 0
494 1 1 0 22.482 12.653 3.000 0 0 0
495 1 1 0 21.726 11.453 3.000 0 0 0
496 1 1 0 22.387 10.198 3.000 0 0 0
497 1 1 0 21.632 8.999 3.000 0 0 0
498 1 1 0 22.293 7.744 3.000 0 0 0
499 1 1 0 21.537 6.544 3.000 0 0 0
500 1 1 0 22.198 5.290 3.000 0 0 0
501 1 1 0 21.443 4.090 3.000 0 0 0
502 1 1 0 22.104 2.836 3.000 0 0 0
503 1 1 0 21.348 1.636 3.000 0 0 0
504 1 1 0 22.010 0.382 3.000 0 0 0
505 1 1 0 25.505 54.319 3.000 0 0 0
506 1 1 0 26.166 53.065 3.000 0 0 0
507 1 1 0 25.410 51.865 3.000 0 0 0
508 1 1 0 26.071 50.611 3.000 0 0 0
509 1 1 0 25.316 49.411 3.000 0 0 0
510 1 1 0 25.977 48.157 3.000 0 0 0
511 1 1 0 25.221 46.957 3.000 0 0 0
512 1 1 0 25.882 45.702 3.000 0 0 0
513 1 1 0 25.127 44.503 3.000 0 0 0
514 1 1 0 25.788 43.248 3.000 0 0 0
515 1 1 0 25.032 42.048 3.000 0 0 0
516 1 1 0 25.694 40.794 3.000 0 0 0
517 1 1 0 24.938 39.594 3.000 0 0 0
518 1 1 0 25.599 38.340 3.000 0 0 0
519 1 1 0 24.843 37.140 3.000 0 0 0
520 1 1 0 25.505 35.886 3.000 0 0 0
521 1 1 0 24.749 34.686 3.000 0 0 0
522 1 1 0 25.410 33.431 3.000 0 0 0
523 1 1 0 24.654 32.232 3.000 0 0 0
524 1 1 0 25.316 30.977 3.000 0 0 0
525 1 1 0 24.560 29.777 3.000 0 0 0
526 1 1 0 25.221 28.523 3.000 0 0 0
527 1 1 0 24.466 27.323 3.000 0 0 0
528 1 1 0 25.127 26.069 3.000 0 0 0
529 1 1 0 24.371 24.869 3.000 0 0 0
530 1 1 0 25.032 23.615 3.000 0 0 0
531 1 1 0 24.277 22.415 3.000 0 0 0
532 1 1 0 24.938 21.161 3.000 0 0 0
533 1 1 0 24.182 19.961 3.000 0 0 0
534 1 1 0 24.843 18.706 3.000 0 0 0
535 1 1 0 24.088 17.507 3.000 0 0 0
536 1 1 0 24.749 16.252 3.000 0 0 0
537 1 1 0 23.993 15.052 3.000 0 0 0
538 1 1 0 24.654 13.798 3.000 0 0 0
539 1 1 0 23.899 12.598 3.000 0 0 0
540 1 1 0 24.560 11.344 3.000 0 0 0
541 1 1 0 23.804 10.144 3.000 0 0 0
542 1 1 0 24.466 8.890 3.000 0 0 0
543 1 1 0 23.710 7.690 3.000 0 0 0
544 1 1 0 24.371 6.435 3.000 0 0 0
545 1 1 0 23.615 5.236 3.000 0 0 0
546 1 1 0 24.277 3.981 3.000 0 0 0
547 1 1 0 23.521 2.781 3.000 0 0 0
548 1 1 0 24.182 1.527 3.000 0 0 0
549 1 1 0 23.426 0.327 3.000 0 0 0
550 1 1 0 28.338 54.210 3.000 0 0 0
551 1 1 0 27.583 53.010 3.000 0 0 0
552 1 1 0 28.244 51.756 3.000 0 0 0
553 1 1 0 27.488 50.556 3.000 0 0 0
554 1 1 0 28.150 49.302 3.000 0 0 0
555 1 1 0 27.394 48.102 3.000 0 0 0
556 1 1 0 28.055 46.848 3.000 0 0 0
557 1 1 0 27.299 45.648 3.000 0 0 0
558 1 1 0 27.961 44.393 3.000 0 0 0
559 1 1 0 27.205 43.194 3.000 0 0 0
560 1 1 0 27.866 41.939 3.000 0 0 0
561 1 1 0 27.110 40.739 3.000 0 0 0
562 1 1 0 27.772 39.485 3.000 0 0 0
563 1 1 0 27.016 38.285 3.000 0 0 0
564 1 1 0 27.677 37.031 3.000 0 0 0
565 1 1 0 26.922 35.831 3.000 0 0 0
566 1 1 0 27.583 34.577 3.000 0 0 0
567 1 1 0 26.827 33.377 3.000 0 0 0
568 1 1 0 27.488 32.123 3.000 0 0 0
569 1 1 0 26.733 30.923 3.000 0 0 0
570 1 1 0 27.394 29.668 3.000 0 0 0
571 1 1 0 26.638 28.469 3.000 0 0 0
572 1 1 0 27.299 27.214 3.000 0 0 0
573 1 1 0 26.544 26.014 3.000 0 0 0
574 1 1 0 27.205 24.760 3.000 0 0 0
575 1 1 0 26.449 23.560 3.000 0 0 0
576 1 1 0 27.110 22.306 3.000 0 0 0
577 1 1 0 26.355 21.106 3.000 0 0 0
578 1 1 0 27.016 19.852 3.000 0 0 0
579 1 1 0 26.260 18.652 3.000 0 0 0
580 1 1 0 26.922 17.397 3.000 0 0 0
581 1 1 0 26.166 16.198 3.000 0 0 0
582 1 1 0 26.827 14.943 3.000 0 0 0
583 1 1 0 26.071 13.743 3.000 0 0 0
584 1 1 0 26.733 12.489 3.000 0 0 0
585 1 1 0 25.977 11.289 3.000 0 0 0
586 1 1 0 26.638 10.035 3.000 0 0 0
587 1 1 0 25.882 8.835 3.000 0 0 0
588 1 1 0 26.544 7.581 3.000 0 0 0
589 1 1 0 25.788 6.381 3.000 0 0 0
590 1 1 0 26.449 5.127 3.000 0 0 0
591 1 1 0 25.694 3.927 3.000 0 0 0
592 1 1 0 26.355 2.672 3.000 0 0 0
593 1 1 0 25.599 1.473 3.000 0 0 0
594 1 1 0 26.260 0.218 3.000 0 0 0
595 1 1 0 29.755 54.156 3.000 0 0 0
596 1 1 0 30.417 52.901 3.000 0 0 0
597 1 1 0 29.661 51.701 3.000 0 0 0
598 1 1 0 30.322 50.447 3.000 0 0 0
599 1 1 0 29.566 49.247 3.000 0 0 0
600 1 1 0 30.228 47.993 3.000 0 0 0
601 1 1 0 29.472 46.793 3.000 0 0 0
602 1 1 0 30.133 45.539 3.000 0 0 0
603 1 1 0 29.378 44.339 3.000 0 0 0
604 1 1 0 30.039 43.085 3.000 0 0 0
605 1 1 0 29.283 41.885 3.000 0 0 0
606 1 1 0 29.944 40.630 3.000 0 0 0
607 1 1 0 29.189 39.431 3.000 0 0 0
608 1 1 0 29.850 38.176 3.000 0 0 0
609 1 1 0 29.094 36.976 3.000 0 0 0
610 1 1 0 29.755 35.722 3.000 0 0 0
611 1 1 0 29.000 34.522 3.000 0 0 0
612 1 1 0 29.661 33.268 3.000 0 0 0
613 1 1 0 28.905 32.068 3.000 0 0 0
614 1 1 0 29.566 30.814 3.000 0 0 0
615 1 1 0 28.811 29.614 3.000 0 0 0
616 1 1 0 29.472 28.359 3.000 0 0 0
617 1 1 0 28.716 27.160 3.000 0 0 0
618 1 1 0 29.378 25.905 3.000 0 0 0
619 1 1 0 28.622 24.705 3.000 0 0 0
620 1 1 0 29.283 23.451 3.000 0 0 0
621 1 1 0 28.527 22.251 3.000 0 0 0
622 1 1 0 29.189 20.997 3.000 0 0 0
623 1 1 0 28.433 19.797 3.000 0 0 0
624 1 1 0 29.094 18.543 3.000 0 0 0
625 1 1 0 28.338 17.343 3.000 0 0 0
626 1 1 0 29.000 16.089 3.000 0 0 0
627 1 1 0 28.244 14.889 3.000 0 0 0
628 1 1 0 28.905 13.634 3.000 0 0 0
629 1 1 0 28.150 12.435 3.000 0 0 0
630 1 1 0 28.811 11.180 3.000 0 0 0
631 1 1 0 28.055 9.980 3.000 0 0 0
632 1 1 0 28.716 8.726 3.000 0 0 0
633 1 1 0 27.961 7.526 3.000 0 0 0
634 1 1 0 28.622 6.272 3.000 0 0 0
635 1 1 0 27.866 5.072 3.000 0 0 0
636 1 1 0 28.527 3.818 3.000 0 0 0
637 1 1 0 27.772 2.618 3.000 0 0 0
638 1 1 0 28.433 1.363 3.000 0 0 0
639 1 1 0 27.677 0.164 3.000 0 0 0
640 1 1 0 31.834 52.847 3.000 0 0 0
641 1 1 0 31.739 50.393 3.000 0 0 0
642 1 1 0 31.645 47.938 3.000 0 0 0
643 1 1 0 31.550 45.484 3.000 0 0 0
644 1 1 0 31.456 43.030 3.000 0 0 0
645 1 1 0 31.361 40.576 3.000 0 0 0
646 1 1 0 31.267 38.122 3.000 0 0 0
647 1 1 0 31.172 35.667 3.000 0 0 0
648 1 1 0 31.834 34.413 3.000 0 0 0
649 1 1 0 31.078 33.213 3.000 0 0 0
650 1 1 0 31.739 31.959 3.000 0 0 0
651 1 1 0 30.983 30.759 3.000 0 0 0
652 1 1 0 31.645 29.505 3.000 0 0 0
653 1 1 0 30.889 28.305 3.000 0 0 0
654 1 1 0 31.550 27.051 3.000 0 0 0
655 1 1 0 30.794 25.851 3.000 0 0 0
656 1 1 0 31.456 24.596 3.000 0 0 0
657 1 1 0 30.700 23.397 3.000 0 0 0
658 1 1 0 31.361 22.142 3.000 0 0 0
659 1 1 0 30.606 20.942 3.000 0 0 0
660 1 1 0 31.267 19.688 3.000 0 0 0
661 1 1 0 30.511 18.488 3.000 0 0 0
662 1 1 0 31.172 17.234 3.000 0 0 0
663 1 1 0 30.417 16.034 3.000 0 0 0
664 1 1 0 31.078 14.780 3.000 0 0 0
665 1 1 0 30.322 13.580 3.000 0 0 0
666 1 1 0 30.983 12.325 3.000 0 0 0
667 1 1 0 30.228 11.126 3.000 0 0 0
668 1 1 0 30.889 9.871 3.000 0 0 0
669 1 1 0 30.133 8.671 3.000 0 0 0
670 1 1 0 30.794 7.417 3.000 0 0 0
671 1 1 0 30.039 6.217 3.000 0 0 0
672 1 1 0 30.700 4.963 3.000 0 0 0
673 1 1 0 29.944 3.763 3.000 0 0 0
674 1 1 0 30.606 2.509 3.000 0 0 0
675 1 1 0 29.850 1.309 3.000 0 0 0
676 1 1 0 30.511 0.055 3.000 0 0 0
677 2 2 0 -0.000 18.434 6.400 0 0 0
678 2 2 0 0.094 15.979 6.400 0 0 0
679 2 2 0 0.189 13.525 6.400 0 0 0
680 2 2 0 0.283 11.071 6.400 0 0 0
681 2 2 0 0.378 8.617 6.400 0 0 0
682 2 2 0 0.472 6.163 6.400 0 0 0
683 2 2 0 0.567 3.709 6.400 0 0 0
684 2 2 0 0.661 1.254 6.400 0 0 0
685 2 2 0 0.000 0.000 6.400 0 0 0
686 2 2 0 0.756 54.101 6.400 0 0 0
687 2 2 0 0.094 52.847 6.400 0 0 0
688 2 2 0 0.850 51.647 6.400 0 0 0
689 2 2 0 0.189 50.393 6.400 0 0 0
690 2 2 0 0.945 49.193 6.400 0 0 0
691 2 2 0 0.283 47.938 6.400 0 0 0
692 2 2 0 1.039 46.739 6.400 0 0 0
693 2 2 0 0.378 45.484 6.400 0 0 0
694 2 2 0 1.134 44.284 6.400 0 0 0
695 2 2 0 0.472 43.030 6.400 0 0 0
696 2 2 0 1.228 41.830 6.400 0 0 0
697 2 2 0 0.567 40.576 6.400 0 0 0
698 2 2 0 1.322 39.376 6.400 0 0 0
699 2 2 0 0.661 38.122 6.400 0 0 0
700 2 2 0 1.417 36.922 6.400 0 0 0
701 2 2 0 0.756 35.667 6.400 0 0 0
702 2 2 0 1.511 34.468 6.400 0 0 0
703 2 2 0 0.850 33.213 6.400 0 0 0
704 2 2 0 1.606 32.013 6.400 0 0 0
705 2 2 0 0.945 30.759 6.400 0 0 0
706 2 2 0 1.700 29.559 6.400 0 0 0
707 2 2 0 1.039 28.305 6.400 0 0 0
708 2 2 0 1.795 27.105 6.400 0 0 0
709 2 2 0 1.134 25.851 6.400 0 0 0
710 2 2 0 1.889 24.651 6.400 0 0 0
711 2 2 0 1.228 23.397 6.400 0 0 0
712 2 2 0 1.984 22.197 6.400 0 0 0
713 2 2 0 1.322 20.942 6.400 0 0 0
714 2 2 0 2.078 19.743 6.400 0 0 0
715 2 2 0 1.417 18.488 6.400 0 0 0
716 2 2 0 2.173 17.288 6.400 0 0 0
717 2 2 0 1.511 16.034 6.400 0 0 0
718 2 2 0 2.267 14.834 6.400 0 0 0
719 2 2 0 1.606 13.580 6.400 0 0 0
720 2 2 0 2.362 12.380 6.400 0 0 0
721 2 2 0 1.700 11.126 6.400 0 0 0
722 2 2 0 2.456 9.926 6.400 0 0 0
723 2 2 0 1.795 8.671 6.400 0 0 0
724 2 2 0 2.550 7.472 6.400 0 0 0
725 2 2 0 1.889 6.217 6.400 0 0 0
726 2 2 0 2.645 5.017 6.400 0 0 0
727 2 2 0 1.984 3.763 6.400 0 0 0
728 2 2 0 2.739 2.563 6.400 0 0 0
729 2 2 0 2.078 1.309 6.400 0 0 0
730 2 2 0 2.834 0.109 6.400 0 0 0
731 2 2 0 2.173 54.156 6.400 0 0 0
732 2 2 0 2.928 52.956 6.400 0 0 0
733 2 2 0 2.267 51.701 6.400 0 0 0
734 2 2 0 3.023 50.502 6.400 0 0 0
735 2 2 0 2.362 49.247 6.400 0 0 0
736 2 2 0 3.117 48.047 6.400 0 0 0
737 2 2 0 2.456 46.793 6.400 0 0 0
738 2 2 0 3.212 45.593 6.400 0 0 0
739 2 2 0 2.550 44.339 6.400 0 0 0
740 2 2 0 3.306 43.139 6.400 0 0 0
741 2 2 0 2.645 41.885 6.400 0 0 0
742 2 2 0 3.401 40.685 6.400 0 0 0
743 2 2 0 2.739 39.431 6.400 0 0 0
744 2 2 0 3.495 38.231 6.400 0 0 0
745 2 2 0 2.834 36.976 6.400 0 0 0
746 2 2 0 3.590 35.777 6.400 0 0 0
747 2 2 0 2.928 34.522 6.400 0 0 0
748 2 2 0 3.684 33.322 6.400 0 0 0
749 2 2 0 3.023 32.068 6.400 0 0 0
750 2 2 0 3.778 30.868 6.400 0 0 0
751 2 2 0 3.117 29.614 6.400 0 0 0
752 2 2 0 3.873 28.414 6.400 0 0 0
753 2 2 0 3.212 27.160 6.400 0 0 0
754 2 2 0 3.967 25.960 6.400 0 0 0
755 2 2 0 3.306 24.705 6.400 0 0 0
756 2 2 0 4.062 23.506 6.400 0 0 0
757 2 2 0 3.401 22.251 6.400 0 0 0
758 2 2 0 4.156 21.051 6.400 0 0 0
759 2 2 0 3.495 19.797 6.400 0 0 0
760 2 2 0 4.251 18.597 6.400 0 0 0
761 2 2 0 3.590 17.343 6.400 0 0 0
762 2 2 0 4.345 16.143 6.400 0 0 0
763 2 2 0 3.684 14.889 6.400 0 0 0
764 2 2 0 4.440 13.689 6.400 0 0 0
765 2 2 0 3.778 12.435 6.400 0 0 0
766 2 2 0 4.534 11.235 6.400 0 0 0
767 2 2 0 3.873 9.980 6.400 0 0 0
768 2 2 0 4.629 8.781 6.400 0 0 0
769 2 2 0 3.967 7.526 6.400 0 0 0
770 2 2 0 4.723 6.326 6.400 0 0 0
771 2 2 0 4.062 5.072 6.400 0 0 0
772 2 2 0 4.818 3.872 6.400 0 0 0
773 2 2 0 4.156 2.618 6.400 0 0 0
774 2 2 0 4.912 1.418 6.400 0 0 0
775 2 2 0 4.251 0.164 6.400 0 0 0
776 2 2 0 5.006 54.265 6.400 0 0 0
777 2 2 0 4.345 53.010 6.400 0 0 0
778 2 2 0 5.101 51.811 6.400 0 0 0
779 2 2 0 4.440 50.556 6.400 0 0 0
780 2 2 0 5.195 49.356 6.400 0 0 0
781 2 2 0 4.534 48.102 6.400 0 0 0
782 2 2 0 5.290 46.902 6.400 0 0 0
783 2 2 0 4.629 45.648 6.400 0 0 0
784 2 2 0 5.384 44.448 6.400 0 0 0
785 2 2 0 4.723 43.194 6.400 0 0 0
786 2 2 0 5.479 41.994 6.400 0 0 0
787 2 2 0 4.818 40.739 6.400 0 0 0
788 2 2 0 5.573 39.540 6.400 0 0 0
789 2 2 0 4.912 38.285 6.400 0 0 0
790 2 2 0 5.668 37.085 6.400 0 0 0
791 2 2 0 5.006 35.831 6.400 0 0 0
792 2 2 0 5.762 34.631 6.400 0 0 0
793 2 2 0 5.101 33.377 6.400 0 0 0
794 2 2 0 5.857 32.177 6.400 0 0 0
795 2 2 0 5.195 30.923 6.400 0 0 0
796 2 2 0 5.951 29.723 6.400 0 0 0
797 2 2 0 5.290 28.469 6.400 0 0 0
798 2 2 0 6.046 27.269 6.400 0 0 0
799 2 2 0 5.384 26.014 6.400 0 0 0
800 2 2 0 6.140 24.815 6.400 0 0 0
801 2 2 0 5.479 23.560 6.400 0 0 0
802 2 2 0 6.234 22.360 6.400 0 0 0
803 2 2 0 5.573 21.106 6.400 0 0 0
804 2 2 0 6.329 19.906 6.400 0 0 0
805 2 2 0 5.668 18.652 6.400 0 0 0
806 2 2 0 6.423 17.452 6.400 0 0 0
807 2 2 0 5.762 16.198 6.400 0 0 0
808 2 2 0 6.518 14.998 6.400 0 0 0
809 2 2 0 5.857 13.743 6.400 0 0 0
810 2 2 0 6.612 12.544 6.400 0 0 0
811 2 2 0 5.951 11.289 6.400 0 0 0
812 2 2 0 6.707 10.089 6.400 0 0 0
813 2 2 0 6.046 8.835 6.400 0 0 0
814 2 2 0 6.801 7.635 6.400 0 0 0
815 2 2 0 6.140 6.381 6.400 0 0 0
816 2 2 0 6.896 5.181 6.400 0 0 0
817 2 2 0 6.234 3.927 6.400 0 0 0
818 2 2 0 6.990 2.727 6.400 0 0 0
819 2 2 0 6.329 1.473 6.400 0 0 0
820 2 2 0 7.085 0.273 6.400 0 0 0
821 2 2 0 6.423 54.319 6.400 0 0 0
822 2 2 0 7.179 53.119 6.400 0 0 0
823 2 2 0 6.518 51.865 6.400 0 0 0
824 2 2 0 7.274 50.665 6.400 0 0 0
825 2 2 0 6.612 49.411 6.400 0 0 0
826 2 2 0 7.368 48.211 6.400 0 0 0
827 2 2 0 6.707 46.957 6.400 0 0 0
828 2 2 0 7.462 45.757 6.400 0 0 0
829 2 2 0 6.801 44.503 6.400 0 0 0
830 2 2 0 7.557 43.303 6.400 0 0 0
831 2 2 0 6.896 42.048 6.400 0 0 0
832 2 2 0 7.651 40.849 6.400 0 0 0
833 2 2 0 6.990 39.594 6.400 0 0 0
834 2 2 0 7.746 38.394 6.400 0 0 0
835 2 2 0 7.085 37.140 6.400 0 0 0
836 2 2 0 7.840 35.940 6.400 0 0 0
837 2 2 0 7.179 34.686 6.400 0 0 0
838 2 2 0 7.935 33.486 6.400 0 0 0
839 2 2 0 7.274 32.232 6.400 0 0 0
840 2 2 0 8.029 31.032 6.400 0 0 0
841 2 2 0 7.368 29.777 6.400 0 0 0
842 2 2 0 8.124 28.578 6.400 0 0 0
843 2 2 0 7.462 27.323 6.400 0 0 0
844 2 2 0 8.218 26.123 6.400 0 0 0
845 2 2 0 7.557 24.869 6.400 0 0 0
846 2 2 0 8.313 23.669 6.400 0 0 0
847 2 2 0 7.651 22.415 6.400 0 0 0