ITEM: TIMESTEP
0
ITEM: NUMBER OF ATOMS
14408
ITEM: BOX BOUNDS pp pp pp
0.0000000000000000e+00 1.0422819400000000e+02
0.0000000000000000e+00 1.8052852700000000e+02
0.0000000000000000e+00 1.8399999999999999e+01
ITEM: ATOMS id type x y z c_csym c_2[1] c_2[2] c_2[3] c_2[4] c_2[5] c_2[6] c_3 
166 1 0.810214 8.58705 7.5 6.03193 -145480 -128661 -103438 -773.575 19757.5 -2518.34 -7.41338 
167 1 0.0868086 7.36749 7.5 6.03192 -131083 -143180 -103588 236.814 20967.7 -316.102 -7.41337 
168 1 0.781277 6.13122 7.5 6.03193 -142739 -130752 -106287 -752.5 15068.7 -2390.22 -7.41321 
169 1 0.0578724 4.91166 7.5 6.03192 -132466 -140932 -107092 161.3 13964.5 -210.614 -7.41317 
170 1 0.752341 3.67539 7.5 6.03193 -140043 -132947 -108405 -722.901 9532.47 -2234.42 -7.41309 
171 1 0.0289362 2.45583 7.5 6.03192 -134258 -138636 -109122 82.2893 6900.46 -103.822 -7.41305 
172 1 0.723405 1.21956 7.5 6.03191 -137490 -135221 -109563 -686.576 3302.43 -2049.32 -7.41303 
173 1 0 0 7.5 6.0319 -136429 -136438 -109771 60.027 0.0137318 0.0693652 -7.41302 
314 1 2.22809 8.57034 7.5 6.03194 -130538 -144253 -101070 2546.41 24085.3 -4640.38 -7.41352 
315 1 2.92256 7.33408 7.5 6.03194 -144058 -130010 -103883 -2339.66 17532.8 -8962.92 -7.41335 
316 1 2.19915 6.11451 7.5 6.03194 -131710 -142061 -105242 2419.29 17204.9 -5042.99 -7.41328 
317 1 2.89362 4.87825 7.5 6.03194 -141324 -132137 -106485 -2461.61 12452.4 -8646 -7.4132 
318 1 2.17022 3.65868 7.5 6.03194 -133308 -139803 -107921 2265.48 10161.3 -5392.77 -7.41312 
319 1 2.86468 2.42242 7.5 6.03191 -138683 -134357 -108243 -2565.79 6598.03 -8236.47 -7.4131 
320 1 2.14128 1.20286 7.5 6.03191 -135313 -137629 -109176 2148.11 3170.52 -5686.97 -7.41305 
461 1 5.06384 8.53693 7.5 6.03194 -145395 -129610 -99985.4 -3736.17 19830.3 -15462.5 -7.41358 
462 1 4.34043 7.31737 7.5 6.03194 -131133 -143259 -102578 4691.3 19954.8 -9262.86 -7.41343 
463 1 5.0349 6.0811 7.5 6.03194 -142651 -131642 -103092 -4014.21 15284.9 -15044.7 -7.4134 
464 1 4.31149 4.86154 7.5 6.03194 -132534 -141086 -105773 4486.85 13024.9 -10108.9 -7.41324 
465 1 5.00596 3.62527 7.5 6.03194 -139950 -133768 -105489 -4265.11 9901.39 -14477.1 -7.41326 
466 1 4.28256 2.40571 7.5 6.03191 -134335 -138868 -107519 4236.77 6047.41 -10850.2 -7.41314 
467 1 4.97703 1.16944 7.5 6.03191 -137419 -136071 -106949 -4546.81 3828.48 -13754.3 -7.41318 
608 1 6.48171 8.52022 7.5 6.03194 -130647 -144468 -99336.7 6913.77 22155.4 -12759.3 -7.41361 
609 1 7.17618 7.28396 7.5 6.03194 -144006 -131478 -98182.2 -5354.15 17942.4 -21245.7 -7.41368 
610 1 6.45277 6.0644 7.5 6.03194 -131851 -142422 -102905 6684.45 15415.9 -14118.9 -7.41341 
611 1 7.14724 4.82813 7.5 6.03194 -141268 -133494 -101233 -5753.79 13110.8 -20580.1 -7.41351 
612 1 6.42384 3.60857 7.5 6.03194 -133476 -140306 -105016 6386.35 8541.83 -15336.8 -7.41329 
613 1 7.11831 2.3723 7.5 6.03191 -138621 -135590 -103484 -6115.41 7514.85 -19706.1 -7.41338 
614 1 6.3949 1.15274 7.5 6.03191 -135498 -138265 -105744 6085.53 1743.13 -16396.4 -7.41325 
755 1 9.31746 8.48681 7.5 6.03194 -145374 -131649 -91759.1 -6464.4 20354 -27089.1 -7.41406 
756 1 8.59405 7.26725 7.5 6.03194 -131255 -143746 -99560 8797.14 17285.8 -17334.6 -7.4136 
757 1 9.28852 6.03098 7.5 6.03194 -142629 -133534 -95456 -7009.01 16138.1 -26375.6 -7.41384 
758 1 8.56512 4.81142 7.5 6.03194 -132695 -141781 -101902 8477.64 10588.4 -19036.1 -7.41346 
759 1 9.25958 3.57515 7.5 6.03194 -139924 -135496 -98508.5 -7508.83 11100.6 -25410.6 -7.41367 
760 1 8.53618 2.35559 7.5 6.03191 -134528 -139764 -102848 8075.01 3880.79 -20547.5 -7.41341 
761 1 9.23065 1.11932 7.5 6.03191 -137383 -137615 -100687 -8018.49 5379.53 -24186.7 -7.41354 
902 1 10.7353 8.47011 7.5 6.03194 -130742 -144997 -95983 10768.7 18615.5 -19716.9 -7.4138 
903 1 11.4298 7.23384 7.5 6.03194 -144013 -133884 -88185.5 -8017.75 18912.5 -31723.3 -7.41427 
904 1 10.7064 6.01428 7.5 6.03194 -131995 -143219 -98425 10451.4 12149.1 -21886.2 -7.41366 
905 1 11.4009 4.77801 7.5 6.03194 -141275 -135702 -92024.9 -8651.1 14497.4 -30717 -7.41404 
906 1 10.6775 3.55845 7.5 6.03194 -133663 -141364 -99465.6 10031.5 5600.64 -23847.3 -7.41361 
907 1 11.3719 2.32218 7.5 6.03191 -138620 -137577 -95147.2 -9228.32 9330.14 -29415.2 -7.41386 
908 1 10.6485 1.10262 7.5 6.03191 -135717 -139573 -99194.4 9577.53 -831.39 -25573.6 -7.41362 
1049 1 13.5711 8.43669 7.5 6.03194 -145402 -134528 -79487.4 -8773.96 21380.4 -36515.2 -7.41478 
1050 1 12.8477 7.21713 7.5 6.03194 -131373 -144561 -94826.6 12256.6 13214 -23874 -7.41387 
1051 1 13.5421 5.98086 7.5 6.03194 -142660 -136191 -84079.7 -9531.08 17634 -35506.5 -7.41451 
1052 1 12.8187 4.7613 7.5 6.03194 -132866 -142910 -95844.5 11843.4 6874.62 -26261.4 -7.41381 
1053 1 13.5132 3.52503 7.5 6.03194 -139953 -137905 -88124.8 -10228 13084 -34176.6 -7.41427 
1054 1 12.7898 2.30547 7.5 6.03191 -134742 -141196 -95539 11319.5 579.906 -28402 -7.41383 
1055 1 13.4843 1.0692 7.5 6.03191 -137400 -139750 -91389.8 -10917.2 7854.44 -32518.8 -7.41408 
1196 1 14.989 8.41999 7.5 6.03194 -130828 -145760 -91333.6 13849.8 13799.5 -25029.4 -7.41407 
1197 1 15.6834 7.18372 7.5 6.03194 -144062 -136945 -74755.6 -10147.2 20456.3 -39691 -7.41505 
1198 1 14.96 5.96416 7.5 6.03194 -132141 -144338 -92220.2 13462.6 7701.44 -27801.8 -7.41402 
1199 1 15.6545 4.72789 7.5 6.03194 -141326 -138496 -79681.3 -10954 16569.7 -38372.5 -7.41476 
1200 1 14.9311 3.50833 7.5 6.03194 -133860 -142830 -91777.1 12949.9 1588.5 -30327.1 -7.41405 
1201 1 15.6255 2.27206 7.5 6.03191 -138665 -140076 -83997.1 -11691.1 11940.7 -36707 -7.41451 
1202 1 14.9021 1.0525 7.5 6.03191 -135954 -141373 -90111.3 12382.4 -4355.25 -32573.9 -7.41415 
1343 1 17.8247 8.38657 7.5 6.03194 -145463 -137945 -64165.6 -10503.9 22924 -43209.1 -7.41567 
1344 1 17.1013 7.16701 7.5 6.03194 -131492 -145606 -88808.1 14851 8103.23 -28518.6 -7.41421 
1345 1 17.7958 5.93074 7.5 6.03194 -142727 -139326 -69912.4 -11407.5 19732.1 -41933.1 -7.41533 
1346 1 17.0724 4.71118 7.5 6.03194 -133042 -144335 -88135.2 14368.4 2200.8 -31383.2 -7.41426 
1347 1 17.7668 3.47492 7.5 6.03194 -140019 -140730 -75228.3 -12239.9 15749.9 -40300.2 -7.41502 
1348 1 17.0434 2.25535 7.5 6.03191 -134962 -142991 -86225.2 13759.7 -3593.4 -33974.4 -7.41437 
1349 1 17.7379 1.01909 7.5 6.03191 -137458 -142241 -79876.9 -13052.2 11087.7 -38306.7 -7.41475 
1490 1 19.2426 8.36987 7.5 6.03194 -130920 -146686 -85795.1 15981.4 8119.9 -28488.9 -7.41438 
1491 1 19.937 7.1336 7.5 6.03194 -144136 -140376 -58941.6 -11595.7 22528.9 -44809.9 -7.41598 
1492 1 19.2136 5.91404 7.5 6.03194 -132294 -145666 -84815 15542.5 2443.88 -31636.6 -7.41444 
1493 1 19.9081 4.67777 7.5 6.03194 -141405 -141609 -65189 -12510.2 19225.8 -43242.3 -7.41561 
1494 1 19.1847 3.45821 7.5 6.03194 -134062 -144553 -82585.1 14967.6 -3175.97 -34524 -7.41458 
1495 1 19.8792 2.22194 7.5 6.03191 -138743 -142846 -70946.2 -13346.5 15183.6 -41309.3 -7.41527 
1496 1 19.1558 1.00238 7.5 6.03191 -136192 -143479 -79231.5 14328.6 -8569.88 -37119.4 -7.41478 
1637 1 22.0783 8.33646 7.5 6.03194 -145538 -141625 -46916.4 -11531.6 24926.8 -46968 -7.41669 
1638 1 21.3549 7.11689 7.5 6.03194 -131622 -146801 -81986.7 16448.4 2359.87 -31173.2 -7.41461 
1639 1 22.0494 5.88063 7.5 6.03194 -142811 -142687 -54011.2 -12513.2 22323.9 -45493.6 -7.41627 
1640 1 21.326 4.66106 7.5 6.03194 -133223 -145939 -79376.9 15920.4 -3071.63 -34299.7 -7.41476 
1641 1 22.0204 3.4248 7.5 6.03194 -140107 -143745 -60799.2 -13418.4 18935.4 -43655.1 -7.41587 
1642 1 21.297 2.20523 7.5 6.03191 -135184 -144997 -75621.8 15262 -8331.51 -37150.6 -7.41499 
1643 1 21.9915 0.968967 7.5 6.03191 -137545 -144888 -67038.9 -14299 14860.1 -41453 -7.4155 
1784 1 23.4962 8.31975 7.5 6.03194 -131034 -147730 -79785.9 17071.5 1999.55 -30087.5 -7.41473 
1785 1 24.1907 7.08348 7.5 6.03194 -144218 -143942 -41849.9 -12265.6 25008.4 -47023.1 -7.41699 
1786 1 23.4673 5.86392 7.5 6.03194 -132458 -147125 -76753.1 16598.7 -3236.84 -33391.9 -7.41491 
1787 1 24.1617 4.62765 7.5 6.03194 -141498 -144834 -49574.9 -13224.1 22297.2 -45308.4 -7.41653 
1788 1 23.4383 3.40809 7.5 6.03194 -134266 -146423 -72553.6 15990.5 -8350.5 -36441 -7.41516 
1789 1 24.1328 2.17182 7.5 6.03191 -138842 -145707 -56931.3 -14102.2 18842.5 -43234.6 -7.41609 
1790 1 23.4094 0.95226 7.5 6.03191 -136422 -145749 -67331.2 15319.2 -13184.1 -39206.1 -7.41547 
1931 1 26.3319 8.28634 7.5 6.03194 -145613 -145353 -28880.5 -11787.2 27249.5 -47802.9 -7.41776 
1932 1 25.6085 7.06677 7.5 6.03194 -131774 -148103 -74830.9 16991.8 -3621.45 -31894.2 -7.41502 
1933 1 26.303 5.83051 7.5 6.03194 -142899 -146084 -37435.3 -12782.4 25231 -46238.8 -7.41725 
1934 1 25.5796 4.61095 7.5 6.03194 -133414 -147653 -70161.4 16441.7 -8582.19 -35081.1 -7.4153 
1935 1 26.2741 3.37468 7.5 6.03194 -140210 -146789 -45804.9 -13701.8 22423 -44323.5 -7.41675 
1936 1 25.5507 2.15512 7.5 6.03191 -135400 -147114 -64438.5 15766.5 -13314.3 -38005.8 -7.41564 
1937 1 26.2451 0.918848 7.5 6.03191 -137657 -147558 -53743.1 -14600 18915.6 -42060.9 -7.41628 
2078 1 27.7498 8.26963 7.5 6.03194 -131177 -148868 -73691.8 17093.8 -4173.35 -29896.6 -7.41509 
2080 1 27.7209 5.8138 7.5 6.03194 -132640 -148672 -68544.1 16606.7 -8977.24 -33161.1 -7.41539 
2081 1 28.4153 4.57753 7.5 6.03194 -141595 -148025 -33828.6 -13062 25562.1 -44686.9 -7.41746 
2082 1 27.6919 3.35797 7.5 6.03194 -134473 -148373 -62312.2 15993 -13601.3 -36185.9 -7.41576 
2083 1 28.3864 2.1217 7.5 6.03191 -138957 -148540 -42841.5 -13930.5 22664.9 -42619.2 -7.41692 
2084 1 27.663 0.902141 7.5 6.03191 -136641 -148089 -55155.4 15324.6 -17897.8 -38946.8 -7.41619 
2079 1 28.4443 7.03336 7.5 6.03194 -144298 -147471 -24563.2 -12118.1 27705 -46416.8 -7.41801 
2225 1 30.5856 8.23622 7.5 6.03194 -145680 -148965 -11161.9 -11259.9 29693 -45814.1 -7.41881 
2226 1 29.8622 7.01666 7.5 6.03194 -131951 -149480 -67765.8 16481.9 -9485.19 -30766.6 -7.41544 
2227 1 30.5566 5.78039 7.5 6.03194 -142986 -149380 -21193.2 -12209.6 28227.2 -44293.2 -7.41821 
2228 1 29.8332 4.56083 7.5 6.03194 -133614 -149428 -61033.9 15935.1 -13996.4 -33832 -7.41584 
2229 1 30.5277 3.32456 7.5 6.03194 -140321 -149748 -31153.3 -13090.2 25961.3 -42446.7 -7.41762 
2230 1 29.8043 2.105 7.5 6.03191 -135611 -149276 -53337.3 15275.2 -18231.2 -36657 -7.41629 
2231 1 30.4988 0.868729 7.5 6.03191 -137789 -150162 -40790.8 -13959.4 22980.8 -40280.2 -7.41704 
2372 1 32.0034 8.21951 7.5 6.03194 -131353 -150074 -67855.3 16067.7 -10056.3 -27978.7 -7.41543 
2373 1 32.6979 6.98324 7.5 6.03194 -144370 -150823 -8110.27 -11176.3 30392.3 -43114.3 -7.41899 
2374 1 31.9745 5.76368 7.5 6.03194 -132838 -150268 -60650.1 15591.2 -14450.4 -31025.8 -7.41586 
2375 1 32.669 4.52741 7.5 6.03194 -141694 -151066 -18877.5 -12051.1 28772.3 -41510.6 -7.41835 
2376 1 31.9456 3.30785 7.5 6.03194 -134681 -150347 -52440 15002.5 -18618.3 -33856 -7.41635 
2377 1 32.64 2.07158 7.5 6.03191 -139086 -151250 -29498.3 -12861.8 26384.4 -39600.4 -7.41771 
2378 1 31.9166 0.852022 7.5 6.03191 -136845 -150430 -43397 14373.6 -22419.3 -36449.2 -7.41688 
2519 1 34.8392 8.1861 7.5 6.03194 -145734 -152311 5189.45 -9998.07 32039.7 -41130.4 -7.41979 
2520 1 34.1158 6.96654 7.5 6.03194 -132147 -150891 -61173.6 14962.6 -14914.8 -27846.8 -7.41583 
2521 1 34.8102 5.73027 7.5 6.03194 -143069 -152448 -6234.19 -10847.3 31073.1 -39785 -7.4191 
2522 1 34.0868 4.51071 7.5 6.03194 -133821 -151208 -52493.8 14449.5 -19010.9 -30623.3 -7.41634 
2523 1 34.7813 3.27444 7.5 6.03194 -140437 -152515 -17688.4 -11639.7 29294.1 -38149.9 -7.41842 
2524 1 34.0579 2.05488 7.5 6.03191 -135814 -151411 -42932.1 13839.7 -22792.1 -33187.7 -7.41691 
2525 1 34.7524 0.81861 7.5 6.03191 -137941 -152611 -28918 -12435 26785.4 -36230.2 -7.41775 
2666 1 36.2571 8.16939 7.5 6.03194 -131544 -151292 -62582.9 14053 -15341.2 -24376.7 -7.41575 
2667 1 36.9515 6.93312 7.5 6.03194 -144434 -153850 6538.27 -9516.79 32848.7 -37257.3 -7.41987 
2668 1 36.2281 5.71356 7.5 6.03194 -133041 -151845 -53495 13619.1 -19361.1 -27039.9 -7.41629 
2669 1 36.9226 4.47729 7.5 6.03194 -141793 -153828 -5589.34 -10271.6 31687.4 -35908.5 -7.41914 
2670 1 36.1992 3.25773 7.5 6.03194 -134881 -152266 -43475.5 13091.1 -23118 -29516.8 -7.41688 
2671 1 36.8937 2.02147 7.5 6.03191 -139223 -153727 -17663.3 -10977.3 29745.6 -34294.1 -7.41842 
2672 1 36.1703 0.801904 7.5 6.03191 -137031 -152676 -32706.5 12540.3 -26476.5 -31791 -7.41752 
2813 1 39.0928 8.13598 7.5 6.03194 -145779 -155223 19186.4 -8099.7 34095.2 -33934.5 -7.42063 
2814 1 38.3694 6.91642 7.5 6.03194 -132343 -152254 -55405.9 12517.6 -19620.8 -23192.2 -7.41617 
2815 1 39.0639 5.68015 7.5 6.03194 -143147 -155132 6553.8 -8797.36 33552.5 -32874 -7.41987 
2816 1 38.3405 4.46059 7.5 6.03194 -134017 -152898 -45007.6 12075.4 -23349.4 -25521.6 -7.41679 
2817 1 39.0349 3.22432 7.5 6.03194 -140555 -154951 -6195.84 -9453.35 32186.8 -31571.4 -7.4191 
2818 1 38.3115 2.00476 7.5 6.03191 -135997 -153411 -33801.2 11555.7 -26732.9 -27676.5 -7.41746 
2819 1 39.006 0.768491 7.5 6.03191 -138101 -154780 -18804.8 -10128.7 30079.5 -30029.6 -7.41835 
2960 1 40.5107 8.11927 7.5 6.03194 -131723 -152430 -58154.2 11154.5 -19740.4 -19176.2 -7.41602 
2961 1 41.2052 6.88301 7.5 6.03194 -144490 -156375 18483.7 -7259.1 34889.8 -29068.5 -7.42058 
2962 1 40.4817 5.66344 7.5 6.03194 -133226 -153292 -47474.2 10800.7 -23438.3 -21296.5 -7.41665 
2963 1 41.1762 4.42718 7.5 6.03194 -141888 -156145 5234.07 -7846.48 34101.1 -28073.9 -7.41979 
2964 1 40.4528 3.20761 7.5 6.03194 -135057 -154003 -35926 10373.6 -26844.3 -23272.6 -7.41733 
2965 1 41.1473 1.97135 7.5 6.03191 -139361 -155817 -8038.34 -8401.29 32523 -26866.8 -7.41899 
2966 1 40.4239 0.751785 7.5 6.03191 -137186 -154686 -23699 9942.59 -29827 -25091.1 -7.41806 
3107 1 43.3464 8.08586 7.5 6.03194 -145816 -157506 29937.1 -5698.85 35713 -24542.4 -7.42127 
3108 1 42.623 6.8663 7.5 6.03194 -132506 -153447 -50786.5 9280.36 -23335.2 -16947.1 -7.41645 
3109 1 43.3175 5.63003 7.5 6.03194 -143218 -157247 16367.7 -6199.01 35493.6 -23840.9 -7.42046 
3110 1 42.5941 4.41047 7.5 6.03194 -134177 -154357 -39010.3 8948.84 -26762.9 -18683.3 -7.41715 
3111 1 43.2886 3.1742 7.5 6.03194 -140666 -156880 2613.89 -6673.79 34444.9 -22959.1 -7.41963 
3112 1 42.5652 1.95464 7.5 6.03191 -136142 -155119 -26485.7 8560.43 -29821.8 -20295.4 -7.41789 
3113 1 43.2596 0.718372 7.5 6.03191 -138253 -156505 -11065.4 -7185 32647.7 -21896.8 -7.41881 
3254 1 44.7643 8.06915 7.5 6.03194 -131854 -153369 -54820.5 7533.6 -22989.4 -12589.9 -7.41622 
3255 1 45.4588 6.83289 7.5 6.03194 -144539 -158203 26944.8 -4553.6 36382.1 -18941.8 -7.42109 
3256 1 44.7354 5.61332 7.5 6.03194 -133361 -154466 -42947.9 7297.4 -26439.7 -14025 -7.41692 
3257 1 45.4298 4.37706 7.5 6.03194 -141971 -157829 12894 -4931.97 35854.7 -18364.6 -7.42025 
3258 1 44.7064 3.1575 7.5 6.03194 -135183 -155397 -30254.8 7010.89 -29576.2 -15371.4 -7.41767 
3259 1 45.4009 1.92123 7.5 6.03191 -139482 -157341 -1235.34 -5293.99 34533.9 -17642.5 -7.4194 
3260 1 44.6775 0.701666 7.5 6.03191 -137294 -156282 -16936.1 6739.78 -32270.1 -16619.1 -7.41847 
3402 1 46.8766 6.81618 7.5 6.03194 -132604 -154338 -47598.4 5442.54 -25825.4 -9423.65 -7.41665 
3404 1 46.8477 4.36035 7.5 6.03194 -134274 -155431 -34882.9 5256.79 -29042.2 -10445.6 -7.4174 
3406 1 46.8188 1.90452 7.5 6.03191 -136228 -156361 -21459.3 5035.7 -31872.7 -11407.4 -7.4182 
3401 1 47.6001 8.03574 7.5 6.03194 -145846 -158967 36711.3 -2950.4 36796.6 -13474.5 -7.42168 
3403 1 47.5711 5.57991 7.5 6.03194 -143276 -158604 22547.6 -3217.34 36774.8 -13171.2 -7.42083 
3405 1 47.5422 3.12408 7.5 6.03194 -140756 -158121 8155.65 -3474.37 35921.9 -12763.1 -7.41996 
3407 1 47.5132 0.668253 7.5 6.03191 -138378 -157614 -6205.53 -3783.87 34319 -12247.3 -7.41911 
3548 1 49.0179 8.01904 7.5 6.03194 -131903 -153993 -52789 3415.32 -24872.2 -5009.92 -7.41634 
3549 1 49.7124 6.78277 7.5 6.03194 -144577 -159160 31332 -1568.78 37238 -7493.27 -7.42136 
3550 1 48.989 5.56321 7.5 6.03194 -133416 -155228 -40212.6 3325.53 -28172.6 -5652.01 -7.41709 
3551 1 49.6835 4.32694 7.5 6.03194 -142032 -158710 16861.8 -1708.44 36837.9 -7363.76 -7.42049 
3552 1 48.9601 3.10738 7.5 6.03194 -135236 -156286 -26842.6 3209.7 -31144.5 -6272.89 -7.41788 
3553 1 49.6545 1.87111 7.5 6.03191 -139570 -158135 2282.34 -1846.95 35645.1 -7169.02 -7.41961 
3554 1 48.9311 0.651547 7.5 6.03191 -137340 -157288 -12877.1 3129.6 -33660.3 -6866.24 -7.41871 
3695 1 51.8537 7.98562 7.5 6.03194 -145870 -159462 39023.6 -21.363 37286.2 -1465.35 -7.42182 
3696 1 51.1303 6.76606 7.5 6.03194 -132609 -154812 -46056.1 1251.81 -26923.5 -1124.7 -7.41674 
3697 1 51.8247 5.52979 7.5 6.03194 -143314 -159061 24654 -33.6097 37317.8 -1572.19 -7.42095 
3698 1 51.1013 4.31023 7.5 6.03194 -134284 -155984 -32911.8 1234.22 -30041 -1354.42 -7.41752 
3699 1 51.7958 3.07396 7.5 6.03194 -140811 -158534 10039.4 -50.4945 36520.7 -1658.84 -7.42008 
3700 1 51.0724 1.8544 7.5 6.03191 -136239 -156987 -19075.6 1203.24 -32761.6 -1597.15 -7.41834 
3701 1 51.7669 0.618134 7.5 6.03191 -138452 -157975 -4561.78 -134.801 34976.6 -1719.96 -7.41921 
3842 1 53.2715 7.96892 7.5 6.03194 -131852 -154219 -52200.3 -921.61 -25257 3010.51 -7.41638 
3843 1 53.966 6.73265 7.5 6.03194 -144598 -159144 31326.8 1517.38 37404.4 4468.57 -7.42136 
3844 1 53.2426 5.51309 7.5 6.03194 -133375 -155478 -39464.5 -852.819 -28522.8 3213.99 -7.41713 
3845 1 53.9371 4.27682 7.5 6.03194 -142062 -158687 16852 1628.98 36984.5 4146.02 -7.42049 
3846 1 53.2137 3.05726 7.5 6.03194 -135203 -156558 -25937.5 -785.236 -31453 3366.24 -7.41793 
3847 1 53.9081 1.82099 7.5 6.03191 -139610 -158103 2265.22 1727.42 35776.5 3803.56 -7.41961 
3848 1 53.1847 0.601428 7.5 6.03191 -137314 -157581 -11818.7 -660.703 -33919.8 3469.35 -7.41877 
3989 1 56.1073 7.9355 7.5 6.03194 -145882 -158939 36704.6 2917.06 37145.3 10608.7 -7.42168 
3990 1 55.3839 6.71594 7.5 6.03194 -132512 -154807 -46276.6 -3005.58 -26558.1 7312.01 -7.41673 
3991 1 56.0784 5.47967 7.5 6.03194 -143326 -158564 22534.2 3162.29 37080.4 10098.4 -7.42083 
3992 1 55.355 4.26011 7.5 6.03194 -134200 -155945 -33246.9 -2852.65 -29699.9 7894.38 -7.4175 
3993 1 56.0494 3.02384 7.5 6.03194 -140823 -158067 8130.96 3388.8 36192.7 9523.04 -7.41996 
3994 1 55.326 1.80428 7.5 6.03191 -136170 -156917 -19515.1 -2690.32 -32441.2 8389.82 -7.41831 
3995 1 56.0205 0.568015 7.5 6.03191 -138465 -157541 -6247.65 3533.49 34565.1 8889.76 -7.4191 
4136 1 57.5252 7.9188 7.5 6.03194 -131702 -154020 -53109.9 -5173.34 -24126.3 10840.7 -7.41632 
4137 1 58.2196 6.68253 7.5 6.03194 -144599 -158154 26932.3 4523.8 36855.4 16050.2 -7.42109 
4138 1 57.4962 5.46297 7.5 6.03194 -133239 -155184 -40769.6 -4953.46 -27476.9 11876.3 -7.41705 
4139 1 58.1907 4.2267 7.5 6.03194 -142055 -157761 12869.4 4880.05 36270.3 15292.1 -7.42025 
4140 1 57.4673 3.00714 7.5 6.03194 -135086 -156179 -27615.5 -4710.43 -30493.3 12792.2 -7.41783 
4141 1 58.1618 1.77087 7.5 6.03191 -139594 -157247 -1279.46 5208.79 34905.4 14432.6 -7.4194 
4142 1 57.4384 0.551309 7.5 6.03191 -137218 -157125 -13846.7 -4389.03 -33045.5 13586 -7.41865 
4283 1 60.3609 7.88538 7.5 6.03194 -145876 -157453 29928.8 5693.34 36357.9 21858.8 -7.42127 
4284 1 59.6375 6.66582 7.5 6.03194 -132328 -154327 -48261.8 -7036.29 -24771 15226.6 -7.41661 
4285 1 60.332 5.42956 7.5 6.03194 -143307 -157171 16348.8 6179.86 36056.1 20968 -7.42046 
4286 1 59.6086 4.20999 7.5 6.03194 -134036 -155321 -35877.3 -6731.21 -28057.3 16579 -7.41734 
4287 1 60.303 2.97373 7.5 6.03194 -140789 -156776 2576.58 6633.39 34940.7 19934.5 -7.41963 
4288 1 59.5796 1.75416 7.5 6.03191 -136031 -156164 -22755.7 -6393.57 -30947.3 17778.6 -7.41812 
4289 1 60.2741 0.517896 7.5 6.03191 -138415 -156364 -11132.3 6990.79 33096.1 18767.5 -7.41881 
4430 1 61.7788 7.86868 7.5 6.03194 -131477 -153427 -55479.6 -9047.13 -21582.6 17889.3 -7.41618 
4431 1 62.4733 6.63241 7.5 6.03194 -144574 -156299 18473.9 7271.08 35597.7 26417.6 -7.42058 
4432 1 61.7499 5.41285 7.5 6.03194 -133032 -154391 -44052.9 -8702.46 -25127 19680.8 -7.41685 
4433 1 62.4443 4.17658 7.5 6.03194 -142008 -156037 5209.78 7847.31 34717.9 25261.7 -7.41979 
4434 1 61.7209 2.95702 7.5 6.03194 -134906 -155202 -31768 -8310.82 -28346.7 21295.7 -7.41758 
4435 1 62.4154 1.72075 7.5 6.03191 -139525 -155670 -8087.6 8381.46 33069.9 23934.1 -7.41899 
4436 1 61.692 0.50119 7.5 6.03191 -137070 -155980 -18821.9 -7820.03 -31108.6 22727 -7.41835 
4577 1 64.6145 7.83527 7.5 6.03194 -145848 -155155 19187.3 8139.35 34942.6 31520.4 -7.42063 
4578 1 63.8911 6.6157 7.5 6.03194 -132087 -153441 -51898.7 -10573.9 -21709.9 22059 -7.41638 
4579 1 64.5856 5.37944 7.5 6.03194 -143254 -155029 6546.09 8835.65 34284 30292.2 -7.41987 
4580 1 63.8622 4.15987 7.5 6.03194 -133818 -154200 -40634.2 -10150.1 -25244.2 24086 -7.41705 
4581 1 64.5567 2.92361 7.5 6.03194 -140709 -154808 -6221.38 9484.45 32824.1 28857.2 -7.4191 
4582 1 63.8333 1.70404 7.5 6.03191 -135846 -154826 -28577.3 -9671.85 -28393.7 25908.3 -7.41777 
4583 1 64.5277 0.467777 7.5 6.03191 -138310 -154585 -18862.1 10021.9 30649.1 27226.5 -7.41835 
4724 1 66.0324 7.81856 7.5 6.03194 -131218 -152522 -59183.7 -12294.2 -17827.4 23704.1 -7.41595 
4726 1 66.0035 5.36273 7.5 6.03194 -132789 -153203 -49112.6 -11862.8 -21653.3 26128.1 -7.41655 
4728 1 65.9745 2.9069 7.5 6.03194 -134692 -153750 -38122.6 -11361.7 -25172 28333.2 -7.4172 
4730 1 65.9456 0.451071 7.5 6.03191 -136894 -154284 -26406.3 -10741.1 -28246.1 30307.7 -7.4179 
4725 1 66.7269 6.58229 7.5 6.03194 -144517 -153762 6548.21 9588.01 33686.2 34917.3 -7.41987 
4727 1 66.6979 4.12646 7.5 6.03194 -141924 -153697 -5588.04 10346.7 32405.4 33427.1 -7.41914 
4729 1 66.669 1.67063 7.5 6.03191 -139411 -153545 -17681.9 11048.9 30371.2 31709.2 -7.41842 
4870 1 68.1737 9.02141 7.5 6.03194 -130441 -151679 -65697 -13817.6 -13513.3 24631.8 -7.41556 
4871 1 68.8682 7.78515 7.5 6.03194 -145786 -152247 5215.76 10096.9 32971.7 39040.7 -7.41979 
4872 1 68.1448 6.56559 7.5 6.03194 -131832 -152260 -56977.6 -13402.2 -17600.4 27427.5 -7.41608 
4873 1 68.8392 5.32932 7.5 6.03194 -143165 -152341 -6206.17 10960.7 31860.8 37546 -7.4191 
4874 1 68.1158 4.10976 7.5 6.03194 -133585 -152713 -47220.1 -12901.5 -21462.2 29996.8 -7.41666 
4875 1 68.8103 2.87349 7.5 6.03194 -140590 -152357 -17666.8 11763.1 29963.3 35794.9 -7.41842 
4876 1 68.0869 1.65393 7.5 6.03191 -135646 -153052 -36600.3 -12325.4 -24958.1 32323.4 -7.41729 
4877 1 68.7813 0.417658 7.5 6.03191 -138161 -152390 -28916.9 12438.8 27368.2 33799.4 -7.41775 
5017 1 71.0094 8.988 7.5 6.03194 -147047 -150499 2585.04 10358.2 32188.7 42575.3 -7.41963 
5018 1 70.286 7.76844 7.5 6.03194 -130967 -151412 -64025.7 -14727 -13123.4 28011.3 -7.41566 
5019 1 70.9805 6.53217 7.5 6.03194 -144423 -150751 -8058.85 11320.6 31237.5 41126 -7.41899 
5020 1 70.2571 5.31261 7.5 6.03194 -132549 -151752 -55650.4 -14249 -17294.9 30917.2 -7.41616 
5021 1 70.9516 4.07634 7.5 6.03194 -141802 -150944 -18818.1 12217.2 29472.6 39394.8 -7.41835 
5022 1 70.2282 2.85678 7.5 6.03194 -134477 -151976 -46284.9 -13681.5 -21183.9 33574.5 -7.41671 
5023 1 70.9226 1.62051 7.5 6.03191 -139260 -151066 -29440.1 13043.6 26971.2 37392.7 -7.41772 
5024 1 70.1992 0.400952 7.5 6.03191 -136715 -152203 -36115.1 -12975.4 -24649 35966.4 -7.41732 
5164 1 72.4273 8.9713 7.5 6.03194 -130213 -150691 -70080.4 -15799.1 -8270.16 27922.7 -7.4153 
5165 1 73.1218 7.73503 7.5 6.03194 -145683 -148940 -11093.7 11426.2 30583.3 44086.5 -7.41881 
5166 1 72.3984 6.51547 7.5 6.03194 -131603 -150902 -63218.2 -15365.6 -12710.6 31129.8 -7.41571 
5167 1 73.0928 5.2792 7.5 6.03194 -143038 -149307 -21102.3 12409.5 28946.3 42427.1 -7.41822 
5168 1 72.3694 4.05964 7.5 6.03194 -133370 -151002 -55248.1 -14828 -16957.3 34088.5 -7.41618 
5169 1 73.0639 2.82337 7.5 6.03194 -140436 -149615 -31044.2 13320.2 26538.4 40473.4 -7.41762 
5170 1 72.3405 1.60381 7.5 6.03191 -135457 -151002 -46336.7 -14196.6 -20864.4 36776.8 -7.41671 
5171 1 73.035 0.367539 7.5 6.03191 -137982 -149959 -40675 14090.5 23452.5 38237.4 -7.41705 
5311 1 75.2631 8.93788 7.5 6.03194 -146931 -146921 -15223.3 11281.8 29944.7 46351.2 -7.41857 
5312 1 74.5397 7.71832 7.5 6.03194 -130764 -150195 -69755.4 -16218 -7759.47 30682 -7.41532 
5313 1 75.2341 6.48205 7.5 6.03194 -144286 -147459 -24451.7 12342.1 28431.4 44814 -7.41802 
5314 1 74.5107 5.26249 7.5 6.03194 -132347 -150156 -63302.7 -15730.2 -12320.9 33905.9 -7.4157 
5315 1 75.2052 4.02622 7.5 6.03194 -141642 -147958 -33679.6 13328 26117.4 42962.5 -7.41747 
5316 1 74.4818 2.80666 7.5 6.03194 -134289 -150014 -55782.6 -15135.9 -16633.2 36859.9 -7.41615 
5317 1 75.1762 1.57039 7.5 6.03191 -139078 -148404 -42659.8 14233.4 23084.2 40806.4 -7.41693 
5318 1 74.4528 0.350833 7.5 6.03191 -136551 -149890 -47371.7 -14386.1 -20548.9 39521.7 -7.41665 
5458 1 76.6809 8.92118 7.5 6.03194 -130050 -149650 -75124.5 -16780.5 -2499.39 29628.4 -7.415 
5459 1 77.3754 7.68491 7.5 6.03194 -145534 -145413 -28763.8 12021.7 27973.1 46480.1 -7.41776 
5460 1 76.652 6.46535 7.5 6.03194 -131427 -149463 -70289.1 -16359.1 -7326.27 33074.8 -7.41529 
5461 1 77.3465 5.22908 7.5 6.03194 -142870 -146095 -37262.8 13072.5 25754.2 44781.9 -7.41726 
5462 1 76.6231 4.00952 7.5 6.03194 -133195 -149175 -64273.6 -15819.5 -11999.7 36257.6 -7.41565 
5463 1 77.3175 2.77325 7.5 6.03194 -140248 -146737 -45575 14043.9 22777.9 42760.8 -7.41676 
5464 1 76.5941 1.55369 7.5 6.03191 -135295 -148800 -57232 -15171.3 -16368 39148.8 -7.41607 
5465 1 77.2886 0.31742 7.5 6.03191 -137779 -147431 -53461.9 14865.1 19143.6 40427.4 -7.41629 
5605 1 79.5167 8.88776 7.5 6.03194 -146766 -143186 -33902.2 11463.8 27611.2 47353.9 -7.41746 
5606 1 78.7933 7.6682 7.5 6.03194 -130630 -148940 -76077.3 -16690.9 -2032.89 31648.4 -7.41495 
5607 1 79.4877 6.43193 7.5 6.03194 -144105 -144042 -41676.1 12564.8 25491.5 45855.3 -7.417 
5608 1 78.7643 5.21237 7.5 6.03194 -132200 -148498 -71657.8 -16221.7 -7016.36 35016.6 -7.41521 
5609 1 79.4588 3.9761 7.5 6.03194 -141444 -144879 -49320.6 13589.3 22578.8 44020.4 -7.41654 
5610 1 78.7354 2.75654 7.5 6.03194 -134141 -147961 -66090.8 -15634.1 -11792.6 38099.3 -7.41554 
5611 1 79.4299 1.52028 7.5 6.03191 -138868 -145682 -56594.2 14527.4 18962.1 41856.1 -7.41611 
5612 1 78.7065 0.300714 7.5 6.03191 -136413 -147456 -59540.9 -14879.1 -16206.7 40868.8 -7.41593 
5752 1 80.9346 8.87106 7.5 6.03194 -129969 -148599 -80569.1 -16708.5 3490.8 29684.8 -7.41468 
5753 1 81.629 7.63479 7.5 6.03194 -145337 -141819 -46768.3 11823.7 25364.5 46110.5 -7.4167 
5754 1 80.9056 6.41523 7.5 6.03194 -131320 -147997 -77812.5 -16322 -1744.27 33187.1 -7.41485 
5755 1 81.6001 5.17896 7.5 6.03194 -142659 -142838 -53762.8 12885.2 22526.3 44506.4 -7.41628 
5756 1 80.8767 3.9594 7.5 6.03194 -133073 -147301 -73803.1 -15809 -6876.22 36417 -7.41509 
5757 1 81.5712 2.72313 7.5 6.03194 -140027 -143836 -60439.5 13866.8 18938.8 42561.8 -7.41589 
5758 1 80.8477 1.50357 7.5 6.03191 -135170 -146528 -68679.9 -15178.2 -11745.2 39340 -7.41539 
5759 1 81.5422 0.267301 7.5 6.03191 -137556 -144904 -66565.9 14694.7 14711.6 40284.2 -7.41552 
5899 1 83.7703 8.83765 7.5 6.03194 -146556 -139456 -52357.2 10875.5 25397.2 45486.5 -7.41637 
5900 1 83.0469 7.61808 7.5 6.03194 -130572 -147683 -82645.7 -16106.8 3745.63 30825.4 -7.41457 
5901 1 83.7414 6.38182 7.5 6.03194 -143881 -140637 -58735.3 11954.6 22650 44147.3 -7.41599 
5902 1 83.018 5.16225 7.5 6.03194 -132114 -146824 -80252.6 -15679.3 -1681.36 34149.4 -7.41471 
5903 1 83.7124 3.92599 7.5 6.03194 -141211 -141822 -64846.9 12961.2 19109.5 42464.2 -7.41563 
5904 1 82.989 2.70642 7.5 6.03194 -134038 -145879 -76631.3 -15128.4 -6952 37180.4 -7.41493 
5905 1 83.6835 1.47016 7.5 6.03191 -138632 -142995 -70455.8 13882.6 14875.2 40439.9 -7.4153 
5906 1 82.9601 0.250595 7.5 6.03191 -136305 -144976 -71932 -14405.2 -11900.8 39885.9 -7.41521 
6046 1 85.1882 8.82094 7.5 6.03194 -129968 -147560 -86098.4 -15568.6 9371.45 27997.1 -7.41437 
6048 1 85.1592 6.36511 7.5 6.03194 -131280 -146539 -85353.2 -15234.1 3718.4 31352.5 -7.41441 
6050 1 85.1303 3.90928 7.5 6.03194 -133004 -145429 -83284.3 -14772.8 -1891.08 34436.7 -7.41454 
6052 1 85.1014 1.45345 7.5 6.03191 -135081 -144252 -80013.3 -14193.2 -7286.47 37211 -7.41473 
6047 1 85.8826 7.58467 7.5 6.03194 -145102 -138312 -64041.6 10828.7 22965.8 42886.2 -7.41568 
6049 1 85.8537 5.12884 7.5 6.03194 -142413 -139662 -69634.2 11838.9 19497.7 41494.3 -7.41535 
6051 1 85.8248 2.67301 7.5 6.03194 -139778 -141016 -74772.5 12774.8 15281 39761.8 -7.41505 
6053 1 85.7958 0.217182 7.5 6.03191 -137315 -142460 -79229.8 13561.2 10439.7 37692.3 -7.41478 
6193 1 88.0239 8.78753 7.5 6.03194 -146315 -135911 -69460.9 9547.34 23471.4 40690.8 -7.41536 
6194 1 87.3005 7.56796 7.5 6.03194 -130584 -146449 -89052.3 -14469.4 9237.14 28095.4 -7.4142 
6195 1 87.995 6.3317 7.5 6.03194 -143626 -137398 -74591.3 10535.9 20109.9 39603.5 -7.41506 
6196 1 87.2716 5.11213 7.5 6.03194 -132086 -145178 -88558.8 -14104.4 3361.37 31167.5 -7.41423 
6197 1 87.9661 3.87587 7.5 6.03194 -140950 -138916 -79317.4 11462.5 15945.5 38186.9 -7.41478 
6198 1 87.2426 2.65631 7.5 6.03194 -133980 -143828 -86759 -13620 -2415.5 33954.3 -7.41434 
6199 1 87.9371 1.42004 7.5 6.03191 -138377 -140445 -83407 12312.3 11091.9 36439.1 -7.41454 
6200 1 87.2137 0.200476 7.5 6.03191 -136227 -142533 -83786.6 -12967.8 -7914.51 36420.8 -7.41452 
6340 1 89.4418 8.77082 7.5 6.03194 -130033 -146555 -91333.6 -13390.8 14776.3 24465.4 -7.41407 
6341 1 90.1363 7.53455 7.5 6.03194 -144845 -135085 -79487.4 9095.54 20932.8 36773.6 -7.41478 
6342 1 89.4129 6.31499 7.5 6.03194 -131298 -145130 -92409 -13123.5 8715.59 27449.2 -7.41401 
6343 1 90.1073 5.07872 7.5 6.03194 -142145 -136736 -83868.1 9986.65 16865.7 35679.4 -7.41452 
6344 1 89.3839 3.85916 7.5 6.03194 -132982 -143622 -92094.8 -12739.8 2633.54 30181.2 -7.41403 
6345 1 90.0784 2.62289 7.5 6.03194 -139511 -138417 -87661.4 10815.5 12043.9 34271.5 -7.4143 
6346 1 89.355 1.40333 7.5 6.03191 -135031 -142059 -90494.7 -12247.8 -3286.38 32621.7 -7.41412 
6347 1 90.0495 0.167063 7.5 6.03191 -137063 -140212 -90645.8 11506.2 6608.01 32549.9 -7.41412 
6487 1 92.2775 8.73741 7.5 6.03194 -146063 -132789 -84079.7 7567.03 21932.5 33024.7 -7.41451 
6488 1 91.5541 7.51785 7.5 6.03194 -130650 -145284 -94826.6 -11839 14068.4 23380.7 -7.41387 