ITEM: TIMESTEP
155
ITEM: NUMBER OF ATOMS
14408
ITEM: BOX BOUNDS pp pp pp
0.0000000000000000e+00 1.0422819400000000e+02
0.0000000000000000e+00 1.8052852700000000e+02
0.0000000000000000e+00 1.8399999999999999e+01
ITEM: ATOMS id type x y z c_csym c_2[1] c_2[2] c_2[3] c_2[4] c_2[5] c_2[6] c_3 
166 1 0.882347 8.57909 7.41093 6.01341 -169174 -140387 -3128.09 -25268.2 15846.4 -3468.51 -7.41526 
167 1 0.149965 7.36526 7.40698 6.02125 -147819 -162379 2173.57 -18414.6 20599.2 -1345.72 -7.41547 
168 1 0.83439 6.12354 7.40358 6.0185 -165483 -144624 -1148.15 -13725.6 12829.5 -3122.66 -7.41511 
169 1 0.101096 4.91019 7.40051 6.02417 -149881 -160368 651.597 -8521.4 13724.4 -914.964 -7.41512 
170 1 0.784819 3.66813 7.39821 6.02275 -161431 -148873 -257.627 -5509.38 8518.46 -2692.58 -7.41497 
171 1 0.0508994 2.45512 7.39634 6.02708 -152321 -157920 41.0481 -2197.38 6724.83 -448.821 -7.41492 
172 1 0.734218 1.21286 7.39538 6.0275 -157249 -153114 -53.1417 -1199.23 3018.78 -2163.16 -7.41488 
173 1 1.43615e-06 3.48204e-06 7.3949 6.02989 -155144 -155163 -60.4217 -27.4163 -0.019743 -0.1561 -7.41486 
314 1 2.29984 8.54994 7.41172 6.01566 -159691 -150559 2657.84 -20503.7 23315.8 -4285.93 -7.41569 
315 1 2.98428 7.30815 7.40856 6.01608 -177909 -131875 -1008.09 -18512.1 14210.5 -10080.4 -7.4153 
316 1 2.25186 6.09428 7.40445 6.01915 -158080 -152140 777.909 -8857.87 16593.4 -4781.28 -7.41528 
317 1 2.93562 4.85219 7.40228 6.01996 -170645 -139529 63.4539 -8614.64 10657.9 -9388.05 -7.41514 
318 1 2.20229 3.63881 7.39914 6.02239 -156744 -153489 -27.8869 -643.299 9589.41 -5145.68 -7.41502 
319 1 2.88563 2.39655 7.39822 6.02449 -162932 -147291 233.099 -2359.03 5852.79 -8488.04 -7.415 
320 1 2.15169 1.18351 7.39634 6.02525 -155596 -154582 -123.761 3633.94 2665.59 -5409.21 -7.41491 
461 1 5.13301 8.49394 7.41545 6.01306 -192734 -116960 293.537 -21058 15387.3 -16882.1 -7.41565 
462 1 4.40171 7.27939 7.41056 6.01173 -169138 -140863 -64.8787 -7215.4 18681.1 -7615.88 -7.41547 
463 1 5.08552 6.03726 7.40861 6.01732 -182561 -127547 1329.27 -9447.26 12677.2 -16031.4 -7.41547 
464 1 4.35305 4.82335 7.40444 6.01676 -164386 -145774 -811.69 3010.18 11802.2 -8830.6 -7.41517 
465 1 5.03645 3.58108 7.4036 6.02165 -171716 -138506 1246.18 -1235.07 8698.82 -14883.2 -7.41528 
466 1 4.30308 2.36767 7.4005 6.02052 -159665 -150517 -643.169 9387.84 4850.06 -9861.85 -7.41503 
467 1 4.98639 1.12541 7.40095 6.02228 -160476 -149762 469.28 2850.2 3543.55 -13416.1 -7.41513 
608 1 6.55039 8.46599 7.41833 6.00396 -182399 -127002 -2217.67 -3939.19 19971.2 -9415.96 -7.41562 
609 1 7.2343 7.22385 7.41665 6.01202 -196435 -113425 3841.83 -8209.17 14497.2 -22301.8 -7.41594 
610 1 6.50291 6.00924 7.41175 6.0099 -174526 -134982 -2709.92 8357.29 13304 -11416.1 -7.41533 
611 1 7.18641 4.76698 7.41101 6.01789 -183115 -127095 3339.96 1919.25 11431.8 -21003.9 -7.4157 
612 1 6.45387 3.55302 7.40695 6.01541 -166594 -143100 -2067.94 16875.4 6445.41 -13189.5 -7.41518 
613 1 7.13726 2.31079 7.40738 6.01936 -168926 -141231 1884.69 8074.82 7119.36 -19318 -7.41547 
614 1 6.40385 1.09733 7.40443 6.01817 -158659 -151327 -704.146 21066.1 -238.476 -14734.8 -7.41517 
755 1 9.38176 8.41234 7.42582 6.00484 -211452 -98176.6 7771.13 -5244.67 16070.4 -27954.9 -7.41655 
756 1 8.65163 7.19693 7.42045 6.00281 -186657 -121987 -5989.06 14946.4 14120 -12959.5 -7.41544 
757 1 9.33529 5.9547 7.41982 6.01177 -196197 -113874 6748.77 6809.32 13967.4 -26585.4 -7.41627 
758 1 8.60379 4.74004 7.41508 6.0101 -176152 -132986 -4739.17 25698.7 7432.37 -15383.5 -7.41531 
759 1 9.28731 3.49786 7.41547 6.01655 -179857 -130325 4508.35 15131.9 10585 -24779.2 -7.41596 
760 1 8.55468 2.28384 7.41168 6.01468 -165262 -144176 -2508.42 32168 795.598 -17552.7 -7.41532 
761 1 9.23839 1.04185 7.41322 6.01145 -162770 -147299 1517.98 19039 5999.18 -22530.9 -7.41568 
902 1 10.799 8.38673 7.42994 5.99588 -199835 -107535 -10747.6 22349.6 14336.6 -13601 -7.41549 
903 1 11.4829 7.14457 7.42939 6.00521 -210113 -99667.8 11571.2 13013.5 16237.2 -31434.6 -7.41697 
904 1 10.7526 5.92911 7.42425 6.00375 -187255 -120826 -8844.29 35333.8 7870.44 -16551.3 -7.41539 
905 1 11.4363 4.687 7.42456 6.01193 -192344 -117863 8513.7 23450.1 13838.3 -29589.4 -7.41659 
906 1 10.7047 3.4723 7.42021 6.01047 -174224 -134566 -5678.68 44102.8 1344.3 -19240.1 -7.41544 
907 1 11.3885 2.23038 7.42156 6.00767 -173275 -136669 4409.58 29689.5 10146.9 -27276.5 -7.4162 
908 1 10.6558 1.0163 7.41821 6.0123 -160819 -148452 -1742.06 48219.2 -4869.68 -21668.9 -7.41562 
1049 1 13.6292 8.33681 7.43916 5.99859 -224176 -85255.9 17756.8 20025.2 18170.6 -35402.2 -7.41777 
1050 1 12.9002 7.12048 7.43383 5.99759 -199181 -107507 -14399.1 45177.4 7862.8 -16853.2 -7.41539 
1051 1 13.5842 5.87848 7.43401 6.00588 -205482 -104561 13930.9 32623.3 16783.9 -33594.1 -7.41734 
1052 1 12.8536 4.663 7.42935 6.00649 -184580 -123158 -10322.7 56354.7 1491.61 -19941.9 -7.41549 
1053 1 13.5377 3.42119 7.43047 6.0045 -185342 -124648 8754.1 41198.3 14047.9 -31299.5 -7.41686 
1054 1 12.8059 2.20643 7.4267 6.00945 -169291 -139065 -5166.97 62905.9 -4691.85 -22769.5 -7.41572 
1055 1 13.4904 0.964936 7.42886 5.99856 -164194 -145271 2759.66 45039.8 10041.4 -28542.9 -7.41638 
1196 1 15.0464 8.31432 7.44329 5.99182 -211297 -93627.3 -21257.8 54901.4 7524.75 -16452.7 -7.41531 
1197 1 15.7307 7.07247 7.4433 5.99985 -218857 -91199.8 20636.1 42172.8 19322.9 -36673.3 -7.41817 
1198 1 15.0014 5.85615 7.43851 6.00097 -195643 -110785 -16378.5 68356.4 1348.86 -19826.5 -7.41546 
1199 1 15.6858 4.61447 7.43936 6.00002 -198132 -112072 14510.8 53055.7 17580.6 -34472.9 -7.41761 
1200 1 14.9551 3.39896 7.43539 6.00735 -179245 -128283 -10099.1 77390 -4765.65 -22940.9 -7.41574 
1201 1 15.6397 2.15758 7.43723 5.99474 -176017 -133533 7247.8 59414.6 14464.6 -31807.1 -7.41702 
1202 1 14.9078 0.942767 7.43417 6.00248 -162259 -145992 -2992.63 81421.8 -10442.2 -25813.7 -7.41614 
1343 1 17.876 8.26906 7.45204 5.99411 -231327 -78235.3 28369.7 51630.3 21368.3 -38744.7 -7.41905 
1344 1 17.148 7.05185 7.44724 5.99597 -206895 -98006.9 -23632.7 79737.3 1023.3 -19056.8 -7.41533 
1345 1 17.8327 5.81036 7.44778 5.99549 -210815 -99437.4 21487.3 64844.2 20629.3 -36703.8 -7.41843 
1346 1 17.1031 4.59404 7.44376 6.005 -189830 -116618 -16405.7 91251.3 -4979.27 -22355.9 -7.41567 
1347 1 17.788 3.35281 7.44524 5.99165 -188550 -121303 13151.4 73751.2 18453.8 -34197.8 -7.41776 
1348 1 17.0571 2.13726 7.44211 5.99925 -171894 -135376 -8022.99 97845.7 -10684.2 -25411.6 -7.41613 
1349 1 17.7425 0.89643 7.44456 5.98539 -165231 -143691 3951.01 77500.7 14943.8 -31269.9 -7.41708 
1490 1 19.2932 8.25014 7.45523 5.9917 -217373 -85630.1 -31758 89909.9 603.098 -17785.9 -7.41514 
1491 1 19.9783 7.00887 7.45543 5.99153 -222497 -87384.9 29376.1 76002.3 23099.7 -37946.9 -7.4193 
1492 1 19.2499 5.79171 7.45144 6.00119 -200291 -104719 -23819.2 103910 -5239.92 -21177.8 -7.41551 
1493 1 19.9352 4.55068 7.45255 5.98742 -200780 -109176 20218.9 87397.8 21886.7 -35655.3 -7.41856 
1494 1 19.2053 3.33435 7.44945 5.99672 -182180 -124166 -14401.6 113141 -10928 -24327.3 -7.41602 
1495 1 19.891 2.09367 7.45153 5.98197 -177536 -131564 9881.83 93862.8 19241.3 -32951 -7.41777 
1496 1 19.1599 0.878064 7.44932 5.98924 -163404 -143827 -4133.78 116987 -16085.3 -27260.2 -7.41665 
1637 1 22.1228 8.20995 7.46219 5.98823 -232742 -76461.9 37806.5 86023.3 24935 -38219.7 -7.42018 
1638 1 21.3955 6.99196 7.45825 5.99652 -209846 -93326.5 -31984 114929 -5481.81 -19559.3 -7.41528 
1639 1 22.0813 5.75117 7.45897 5.98327 -212005 -97741.3 28109.1 99903.2 24674.5 -36174.4 -7.41938 
1640 1 21.3525 4.53404 7.45593 5.99488 -192138 -112971 -21819.5 126804 -11098.4 -22726.4 -7.41583 
1641 1 22.0385 3.29356 7.45764 5.97943 -189579 -119681 16934.6 109129 22929.3 -33734 -7.41852 
1642 1 21.3084 2.0772 7.45553 5.98621 -173380 -132708 -10487 133402 -16338.3 -25672 -7.4165 
1643 1 21.9949 0.837124 7.45815 5.97315 -165968 -142108 4895.29 112826 19833.3 -30942.6 -7.41766 
1784 1 23.5399 8.19467 7.46416 5.99261 -218106 -83000.7 -40513.8 123975 -5667.16 -17644.7 -7.41499 
1785 1 24.2262 6.95416 7.46451 5.97994 -221663 -87521.4 36447.1 110805 26774 -35812.7 -7.42022 
1786 1 23.4985 5.73626 7.4615 5.99203 -201164 -102333 -29908.5 138404 -11154.8 -20760.8 -7.41556 
1787 1 24.1849 4.496 7.46282 5.97585 -200617 -108692 24748.3 122642 25933.1 -33654.5 -7.4193 
1788 1 23.4558 3.2789 7.46079 5.98401 -183162 -122007 -17837.9 147761 -16418.5 -23660.3 -7.41626 
1789 1 24.1426 2.03899 7.46308 5.97055 -177945 -130427 11894.7 129229 23659.1 -31167.2 -7.41836 
1790 1 23.4123 0.822601 7.46194 5.97631 -164322 -141847 -4940 151466 -21091.4 -26365.2 -7.41708 
1931 1 26.37 8.15949 7.46927 5.97742 -229289 -78961.5 44882.3 119677 28191.3 -34683 -7.42103 
1932 1 25.6434 6.94085 7.46622 5.98922 -208712 -92875.3 -38295.7 147575 -11083.6 -18570.5 -7.41524 
1933 1 26.3303 5.70086 7.46718 5.9725 -209998 -98942.5 32957.9 134084 28227.2 -32801.3 -7.42008 
1934 1 25.6021 4.48303 7.46515 5.98257 -191890 -111951 -25814.3 159669 -16307 -21373.4 -7.41596 
1935 1 26.2893 3.24334 7.46708 5.96882 -188893 -119518 19617.2 143558 26793.8 -30623.2 -7.41908 
1936 1 25.5599 2.02624 7.46604 5.97389 -173873 -131106 -12216.3 166291 -21101.6 -23982 -7.41679 
1937 1 26.2476 0.786933 7.46879 5.96292 -166540 -140614 5455.36 147235 24047.1 -28182.7 -7.41808 
2078 1 27.7872 8.14763 7.47026 5.98711 -214365 -84962.8 -46654.3 154211 -10889.8 -16279.7 -7.4149 
2080 1 27.7475 5.68943 7.46876 5.9813 -199060 -103048 -34064 168923 -16011.9 -18940 -7.41561 
2081 1 28.4351 4.44998 7.47035 5.96606 -198244 -110093 27712.7 155329 29226.5 -29418 -7.41981 
2082 1 27.7066 3.23221 7.46928 5.97231 -182534 -121441 -20097.5 178334 -20860.9 -21420.4 -7.41645 
2083 1 28.3946 1.99307 7.47172 5.96104 -177489 -129785 13108.4 162039 27243 -27303.4 -7.41875 
2084 1 27.665 0.775959 7.47158 5.96482 -165004 -139930 -5357.19 181986 -25088.6 -23731.7 -7.4174 
2079 1 28.4747 6.90794 7.4709 5.97005 -217232 -90801.7 41239.9 143196 29829.3 -31302.3 -7.42085 
2225 1 30.6181 8.11702 7.4742 5.96846 -222191 -84684.8 49339.7 149781 30790.9 -29303.4 -7.42158 
2226 1 29.8918 6.89788 7.47187 5.97918 -204254 -95834.1 -42291.6 175364 -15554.1 -16469.7 -7.41525 
2227 1 30.58 5.6587 7.47314 5.96368 -205465 -102309 35885.9 164508 30983.6 -27682.4 -7.42053 
2228 1 29.8523 4.4403 7.47189 5.97148 -189591 -113008 -28251.5 187551 -20391.3 -18792.2 -7.41607 
2229 1 30.5407 3.20137 7.47402 5.95926 -186923 -120419 21128.2 174104 29770.4 -25870.2 -7.41943 
2230 1 29.8119 1.98363 7.47381 5.9632 -173590 -130296 -13182.1 194165 -24770.6 -20955.9 -7.41702 
2231 1 30.5007 0.745046 7.47658 5.95436 -166897 -139009 5620.75 177848 27314 -23888.1 -7.41834 
2372 1 32.0353 8.10814 7.4747 5.97783 -207236 -90285.5 -50276.9 179099 -14960.6 -14050.6 -7.41488 
2373 1 32.724 6.86926 7.47568 5.96219 -210218 -96345.4 43913.7 170979 32117.4 -25551.2 -7.42123 
2374 1 31.9971 5.65028 7.47415 5.97124 -194603 -106102 -36410.6 193855 -19725.5 -16187.6 -7.41568 
2375 1 32.6859 4.4116 7.47596 5.95766 -194176 -112801 29247.6 183261 31659.3 -24007 -7.42011 
2376 1 31.9579 3.19328 7.47552 5.96235 -180683 -122126 -21289.8 203306 -24187.8 -18188.5 -7.4166 
2377 1 32.647 1.95486 7.47801 5.95258 -176423 -129654 13604.3 190044 29899.8 -22327.8 -7.41898 
2378 1 31.918 0.737118 7.47853 5.95542 -165511 -138199 -5460.26 206923 -28023.3 -20051.6 -7.41763 
2519 1 34.8672 8.08141 7.4782 5.96153 -212635 -92403.9 51641.9 174757 32692.9 -23146.7 -7.4219 
2520 1 34.1411 6.86192 7.47631 5.9707 -197280 -100962 -44379.2 197266 -18898.8 -13677 -7.41528 
2521 1 34.8304 5.6235 7.47781 5.95673 -199101 -106966 37268.6 189567 32957.4 -21832 -7.42078 
2522 1 34.1031 4.40466 7.47702 5.96213 -185623 -115477 -29436.4 209461 -23378.7 -15498.3 -7.41617 
2523 1 34.7925 3.16644 7.47919 5.95135 -183810 -121993 21714.1 199246 31899 -20418.8 -7.41962 
2524 1 34.0643 1.94817 7.47945 5.95457 -172608 -130020 -13557.6 216074 -27392.9 -17200.8 -7.41717 
2525 1 34.754 0.710211 7.48206 5.94733 -167045 -137390 5486.86 203074 29673.4 -18916.4 -7.41848 
2666 1 36.2844 8.07496 7.47855 5.97017 -197802 -97739.8 -52026.5 197997 -17945.2 -11311.2 -7.4149 
2667 1 36.9742 6.83683 7.4798 5.95633 -201722 -103151 45053 193129 33719.9 -19446.8 -7.42142 
2668 1 36.2476 5.61754 7.47855 5.96239 -188419 -110650 -37445.6 212734 -22384.5 -12936.8 -7.41575 
2669 1 36.9374 4.37953 7.48042 5.95036 -189191 -116328 29771.6 205491 33350.1 -18260.6 -7.42026 
2670 1 36.2098 3.1608 7.48025 5.95434 -177713 -123614 -21727.3 222178 -26509.7 -14470.2 -7.41671 
2671 1 36.8997 1.92298 7.48258 5.94625 -174872 -129801 13607.9 212328 31759.5 -17016.1 -7.41909 
2672 1 36.1713 0.704735 7.48338 5.94822 -165770 -136668 -5359.68 225849 -30022.8 -15899.1 -7.41778 
2813 1 39.1174 8.05132 7.48203 5.95645 -201907 -101432 52516.3 194062 34004.2 -16929.8 -7.42205 
2814 1 38.3914 6.83164 7.48031 5.96308 -189007 -107736 -45198.6 213265 -21241.9 -10540.6 -7.41534 
2815 1 39.0817 5.59388 7.48188 5.94998 -192091 -112688 37654.6 208910 34298.4 -15935.5 -7.42089 
2816 1 38.3546 4.37475 7.48121 5.95464 -180883 -119127 -29808.5 225433 -25415.5 -11893.8 -7.41625 
2817 1 39.0449 3.13711 7.48322 5.94542 -180508 -124237 21720.4 218680 33349.3 -14911 -7.41971 
2818 1 38.317 1.91845 7.48356 5.94799 -171265 -130391 -13562.3 232101 -29132.2 -13165.8 -7.41728 
2819 1 39.0075 0.680993 7.48581 5.94242 -167383 -136126 5180.88 222619 31299.1 -13858.5 -7.41854 
2960 1 40.5346 8.04674 7.48239 5.96392 -187203 -106657 -52621.9 211219 -19983.3 -8332.15 -7.41494 
2961 1 41.2254 6.80924 7.48372 5.95001 -192160 -110905 45287.2 209700 34788 -13504 -7.42151 
2962 1 40.4989 5.58978 7.48249 5.95535 -181526 -116304 -37692.6 225959 -24149.5 -9495.06 -7.41581 
2963 1 41.1895 4.35233 7.4842 5.94496 -183500 -120593 29717.8 222113 34475.4 -12665.9 -7.42033 
2964 1 40.4622 3.13333 7.48399 5.94828 -174522 -125933 -21720.4 235445 -28004.9 -10603.2 -7.41679 
2965 1 41.1529 1.896 7.48593 5.94189 -173105 -130544 13344.1 229052 33008.4 -11823.1 -7.41914 
2966 1 40.4248 0.677371 7.48667 5.9431 -166185 -135593 -5147.15 239187 -31274.3 -11638.3 -7.41787 
3107 1 43.3688 8.02536 7.48595 5.95046 -189708 -111134 52621.5 207893 34859.3 -11003.3 -7.42211 
3108 1 42.6427 6.80564 7.4842 5.95619 -179494 -115353 -45311.6 223787 -22745.3 -7287.11 -7.41539 
3109 1 43.3338 5.56842 7.48563 5.94492 -183753 -118817 37528.5 222817 35169.2 -10325.7 -7.42093 
3110 1 42.6068 4.34913 7.48482 5.94897 -175187 -123271 -29736.4 236014 -26679.3 -8222.12 -7.41631 
3111 1 43.2978 3.11195 7.48645 5.94134 -176178 -126832 21445.3 232654 34298.6 -9661.13 -7.41974 
3112 1 42.5701 1.89303 7.4866 5.94334 -169437 -131102 -13365.1 242744 -30175.3 -9107.64 -7.41735 
3113 1 43.2612 0.655954 7.4883 5.93948 -166994 -135074 4808.95 236730 32374.2 -9009.21 -7.41857 
3254 1 44.7861 8.02209 7.48633 5.95693 -175085 -116359 -52622.5 219178 -21231.7 -5275.04 -7.41499 
3255 1 45.4776 6.78511 7.48754 5.94527 -181620 -119097 45103.9 220966 35458.2 -7916.01 -7.42153 
3256 1 44.751 5.56562 7.48614 5.94979 -173273 -122527 -37546.1 233944 -25190.4 -6028.53 -7.41586 
3257 1 45.4423 4.3286 7.48749 5.94116 -176964 -125170 29417.9 233483 35188 -7405.45 -7.42034 
3258 1 44.715 3.10946 7.487 5.94397 -170210 -128628 -21492.6 243531 -28850.9 -6756.08 -7.41685 
3259 1 45.4063 1.87248 7.4884 5.93906 -170533 -131496 12983.2 240547 33809 -6922.75 -7.41915 
3260 1 44.6785 0.653612 7.48881 5.9398 -165769 -134744 -4873.01 247410 -31955.9 -7436.28 -7.41793 
3402 1 46.8949 6.78253 7.48797 5.95053 -169115 -123859 -45106.7 229309 -23566.8 -4023.59 -7.41543 
3404 1 46.8596 4.32642 7.48796 5.94474 -168795 -128264 -29469.3 241638 -27334 -4583.36 -7.41636 
3406 1 46.8236 1.87053 7.48882 5.94037 -166951 -132426 -13076 248541 -30686.5 -5117.31 -7.4174 
3401 1 47.6213 8.00216 7.48988 5.94604 -177110 -121517 52408.5 216628 35367.3 -5443.69 -7.42212 
3403 1 47.5867 5.54572 7.48906 5.9414 -175143 -125679 37213.6 231656 35693.7 -5072.32 -7.42094 
3405 1 47.5511 3.08957 7.48906 5.9388 -171605 -130000 21083 241671 34880.5 -4736.77 -7.41974 
3407 1 47.515 0.633701 7.48982 5.93814 -166541 -134581 4434.69 245903 33039.3 -4437.94 -7.41856 
3548 1 49.0386 7.99965 7.49021 5.95161 -162576 -127060 -52386.1 222238 -21830.5 -2205.84 -7.41502 
3549 1 49.7308 6.76305 7.49113 5.94206 -170762 -128130 44795.8 227302 35828.3 -2662.81 -7.42153 
3550 1 49.004 5.54368 7.48946 5.94544 -164739 -129776 -37252.5 237152 -25652.7 -2587.84 -7.4159 
3551 1 49.6958 4.30697 7.4903 5.93888 -170088 -130655 29063.8 239991 35593.7 -2460.23 -7.42033 
3552 1 48.9684 3.08783 7.48941 5.94105 -165720 -132265 -21181.6 246893 -29193.4 -2964.7 -7.41688 
3553 1 49.66 1.85108 7.49013 5.93775 -167810 -133242 12616.4 247283 34272.7 -2302.48 -7.41914 
3554 1 48.9323 0.632098 7.49007 5.93815 -165354 -134682 -4566.56 251009 -32207.2 -3314.17 -7.41796 
3695 1 51.8749 7.98037 7.49355 5.94314 -164008 -132611 52124 220462 35601.8 -164.396 -7.42211 
3696 1 51.1482 6.76098 7.49144 5.94649 -158250 -133289 -44807.7 230086 -23828 -767.913 -7.41546 
3697 1 51.8404 5.52445 7.49207 5.93939 -165962 -133299 36884.1 235729 35951.6 -89.9748 -7.42093 
3698 1 51.1131 4.30528 7.4906 5.94167 -161891 -134083 -29148.1 242607 -27501.8 -974.67 -7.41639 
3699 1 51.8049 3.06863 7.49105 5.93767 -166490 -134029 20733.7 245922 35178.3 -60.3646 -7.41973 
3700 1 51.0773 1.84961 7.49033 5.93873 -164239 -134671 -12753.4 249717 -30783 -1173.65 -7.41742 
3701 1 51.769 0.612902 7.49057 5.93746 -165582 -134869 4085.26 250450 33381.1 -81.4973 -7.41855 
3842 1 53.2924 7.97809 7.49373 5.9479 -149454 -138709 -52096 220572 -21873.9 876.222 -7.41505 
3843 1 53.985 6.74176 7.49424 5.94034 -159428 -137959 44499 228923 35953.7 2388.15 -7.42152 
3844 1 53.2577 5.52263 7.49229 5.94265 -155540 -137892 -36937.7 235695 -25631.2 853.349 -7.41592 
3845 1 53.9498 4.28611 7.49252 5.938 -162689 -136888 28743.6 241864 35749 2294.4 -7.42032 
3846 1 53.2223 3.06711 7.4912 5.93922 -160590 -136779 -20854.9 245725 -29123.7 820.182 -7.41691 
3847 1 53.914 1.83046 7.49117 5.93706 -164601 -135871 12284.3 249423 34456.8 2147.91 -7.41912 
3848 1 53.1863 0.611514 7.49059 5.93776 -164403 -135485 -4239.48 250076 -32113.1 798.212 -7.41798 
3989 1 56.1297 7.95868 7.4966 5.94177 -150582 -144614 51848.3 219649 35597.7 4997.22 -7.4221 
3990 1 55.4024 6.73965 7.49432 5.94402 -146884 -143716 -44505.5 226218 -23593.7 2515.8 -7.41548 
3991 1 56.0949 5.50329 7.49442 5.9388 -156387 -141852 36594.9 235179 35975.4 4776.12 -7.42091 
3992 1 55.3672 4.28438 7.49259 5.9401 -154523 -140983 -28829.4 239027 -27245 2666.21 -7.41641 
3993 1 56.0592 3.04782 7.49234 5.93706 -160991 -138981 20428 245693 35222.6 4508.79 -7.41971 
3994 1 55.3313 1.82895 7.49114 5.93811 -161041 -137818 -12421.1 246405 -30522.9 2810.2 -7.41744 
3995 1 56.023 0.592246 7.49059 5.93737 -164314 -136091 3765.64 250484 33428.4 4182.71 -7.41853 
4136 1 57.5472 7.95611 7.49649 5.94582 -135955 -151404 -51788.1 214237 -21394.1 4002.83 -7.41506 
4137 1 58.24 6.71993 7.49652 5.93986 -147787 -148694 44219.8 225974 35845.6 7406.11 -7.42149 
4138 1 57.5123 5.50118 7.49435 5.94139 -145921 -147053 -36625.1 229677 -25156.5 4356.65 -7.41593 
4139 1 58.2045 4.26472 7.49393 5.93752 -154971 -144073 28460.4 239235 35660.1 7014.5 -7.42029 
4140 1 57.4765 3.04601 7.49222 5.93887 -155055 -142233 -20524.9 239997 -28669.9 4687.6 -7.41692 
4141 1 58.1683 1.80934 7.49143 5.93724 -160952 -139378 11985.9 247078 34363 6567.12 -7.4191 
4142 1 57.4403 0.59056 7.49036 5.93813 -163118 -137216 -3891.08 244636 -31697.2 5014.45 -7.418 
4283 1 60.3855 7.93581 7.49855 5.94144 -137257 -157558 51519.1 214332 35347.3 10210.3 -7.42206 
4284 1 59.6576 6.71727 7.49623 5.94315 -135167 -155104 -44169.7 217746 -22860.5 5875.17 -7.41548 
4285 1 60.3501 5.48095 7.49574 5.93848 -146806 -151173 36302.2 230176 35749.5 9682.94 -7.42087 
4286 1 59.6219 4.26244 7.49366 5.94006 -146751 -148709 -28492.5 230885 -26559.5 6417.23 -7.41641 
4287 1 60.3138 3.02584 7.49269 5.93759 -155379 -144727 20139.7 240971 34989.6 9111.2 -7.41967 
4288 1 59.5856 1.80727 7.4911 5.93868 -157382 -141825 -12067.8 238528 -29900 6938.4 -7.41745 
4289 1 60.2771 0.570437 7.48979 5.93882 -162701 -138113 3468.43 246033 33150.4 8474.94 -7.41849 
4430 1 61.8031 7.93243 7.49794 5.9454 -122535 -165028 -51357.3 203321 -20351.6 7195.72 -7.41506 
4431 1 62.496 6.69628 7.49746 5.94002 -136578 -160187 43842.1 218563 35470.2 12535.3 -7.42144 
4432 1 61.7676 5.47803 7.49522 5.94175 -136306 -157022 -36241.2 219063 -24190.5 7975.26 -7.41593 
4433 1 62.4597 4.24152 7.49415 5.93845 -147528 -151967 28138.6 232122 35281.2 11828.9 -7.42024 
4434 1 61.7312 3.02321 7.49219 5.93979 -149442 -148501 -20149.9 229669 -27794 8718.75 -7.41692 
4435 1 62.4227 1.78639 7.49067 5.93904 -157474 -143636 11687.3 240228 33934.8 11065.5 -7.41905 
4436 1 61.6944 0.567926 7.48925 5.93931 -161562 -139730 -3513.8 234572 -30921.1 9440.68 -7.418 
4577 1 64.6423 7.91048 7.49876 5.94219 -124249 -170956 50922 204479 34802.8 15593.1 -7.42197 
4578 1 63.9136 6.69254 7.49659 5.94398 -123823 -167153 -43650.6 204599 -21554.8 9326.5 -7.41548 
4579 1 64.606 5.45615 7.49551 5.93993 -137407 -161053 35856.8 220593 35209.9 14734.6 -7.4208 
4580 1 63.8772 4.23816 7.49338 5.94149 -139198 -156999 -28043.5 217994 -25373.6 10322.8 -7.41641 
4581 1 64.5688 3.00138 7.49173 5.93981 -149746 -150958 19785.7 231623 34401.3 13834.3 -7.4196 
4582 1 63.8401 1.78323 7.48994 5.94029 -153861 -146448 -11655.9 225921 -28844.5 11281.1 -7.41744 
4583 1 64.5312 0.546156 7.48794 5.94192 -160986 -140829 3174.84 236910 32457.1 12863.6 -7.41843 
4724 1 66.06 7.90575 7.49742 5.94683 -109317 -178942 -50548.2 187571 -18637 10423.1 -7.41505 
4726 1 66.0235 5.45187 7.49435 5.94388 -126700 -167223 -35612.6 203524 -22627.2 11705.2 -7.41592 
4728 1 65.9862 2.99739 7.49069 5.94193 -143678 -155015 -19638.8 214371 -26394 12933.3 -7.4169 
4730 1 65.9485 0.542276 7.48697 5.94216 -159740 -142536 -3096.98 219490 -29686.9 14116 -7.41797 
4725 1 66.7527 6.66951 7.49641 5.94212 -125420 -171773 43116.1 206426 34749.6 17841 -7.42132 
4727 1 66.7154 4.21517 7.49265 5.94124 -139885 -160017 27621 220172 34516.3 16787.7 -7.42014 
4729 1 66.6773 1.76031 7.48852 5.94263 -153470 -148121 11321 228505 33060.8 15675.8 -7.41896 
4870 1 68.2068 9.11743 7.49737 5.95036 -93673.6 -192572 -56694.3 168144 -15415.1 11204.4 -7.41467 
4871 1 68.9 7.88137 7.49649 5.94511 -112155 -184227 49670 189764 33881.5 21150.8 -7.42179 
4872 1 68.1704 6.66413 7.49474 5.94677 -112540 -179239 -42664.1 186364 -19537.3 12806.5 -7.41547 
4873 1 68.8625 5.42754 7.49308 5.94345 -128461 -170795 34992.4 205976 34248.4 19926.2 -7.42065 
4874 1 68.1329 4.21017 7.49118 5.94437 -131474 -165422 -27309.6 199933 -23553.4 14340 -7.41638 
4875 1 68.8241 2.9731 7.48892 5.94404 -144152 -157237 19218.8 217174 33329.3 18658.4 -7.41947 
4876 1 68.0948 1.7555 7.48721 5.94377 -149819 -151198 -11123.6 208049 -27228.1 15810.7 -7.4174 
4877 1 68.7853 0.518039 7.48465 5.94695 -158834 -143653 2857.82 222605 31205.8 17314.6 -7.41831 
5017 1 71.0477 9.09153 7.49544 5.94897 -98073.8 -198127 55202.6 170777 32598.7 24644.8 -7.42217 
5018 1 70.3178 7.87471 7.49419 5.95041 -97208 -192838 -48932 166671 -16082.4 13556.4 -7.41506 
5019 1 71.0102 6.63825 7.49265 5.94653 -115774 -183084 41631.4 189109 33573.7 23238 -7.4211 
5020 1 70.2801 5.42133 7.49105 5.94766 -117763 -177491 -34453.1 182688 -20303.5 15430 -7.4159 
5021 1 70.9715 4.18432 7.48879 5.94626 -133217 -167994 26646.6 202926 33227 21798 -7.41996 
5022 1 70.2416 2.96718 7.48715 5.94621 -138138 -161725 -18848.4 193666 -24311.9 17224.3 -7.41686 
5023 1 70.9321 1.72969 7.48445 5.94833 -149986 -152790 10778.6 211380 31584 20294.9 -7.4188 
5024 1 70.2026 0.512212 7.48312 5.94706 -157704 -145694 -2642.71 198941 -27842.4 18938.1 -7.41791 
5164 1 72.4656 9.0834 7.49243 5.95451 -81213.7 -207745 -54072.8 144808 -12239.7 13875.4 -7.41471 
5165 1 73.1584 7.84711 7.49104 5.95054 -102133 -196628 47196.9 169803 32481.9 26684.2 -7.42146 
5166 1 72.4279 6.63065 7.48996 5.9511 -102891 -191020 -40779 162856 -16624 16121.8 -7.41546 
5167 1 73.1195 5.39372 7.48777 5.94939 -120980 -180052 33313.9 185967 32725.5 25063.6 -7.42038 
5168 1 72.3891 4.17707 7.48642 5.94955 -124816 -173734 -26033.9 176446 -20918.1 18273.3 -7.41634 
5169 1 73.0796 2.93959 7.48367 5.95056 -139459 -163415 18224.4 197166 31608.3 23388.4 -7.41925 
5170 1 72.3495 1.72263 7.48239 5.94947 -146415 -156146 -10390.4 184651 -24873.6 20326.1 -7.41733 
5171 1 73.0393 0.484666 7.47944 5.95413 -157087 -146811 2483.04 202665 29217.5 21630.7 -7.41813 
5311 1 75.3072 9.05393 7.48809 5.9556 -88403.6 -210894 51286.6 148416 30988.2 30178.8 -7.42169 
5312 1 74.5763 7.83793 7.48763 5.95482 -87211.4 -205570 -45919.6 140789 -12498.3 16329 -7.41509 
5313 1 75.2681 6.60112 7.48557 5.95355 -108071 -193101 38859.7 166439 31813.2 28392.7 -7.4207 
5314 1 74.5372 5.38498 7.4847 5.95256 -110294 -187033 -32366.4 156566 -17029.8 18865.6 -7.41587 
5315 1 75.2278 4.14753 7.48196 5.95376 -127767 -175162 24882.6 180117 31249.1 26542.2 -7.41963 
5316 1 74.4971 2.93112 7.48097 5.95236 -133457 -168013 -17585.7 167490 -21359 21286.7 -7.41677 
5317 1 75.1868 1.6931 7.4779 5.95637 -146987 -157192 9929.93 188497 29320.5 24617.1 -7.41854 
5318 1 74.4567 0.476289 7.47714 5.95417 -155977 -148807 -2159.5 172770 -25199.8 23579.2 -7.41777 
5458 1 76.7252 9.04301 7.48398 5.95951 -71767.3 -220794 -49449.2 116953 -7922.17 15968 -7.41479 
5459 1 77.4173 7.80635 7.48204 5.95882 -95160.8 -206633 42870.8 144740 30505.3 31671.1 -7.4209 
5460 1 76.6859 6.5907 7.48176 5.95648 -95314.5 -201220 -37462.1 134472 -12640.6 18908.8 -7.41547 
5461 1 77.3767 5.35332 7.47908 5.95804 -115638 -187709 30377.3 160488 30494.4 29667.2 -7.41991 
5462 1 76.6455 4.13745 7.47853 5.95544 -119488 -181052 -23896 147737 -17288.6 21719 -7.41627 
5463 1 77.3352 2.89942 7.4754 5.95962 -135951 -168692 16565.8 171438 29063.6 27579 -7.41888 
5464 1 76.6043 1.6832 7.4749 5.9566 -143533 -160568 -9357.47 155769 -21597.5 24382.2 -7.41718 
5465 1 77.2931 0.444607 7.47174 5.96366 -155531 -149716 2035.56 176788 26307.5 25397.2 -7.41785 
5605 1 79.5671 9.00926 7.47727 5.96519 -82843.2 -220003 44932.1 121309 28854.2 34716.4 -7.42094 
5606 1 78.8352 7.79409 7.47754 5.96145 -80563.6 -215693 -40893.1 110658 -7764.7 18322.3 -7.41515 
5607 1 79.5263 6.55679 7.47494 5.96343 -103503 -200375 34299.5 138677 29361.4 32621.8 -7.42007 
5608 1 78.7945 5.34146 7.4749 5.95957 -105167 -194693 -28927.9 125821 -12671.2 21529.4 -7.41583 
5609 1 79.4843 4.10344 7.47176 5.96393 -124403 -180658 22009.6 151838 28438.2 30402.3 -7.41912 
5610 1 78.7528 2.88781 7.47165 5.9598 -130116 -173238 -15641.9 136316 -17387 24573.6 -7.41664 
5611 1 79.4415 1.64916 7.46835 5.96687 -144917 -160843 8663.72 159865 26109.8 28081.6 -7.41814 
5612 1 78.7105 0.433089 7.4685 5.96234 -154611 -151656 -1664.55 141399 -21599.8 27428.1 -7.41754 
5752 1 80.9851 8.99504 7.47225 5.96749 -66728.6 -229831 -42248 85817.7 -2447.55 17052.6 -7.41493 
5753 1 81.6764 7.75786 7.46967 5.96997 -92156.1 -212544 36260.9 115173 27907.9 35198.8 -7.42007 
5754 1 80.9442 6.54302 7.47009 5.96477 -91091.1 -208372 -32266.3 102340 -7545.3 20645.1 -7.41548 
5755 1 81.6341 5.30504 7.46694 5.96937 -113026 -192425 25866.1 130156 27467.3 32920.9 -7.41923 
5756 1 80.902 4.08998 7.46726 5.96408 -116343 -186321 -20620.8 114937 -12597.9 24064.9 -7.41615 
5757 1 81.5907 2.85129 7.46385 5.97114 -133968 -172291 14083.5 140540 25585.5 30505.1 -7.41833 
5758 1 80.859 1.63585 7.46432 5.96562 -141632 -163989 -7942.65 122533 -17311.1 27278.7 -7.41695 
5759 1 81.5467 0.396547 7.46108 5.97536 -154320 -152157 1532.48 145547 22364.1 27971.1 -7.41744 
5899 1 83.827 8.95647 7.46367 5.97763 -82623.1 -223468 35969.1 90646.8 26240.8 37130.5 -7.4199 
5900 1 83.0944 7.74207 7.46435 5.97107 -78217.6 -221464 -33541.4 78044.5 -1984.61 19031.9 -7.41523 
5901 1 83.7845 6.50415 7.46116 5.97594 -102815 -203480 27787.8 106927 26219.3 34913.1 -7.41919 
5902 1 83.0519 5.28961 7.4618 5.96944 -103026 -199263 -23904.9 92187.8 -7294.82 22800.6 -7.41576 
5903 1 83.7406 4.05091 7.4583 5.97648 -123461 -183341 17923.4 119293 24770.9 32486.6 -7.41839 
5904 1 83.0083 2.83607 7.45908 5.96996 -128445 -176567 -12901 101992 -12429.6 26353.7 -7.41642 
5905 1 83.6959 1.59669 7.45564 5.97943 -143918 -163107 6967.99 126783 21921.7 29911.5 -7.41758 
5906 1 82.9641 0.381407 7.45682 5.9728 -153593 -153777 -1172.37 106715 -17050.6 29649.2 -7.41717 
6046 1 85.2451 8.9386 7.45819 5.97845 -67568.6 -233158 -32511.4 53658.2 3895.99 16712.5 -7.41512 
6048 1 85.2024 6.48667 7.45561 5.9759 -91180.4 -211305 -25179.5 68839.9 -1582.31 20774.4 -7.41548 
6050 1 85.1583 4.03369 7.45293 5.97537 -115937 -188803 -16188.3 80470.1 -7048.79 24624.4 -7.41598 
6052 1 85.1134 1.57961 7.45065 5.97709 -140998 -166020 -6146.47 87471.7 -12183 28207.8 -7.41659 
6047 1 85.9354 7.70077 7.45485 5.98356 -94525.1 -212925 27548.1 82770.9 24808.4 36113.3 -7.41899 
6049 1 85.8912 5.24799 7.45197 5.98287 -114172 -193293 19887.6 96706.4 23745.1 33801.9 -7.41832 
6051 1 85.8459 2.79426 7.4493 5.98451 -134122 -173597 10848 106330 21267.3 31281.1 -7.41761 
6053 1 85.8 0.339543 7.4474 5.98854 -153718 -153950 1034.23 110863 17482.2 28597.3 -7.4169 
6193 1 88.0866 8.89499 7.44867 5.99217 -88885.1 -219877 25106.3 58406.8 23383.6 36243.8 -7.41864 
6194 1 87.3533 7.68122 7.44922 5.98341 -81671.6 -221641 -24281.7 45726.6 4399.73 18044.4 -7.41532 
6195 1 88.0423 6.44258 7.44537 5.99028 -106920 -201425 19821.1 73441.4 22630.9 34199.8 -7.41811 
6196 1 87.309 5.22873 7.44627 5.98184 -104967 -199920 -17554.5 58642.8 -1298.94 22119.8 -7.41565 
6197 1 87.9966 3.98929 7.44242 5.99055 -125639 -182722 12933.6 84828.7 20495.1 31863.4 -7.4175 
6198 1 87.2635 2.77519 7.44378 5.98239 -129141 -177626 -9490.63 67574 -6848.88 25934.7 -7.4161 
6199 1 87.95 1.53505 7.44026 5.99315 -144358 -163888 4989.03 91621.8 17007 29315.6 -7.41689 
6200 1 87.2175 0.320536 7.44227 5.98527 -153275 -155175 -702.194 71741.6 -11892.2 29427.7 -7.41666 
6340 1 89.5046 8.87343 7.44329 5.99184 -75357.7 -229509 -21258.1 23480.3 10485.6 14742.8 -7.41531 