ITEM: TIMESTEP
318
ITEM: NUMBER OF ATOMS
19496
ITEM: BOX BOUNDS pp pp pp
0.0000000000000000e+00 1.2124284700000000e+02
0.0000000000000000e+00 2.0999877200000000e+02
0.0000000000000000e+00 1.5000000000000000e+01
ITEM: ATOMS id type x y z c_csym c_2[1] c_2[2] c_2[3] c_2[4] c_2[5] c_2[6] c_3 
194 1 0.894167 8.57725 2.98259 6.00624 -200806 -149213 -8616.24 -52579.4 19141.4 -2441.5 -7.41324 
195 1 0.161845 7.36377 2.97558 6.0056 -160269 -176815 8903.33 -47685.7 42658.3 -5798.48 -7.41482 
196 1 0.845475 6.12163 2.96732 6.00019 -197135 -150169 -3067.2 -39725.6 30955.9 -4139.84 -7.41326 
197 1 0.11135 4.90915 2.9579 6.00928 -163310 -177095 2318.53 -29393.2 42237.2 -3955.49 -7.41368 
198 1 0.793083 3.66609 2.94935 6.00369 -187221 -155330 -2441.69 -18163.3 29606.9 -6498.14 -7.413 
199 1 0.0569905 2.45464 2.94123 6.01738 -165755 -174443 -3372.54 -8874.32 25986.9 -1285.44 -7.41287 
200 1 0.737245 1.21085 2.93666 6.01886 -175280 -164465 -4986.34 -2641.17 12514.8 -7952.7 -7.41267 
201 1 -4.88302e-06 1.41101e-07 2.93424 6.02799 -169657 -169633 -5776.39 -5.78124 -2.25655 1.19314 -7.41258 
366 1 2.31141 8.54573 2.98369 6.0006 -189808 -146462 9671.71 -44674.3 35948.1 -6498.5 -7.4152 
367 1 2.99463 7.30317 2.97853 6.00561 -225429 -121027 -1562.79 -42592 20505.9 -15969.6 -7.41373 
368 1 2.26267 6.08936 2.96962 5.99877 -191405 -149995 3508.93 -29611.1 42183 -12661.7 -7.41414 
369 1 2.94436 4.8461 2.96359 6.00203 -214322 -128853 1269.48 -21984.2 27092 -23561.7 -7.41359 
370 1 2.21027 3.63344 2.95296 6.00228 -185451 -156877 -1325.87 -6711.44 34055.5 -17018 -7.41324 
371 1 2.89063 2.38962 2.94936 6.00973 -193875 -146792 -612.288 -1456.48 20009.7 -28928.8 -7.41322 
372 1 2.15447 1.17809 2.94123 6.01042 -174870 -165990 -3977.22 9328.72 12097.3 -20112.4 -7.41279 
537 1 5.14209 8.4871 2.98805 6.00115 -238373 -102634 2279.02 -39238.6 7228.31 -19166.8 -7.41452 
538 1 4.4117 7.27227 2.98195 5.99393 -214964 -128511 697.348 -23227.7 31503 -10333.9 -7.41425 
539 1 5.09351 6.02896 2.97874 6.00077 -232444 -107293 6194.11 -19567.6 17771.7 -29342.2 -7.41455 
540 1 4.36143 4.815 2.96962 5.99482 -209003 -137475 -2307.62 1524.2 31242.3 -20171.2 -7.41352 
541 1 5.0421 3.57127 2.96742 6.00578 -213862 -125493 5617 5052.58 19828.8 -38628.8 -7.41422 
542 1 4.30776 2.35854 2.95787 5.99976 -191933 -153207 -2521.5 24455.9 17857.6 -28309 -7.41313 
543 1 4.98802 1.11481 2.95941 6.0036 -185693 -155833 1546.83 20497.8 10597.2 -42016 -7.41367 
708 1 6.55914 8.45752 2.99089 5.99902 -223163 -119954 -5648.42 -17529.4 16591.6 -2075.86 -7.41397 
709 1 7.24139 7.21438 2.98987 5.99734 -232947 -99722.5 12216.1 -17735.4 6844.29 -25386.5 -7.4156 
710 1 6.51053 5.99963 2.98392 5.99686 -222153 -126203 -7743.84 8199.87 19969.1 -12538 -7.41346 
711 1 7.19185 4.7562 2.98293 6.00121 -222026 -111791 12198.3 9233.99 14030.2 -34699.2 -7.41538 
712 1 6.45915 3.54237 2.97547 6.00039 -208704 -140681 -5844.32 36739.6 14963.1 -22926 -7.41326 
713 1 7.13995 2.2989 2.97635 6.00256 -200082 -138222 7679.21 32260.8 13432.2 -40802.6 -7.41475 
714 1 6.40518 1.08621 2.96957 6.00205 -183955 -162028 -1007.43 54093.4 714.098 -31293.5 -7.4135 
879 1 9.38906 8.4011 2.99673 6.00077 -218517 -106755 19322.5 -21087 329.979 -19860 -7.41646 
880 1 8.65845 7.18622 2.9931 6.00474 -217903 -127525 -15517 7752.71 7040.72 -2323.94 -7.41315 
881 1 9.34077 5.94329 2.99269 6.00222 -213979 -112644 19126.4 6076.72 8148.19 -24161.8 -7.41641 
882 1 8.60891 4.72894 2.98804 6.00708 -212393 -136959 -12972 38887.5 6554.42 -10343.7 -7.4131 
883 1 9.29062 3.48592 2.98828 6.00402 -202402 -129300 14473.8 33833.5 12390.1 -28894 -7.41583 
884 1 8.55708 2.27241 2.98355 6.01015 -195766 -152920 -6302.48 64385 -152.528 -18486.2 -7.41348 
885 1 9.23879 1.02962 2.98555 5.99651 -182341 -156668 5718.74 50830.9 10467.8 -29847 -7.41487 
9774 2 0.523068 8.60642 6.41707 6.00121 -147438 -186580 12197.5 52329.8 37062.7 5198.54 -7.41538 
9775 2 0.571766 6.15222 6.43256 6.00584 -151899 -187430 5617.68 40706.1 43365.2 2138.95 -7.41421 
9776 2 0.624158 3.69817 6.4506 6.00974 -157332 -183437 -612.549 19657.6 35054.4 -2867.41 -7.41322 
9777 2 0.680005 1.24389 6.46329 6.01893 -164885 -174905 -4982.37 3371.87 13143.7 -6863.55 -7.41267 
9778 2 -9.68663e-07 -4.93165e-06 6.46571 6.02803 -169688 -169695 -5772.39 12.2431 -2.35604 1.08225 -7.41258 
9942 2 1.94057 8.6381 6.41607 5.99681 -157408 -191079 -7742.5 45755.5 20844.6 -11025.8 -7.41346 
9943 2 2.67447 7.42559 6.42125 6.00075 -121573 -218150 6193.01 44392.9 34295.3 -722.75 -7.41455 
9944 2 1.9892 6.18461 6.43037 5.9948 -156663 -189723 -2307.54 31830.3 33091.6 -16973.8 -7.41352 
9945 2 2.72467 4.97294 6.43639 6.00204 -131144 -212074 1267.38 25930.8 33948.5 -11685.8 -7.41359 
9946 2 2.04151 3.73087 6.447 6.00225 -158308 -184234 -1324.64 9087.7 31765.3 -20985.3 -7.41325 
9947 2 2.77838 2.51987 6.45062 6.0036 -147588 -195065 -2440.37 4782.05 20429 -22396.4 -7.413 
9948 2 2.09729 1.27668 6.45873 6.01736 -164603 -175584 -3368.99 -8200.12 14104.3 -21864.2 -7.41287 
9949 2 2.83451 0.0657667 6.45658 6.01005 -169859 -171101 -3242.48 -5703.06 -1081.47 -28837.8 -7.41291 
10113 2 4.77901 8.69672 6.41195 6.00114 -102546 -238537 2278.82 39165 20211 3321.41 -7.41452 
10114 2 4.09212 7.45678 6.41804 5.99389 -129989 -213500 696.538 25865.1 24701.2 -22115.7 -7.41425 
10115 2 4.82742 6.245 6.42146 6.00562 -110178 -236306 -1564.69 23862.4 24080.4 -9776.89 -7.41373 
10116 2 4.1422 5.0042 6.43036 5.9988 -134723 -206801 3508.48 3155.82 32055.1 -30200.2 -7.41414 
10117 2 4.87875 3.79302 6.43266 6.00023 -127481 -219841 -3068.13 549.254 19060.9 -24743 -7.41326 
10118 2 4.19577 2.55101 6.44207 6.00923 -148148 -192202 2318.64 -20655.4 24540.4 -34601.8 -7.41368 
10119 2 4.93283 1.33994 6.44059 5.99774 -154387 -190511 -2093.41 -18013.6 5272.13 -36885 -7.41327 
10120 2 4.25175 0.0968155 6.44701 6.00382 -169250 -172928 -579.273 -32199.3 4355.34 -33679.2 -7.41323 
10284 2 6.19679 8.7267 6.4098 5.99847 -115707 -221126 6212.08 18064.8 11749 -20002.8 -7.41508 
10285 2 6.93167 7.51461 6.41125 6.01276 -103998 -242824 -8208.22 19687 11742.3 -1074.47 -7.41356 
10286 2 6.24512 6.27461 6.4163 6.00053 -118566 -217660 9672.78 -3513.89 23601.9 -27882.5 -7.4152 
10287 2 6.98104 5.063 6.4174 6.00623 -116622 -233362 -8616.19 -3854.95 11685 -15360.1 -7.41324 
10288 2 6.2963 3.82205 6.42441 6.00563 -131378 -205661 8902.82 -30940.1 26348.3 -34044 -7.41482 
10289 2 7.03288 2.61064 6.42364 5.99609 -139769 -209088 -5463.62 -27660.2 5258.73 -29668.8 -7.41338 
10290 2 6.35017 1.36856 6.43033 6.00283 -155105 -185641 4651.28 -51521.5 16361.4 -35497 -7.41412 
10291 2 7.08643 0.15679 6.42636 5.99418 -170037 -174110 653.565 -39585.7 -5203.26 -39283.5 -7.41397 
10455 2 9.03635 8.783 6.40664 6.01385 -111793 -230924 -16200.6 19093.3 3594.9 6568.35 -7.41322 
10456 2 8.34941 7.54317 6.40815 6.00328 -117808 -211573 16520.6 -5877.02 11581.8 -21297.3 -7.41614 
10457 2 9.08441 6.33093 6.4082 6.01321 -120047 -227317 -16523.6 -3642.87 4015.35 -2476.73 -7.41299 
10458 2 8.39867 5.0905 6.41172 6.00323 -125510 -204885 15759.7 -33858.4 20161.2 -24965.5 -7.41595 
10459 2 9.13442 3.87853 6.41136 6.00245 -135050 -213521 -12501.6 -29914.6 1662.85 -14059.3 -7.4132 
10460 2 8.45034 2.63724 6.41594 5.99843 -143884 -191568 10552.3 -60104.4 20120.4 -26737.1 -7.41522 
10461 2 9.18625 1.42519 6.41417 5.99532 -157738 -188060 -4417.95 -48967 -4233.14 -24468.1 -7.41388 
10462 2 8.50369 0.18302 6.41806 6.00269 -170059 -172729 2422.52 -72697.1 11312.6 -24565.1 -7.41427 
1050 1 10.8062 8.37325 2.99875 6.01363 -200125 -136971 -23618.1 1063.25 -939.15 1836.53 -7.41284 
1051 1 11.4898 7.13095 2.99823 6.00897 -196775 -125531 26145.5 -3154.64 7035.27 -17857.8 -7.41711 
1052 1 10.7579 5.91666 2.99493 6.01528 -200026 -143787 -21152.4 30868.2 -1428 -401.206 -7.4128 
1053 1 11.4408 4.67423 2.99439 6.00682 -192094 -133642 21372.7 25606.6 12146.9 -16960.9 -7.41666 
1054 1 10.7078 3.46044 2.99159 6.01465 -194320 -152172 -14035.4 60210.3 -4155.11 -4564.01 -7.41321 
1055 1 11.3903 2.21801 2.99206 6.00134 -183468 -148457 12222.9 48993.2 13327.3 -16549.9 -7.41572 
1056 1 10.656 1.00482 2.9901 6.00565 -180072 -163150 -3556.06 77999.3 -10242.2 -9414.56 -7.41407 
1221 1 13.639 8.31834 3.00336 6.01344 -183809 -139726 32966.1 -11817.5 11822.3 -22476.7 -7.41757 
1222 1 12.907 7.10425 2.9992 6.02095 -179751 -154661 -29086.3 20186.7 -3905.38 -198.627 -7.41261 
1223 1 13.5911 5.86245 2.99773 6.00938 -178329 -146451 27747.7 14799.1 15915.9 -14555.9 -7.41719 
1224 1 12.858 4.64879 2.99501 6.01787 -180198 -159673 -22195.6 48444.5 -6662.78 1549.23 -7.41291 
1225 1 13.5415 3.40683 2.99424 6.00233 -175761 -152061 18684.5 40286.5 17319 -9259.2 -7.41635 
1226 1 12.8075 2.19354 2.99322 6.00788 -177828 -162268 -11204.4 71219.5 -10746.9 863.344 -7.41368 
1227 1 13.4906 0.951508 2.99389 6.00095 -172516 -159732 6199.1 55890.5 14685.1 -5625.39 -7.4152 
1392 1 15.0564 8.29173 3.00499 6.01865 -165394 -159504 -36689.4 15976.3 348.135 -9671.52 -7.4127 
1393 1 15.7415 7.05047 3.0028 6.00629 -173679 -156550 34275.9 9958.98 23390.7 -23909.6 -7.41763 
1394 1 15.0084 5.83686 2.99795 6.01741 -163617 -168173 -30120.5 40077.6 -4247.39 -3603.7 -7.41279 
1395 1 15.6928 4.59539 2.99614 5.99955 -168791 -161122 24601.1 34453 24417.9 -13275.9 -7.41682 
1396 1 14.9588 3.3822 2.99392 6.0082 -166660 -168047 -19355.1 63112.5 -9313.2 640.813 -7.41333 
1397 1 15.6424 2.14043 2.99373 5.99793 -168560 -161182 12271.6 53713.9 21039.7 -5930.4 -7.41575 
1398 1 14.9078 0.927407 2.99409 6.00279 -169883 -163013 -5451.02 77332.3 -14762.8 1546.67 -7.4143 
1563 1 17.8911 8.23958 3.01276 6.00145 -185090 -152703 43155.6 15674.1 31123.3 -39284.6 -7.41829 
1564 1 17.1588 7.02547 3.00481 6.0102 -157363 -167541 -38026.1 42877.1 2632.99 -15986.5 -7.41294 
1565 1 17.8439 5.78437 3.00243 5.99314 -172244 -164134 31750.1 38447.2 33484.9 -26458.8 -7.41738 
1566 1 17.1101 4.57102 2.99689 6.00555 -156893 -172474 -27459.9 63879.2 -4103.08 -9387.42 -7.41322 
1567 1 17.7943 3.32957 2.99592 5.99029 -167423 -165648 18385.9 59206.6 30139.2 -15669.7 -7.41629 
1568 1 17.0597 2.11657 2.99404 5.99919 -162480 -167150 -13733 80374.5 -11798.2 -4899.06 -7.4139 
1569 1 17.7431 0.874758 2.99554 5.99317 -167418 -161047 4192.13 71402.4 21348.2 -8872.23 -7.41517 
10626 2 10.454 8.81134 6.4046 6.00679 -129785 -195656 23110 -2598.69 3402.55 -19396.3 -7.41679 
10627 2 11.1879 7.59839 6.4036 6.01994 -132765 -207028 -24672.7 2198.42 1249.02 4491.15 -7.41271 
10628 2 10.502 6.35794 6.4047 6.00731 -133992 -190210 22759.9 -28823.9 12262.7 -17237.5 -7.41681 
10629 2 11.2367 5.14526 6.40421 6.01118 -141846 -200792 -20639.9 -24123.1 -761.553 -776.917 -7.41287 
10630 2 10.5519 3.90423 6.40663 5.99914 -143633 -184055 17298.3 -56778.2 17795.5 -15660.6 -7.41623 
10631 2 11.2871 2.6917 6.40625 6.00249 -154897 -188099 -11968.9 -47386.6 -4755.4 -7875.6 -7.41352 
10632 2 10.6036 1.45005 6.40902 5.99811 -160889 -174770 7793.96 -76395.2 16512.7 -13338.8 -7.41519 
10633 2 11.3387 0.237347 6.40803 5.99951 -170264 -168692 32.0857 -57410.8 -9997.86 -13810.9 -7.41455 
10797 2 13.2913 8.86623 6.39953 6.02144 -142588 -187858 -32444.8 9869.88 4911.27 635.481 -7.41265 
10798 2 12.6054 7.62561 6.40028 6.01222 -150244 -172758 29459.1 -20605.9 9456.64 -18548.5 -7.41736 
10799 2 13.3389 6.4122 6.39922 6.01884 -152163 -180556 -28534.4 -15021.9 1375.63 2223.13 -7.41267 
10800 2 12.6541 5.17106 6.40084 6.00499 -154586 -167725 24577.3 -47115.1 15431.8 -11445.4 -7.41695 
10801 2 13.3883 3.95794 6.40095 6.01009 -159687 -175430 -20106 -39728.7 -3173.55 955.247 -7.41314 
10802 2 12.7045 2.71637 6.40323 6.00003 -161775 -165738 14845.4 -69804 17860.4 -5936.89 -7.41602 
10803 2 13.4392 1.50341 6.40392 6.00386 -166776 -168343 -7765.36 -55632.3 -9096.79 -2185.57 -7.41404 
10804 2 12.7559 0.261517 6.40585 6.00142 -170998 -164210 2034.67 -79384.8 15511.3 -1832.53 -7.41481 
10968 2 14.7087 8.89345 6.39436 6.01155 -161497 -166145 36311.6 -16455.5 14379.4 -29434.7 -7.41779 
10969 2 15.4413 7.67944 6.39279 6.01842 -154540 -167587 -36061.4 -9426.95 7706.93 -5771.59 -7.41276 
10970 2 14.7563 6.43827 6.39512 6.01117 -167587 -154306 31844.2 -39778.9 18193.3 -18015.2 -7.41743 
10971 2 15.4896 5.22456 6.39517 6.01311 -163406 -160840 -27856 -33841.2 2119.09 -1824.07 -7.413 
10972 2 14.8056 3.98289 6.39809 6.0034 -169909 -152339 22604.8 -62471.3 20306.3 -8181.94 -7.41663 
10973 2 15.5398 2.76954 6.39957 6.00581 -167825 -159487 -16005.7 -53325.4 -5400.71 -498.719 -7.41363 
10974 2 14.8564 1.52762 6.40246 6.00099 -170813 -156593 9434.6 -76939.8 19082.2 -1425.88 -7.4155 
10975 2 15.591 0.314532 6.40418 6.00126 -169170 -160211 -1871.84 -60903.1 -13913.5 -1861.19 -7.41461 
11139 2 17.5445 8.94563 6.38307 6.00372 -141630 -172311 -44424.6 -12191.2 14460.5 -18382.2 -7.41305 
11140 2 16.8586 7.70497 6.38683 6.01076 -171235 -154955 39754.2 -41214.4 26718.3 -31794.6 -7.41796 
11141 2 17.5912 6.4908 6.38687 6.00578 -157096 -156988 -35526.6 -35393.8 9355.13 -12864.4 -7.41315 
11142 2 16.9069 5.24931 6.39098 6.00493 -175951 -145322 30535.5 -62610 27080.5 -19810.1 -7.41716 
11143 2 17.6404 4.03555 6.39271 6.00233 -165239 -152077 -23825.4 -57130.5 1164.98 -8389.2 -7.41351 
11144 2 16.957 2.79362 6.39713 5.99987 -174713 -147179 17523.4 -79599.8 24570.1 -10074.2 -7.4161 
11145 2 17.6914 1.58029 6.39959 5.99717 -167893 -154759 -10201.4 -70661.6 -9819.75 -6644.85 -7.4142 
11146 2 17.0083 0.33827 6.40321 5.99753 -169602 -156490 1991.17 -86339.9 19143.8 -4830.25 -7.41493 
1734 1 19.3084 8.21638 3.01739 5.99729 -167866 -152183 -47291.8 57539.6 9987.67 -27648.7 -7.41319 
1735 1 19.9939 6.9755 3.0154 5.98582 -189999 -152759 42319.9 53004.4 41262.9 -41512 -7.41827 
1736 1 19.2612 5.76137 3.00608 5.99856 -158415 -166826 -35750.2 77074.2 3328.52 -22876.4 -7.41332 
1737 1 19.9458 4.5202 3.00459 5.97972 -176382 -162483 26700.4 75154.2 40466.8 -30397.8 -7.41703 
1738 1 19.2116 3.30685 2.99856 5.9919 -158422 -168346 -22048.5 94742.6 -6058.41 -17587.5 -7.41374 
1739 1 19.8953 2.06526 2.99942 5.98018 -169648 -162248 10985.5 91519.9 31806.5 -21539.4 -7.41583 
1740 1 19.1604 0.852174 2.99779 5.98875 -164361 -160154 -6380.39 104853 -16595.8 -14921 -7.41451 
1905 1 22.1418 8.17051 3.0335 5.9809 -218423 -126707 56276.1 74193.5 45120.8 -51854.2 -7.4195 
1906 1 21.4111 6.95497 3.022 5.98973 -174757 -147589 -45655.3 99315.8 9318.36 -32751.7 -7.41343 
1907 1 22.0961 5.714 3.02062 5.96975 -196442 -146028 38487.4 98503.7 48959.7 -43485.5 -7.41812 
1908 1 21.3631 4.4997 3.0105 5.98365 -165175 -159828 -30614.1 119237 555.06 -29972.1 -7.41373 
1909 1 22.0471 3.25836 3.01041 5.96547 -180464 -155520 20201.4 119821 43485.1 -35221.4 -7.41671 
1910 1 21.3126 2.04481 3.00437 5.97737 -163569 -160124 -14779.5 133659 -11702 -27116.3 -7.41428 
1911 1 21.9958 0.803132 3.0071 5.96508 -169481 -156799 3509.97 131150 29400.2 -29256.1 -7.41553 
2076 1 23.5588 8.15305 3.04169 5.98573 -201874 -118304 -58394.2 124085 11366.5 -36083.7 -7.41333 
2077 1 24.2442 6.91226 3.04124 5.96372 -223500 -118584 52808 123475 53222.1 -50492.2 -7.41948 
2078 1 23.5132 5.69648 3.02894 5.97823 -183482 -140578 -40851.2 147775 5350.59 -37082.2 -7.41368 
2079 1 24.1976 4.45543 3.02806 5.95323 -199806 -137860 32179.9 150684 53351 -44964.7 -7.41789 
2080 1 23.4643 3.24088 3.01801 5.96722 -171976 -151549 -23522.7 168149 -6038.02 -36259.2 -7.41413 
2081 1 24.1478 1.99951 3.01898 5.95018 -180205 -149235 12850.5 169881 42352 -39683.5 -7.41643 
2082 1 23.413 0.785665 3.01354 5.96147 -166361 -153337 -6392.52 178429 -20899.4 -35961.3 -7.41486 
2247 1 26.3898 8.11551 3.06246 5.96226 -251490 -86613.7 67988.4 145203 52858.3 -50915.6 -7.4209 
2248 1 25.6612 6.89797 3.05023 5.97669 -209014 -114002 -53668.5 173518 6895.74 -38068.1 -7.41346 
2249 1 26.3462 5.65724 3.04913 5.94605 -223552 -112411 45844.5 177563 58975.5 -48335.4 -7.41924 
2250 1 25.6147 4.44126 3.03691 5.96126 -189451 -134912 -33869.4 200719 -1339.06 -39792.4 -7.41394 
2251 1 26.2987 3.20028 3.03596 5.93708 -197553 -132955 24085.5 205671 53770.2 -45236.1 -7.41754 
2252 1 25.565 1.98548 3.02684 5.94989 -174684 -146229 -15338 219614 -15473.4 -40447.1 -7.41458 
2253 1 26.2485 0.744365 3.02793 5.9329 -173772 -148452 4696.89 219722 37480.3 -42374.6 -7.4161 
2418 1 27.8067 8.10423 3.07074 5.97824 -235517 -85773.4 -68152.8 192292 5412.74 -34953.1 -7.41306 
2420 1 27.7631 5.64627 3.05759 5.95998 -211562 -113050 -46342.8 225400 1327.97 -38360.8 -7.41363 
2422 1 27.7158 3.18963 3.04387 5.94356 -190124 -132915 -25627.3 253697 -9750.37 -40164 -7.41425 
2424 1 27.6658 0.733936 3.03457 5.9326 -171401 -145581 -6542.92 267157 -26358 -41762.1 -7.41513 
11310 2 18.962 8.96937 6.37577 6.00628 -158795 -173059 49856.6 -52417.5 37149 -45253.1 -7.41881 
11311 2 19.6943 7.75493 6.37642 5.98954 -137328 -170164 -44794.9 -45564.6 14879.9 -24804.9 -7.41338 
11312 2 19.0086 6.51422 6.38127 6.00026 -171091 -152434 39335.1 -72829.6 37350.5 -34971 -7.41788 
11313 2 19.7417 5.30013 6.38315 5.98795 -152827 -155774 -31876.8 -69270.5 8235.16 -20620.5 -7.41363 
11314 2 19.0577 4.05856 6.38866 5.99502 -174479 -145060 26000.2 -91843.7 33561.7 -24675.6 -7.41675 
11315 2 19.7918 2.84493 6.39137 5.98507 -161820 -152380 -18080.3 -88271.7 -3231.02 -17237.2 -7.41408 
11316 2 19.1086 1.60298 6.39679 5.99016 -171181 -149589 10255.4 -103867 26279.4 -17251.1 -7.41557 
11317 2 19.8435 0.389746 6.39849 5.98208 -166214 -156551 -3857.26 -96562.8 -17884.5 -17027.4 -7.41481 
11481 2 21.7996 9.01516 6.36612 5.97203 -107166 -197802 -57099.3 -61695.4 16295.1 -31987.1 -7.41341 
11482 2 21.1118 7.77583 6.37062 5.98928 -152600 -174408 50152.7 -90237.1 47187.4 -46949.3 -7.41893 
11483 2 21.8447 6.5615 6.37293 5.97026 -130087 -173881 -41880.5 -87049.6 12725.8 -30956.6 -7.41373 
11484 2 21.1591 5.3209 6.37824 5.98436 -164062 -155327 35460 -111986 44370 -39196.2 -7.41764 
11485 2 21.8931 4.10697 6.38099 5.96793 -147168 -159967 -26400.4 -111739 3491.57 -28617.1 -7.41411 
11486 2 21.2091 2.86552 6.38702 5.97912 -167685 -149385 19177 -129611 36417 -31667.8 -7.41632 
11487 2 21.9439 1.65199 6.38891 5.96569 -159597 -155813 -11567.1 -128232 -11778.6 -27241.3 -7.41467 
11488 2 21.2607 0.410209 6.39415 5.97612 -166094 -153624 2024.93 -137624 24855.6 -27210.3 -7.41516 
11652 2 23.2173 9.03285 6.36163 5.9751 -123761 -205541 63212.2 -109731 52904.6 -52546.6 -7.42024 
11653 2 23.9502 7.81834 6.3648 5.95408 -100911 -202203 -54684.8 -106208 13036.1 -35912.3 -7.41358 
11654 2 23.2623 6.57918 6.3686 5.97007 -143210 -177091 46624.9 -134404 53412.2 -48801.2 -7.41883 
11655 2 23.996 5.36499 6.37142 5.95081 -125187 -178776 -36638.9 -136035 7811.09 -36421.5 -7.41405 
11656 2 23.3105 4.12457 6.37639 5.96525 -155556 -159307 29058.6 -158428 47428 -43346.9 -7.41732 
11657 2 24.0451 2.91071 6.37834 5.94809 -145482 -163837 -19922.6 -161425 -5044.98 -35787.1 -7.41457 
11658 2 23.3612 1.6695 6.38359 5.96129 -162366 -153012 11181.4 -174875 35753.3 -38340.8 -7.41593 
11659 2 24.0963 0.455823 6.38278 5.94731 -163141 -155823 -4107.02 -174087 -23851 -36386.3 -7.41532 
11823 2 26.0585 9.07016 6.3604 5.94212 -70883.9 -233182 -69176.5 -123198 9796.05 -35493.5 -7.41315 
11824 2 25.3679 7.83264 6.36215 5.95529 -116115 -204837 59427.2 -153897 57843.6 -52142.4 -7.42022 
11825 2 26.1014 6.61817 6.36519 5.93732 -99749.3 -204363 -49179.4 -156445 8384.29 -38951.9 -7.41377 
11826 2 25.4136 5.37916 6.36793 5.95017 -136099 -177642 40231.7 -183947 56137.1 -49603.3 -7.41857 
11827 2 26.148 4.16495 6.36986 5.93308 -126089 -180251 -29962.7 -190007 136.843 -40179.5 -7.41436 
11828 2 25.4626 2.92475 6.37357 5.94553 -151110 -160254 21106.5 -209658 46991.1 -45544.2 -7.41692 
11829 2 26.1976 1.71071 6.37326 5.93101 -150647 -162559 -12598.8 -213867 -16709.8 -40756.3 -7.41507 
11830 2 25.5136 0.469809 6.37644 5.94475 -163106 -152036 2635.07 -223092 32177 -42071.1 -7.41555 
11994 2 27.4764 9.08129 6.35971 5.94304 -88168.1 -231860 72830.3 -167805 57232.4 -50577.1 -7.42159 
11996 2 27.5192 6.62901 6.36346 5.93643 -113025 -199541 52551.9 -201578 60305 -50508 -7.41995 
11998 2 27.5656 4.17552 6.36668 5.93103 -134564 -173938 31976.8 -235786 55917.9 -48027.7 -7.41812 
12000 2 27.615 1.72112 6.36834 5.92878 -153696 -157012 12278 -260387 43529.5 -44509.6 -7.41644 
2417 1 28.5329 9.32353 3.08142 5.96288 -275446 -56503.7 82643.5 160972 49140.2 -46944 -7.42221 
2419 1 28.4924 6.86387 3.07008 5.94427 -246917 -84739.2 60052.4 196637 59814.8 -46149.8 -7.42061 
2421 1 28.4479 4.40573 3.0552 5.92913 -217898 -110896 36518.9 232557 61267.5 -45134.6 -7.41878 
2423 1 28.3999 1.94896 3.04221 5.92281 -189949 -133966 14809.4 257789 50054.6 -43813.6 -7.41704 
2588 1 29.9496 9.31481 3.08842 5.9755 -258065 -60058.5 -82481.1 203086 1969.25 -30153 -7.41257 
2589 1 30.6363 8.07487 3.08873 5.94671 -266297 -59947.6 73933.9 206869 57003.5 -40948.6 -7.42187 
2590 1 29.9093 6.85566 3.07717 5.96218 -233482 -90758.6 -60052.6 239470 1654.26 -34105.9 -7.41323 
2591 1 30.5951 5.61563 3.07412 5.92703 -237438 -88264.1 49531.8 247831 64157.4 -40947.1 -7.42004 
2592 1 29.8649 4.39808 3.06201 5.94257 -208817 -116251 -37409.1 275725 -4942.71 -36560.5 -7.41388 
2593 1 30.5498 3.15791 3.05811 5.91459 -207818 -115281 25970.1 283322 59464 -41033.2 -7.41809 
2594 1 29.817 1.94176 3.0482 5.92635 -185550 -134951 -16635.6 300648 -19231.7 -38214.6 -7.41468 
2595 1 30.5017 0.701623 3.04556 5.91119 -178068 -140990 4921.81 300768 42898.5 -40781.8 -7.41639 
2759 1 32.7779 9.28951 3.10428 5.94876 -280179 -40517.1 86801.5 209595 52140.5 -35032.7 -7.42296 
2760 1 32.053 8.06887 3.09422 5.963 -251358 -70655.2 -73636.7 243822 -58.4777 -28963.5 -7.41279 
2761 1 32.74 6.82937 3.09121 5.92959 -253445 -68256.5 62544.3 252283 63206.5 -35059 -7.42123 
2762 1 32.0119 5.61039 3.07934 5.94525 -226788 -99248.9 -50012.6 284873 -2070.18 -31478 -7.41348 
2763 1 32.6979 4.37076 3.07401 5.91212 -224891 -96479.3 37852.6 294998 64843.7 -35705.5 -7.41921 
2764 1 31.9668 3.15336 3.06284 5.92566 -201689 -122342 -27582.4 319953 -12210.4 -33046.8 -7.41422 
2765 1 32.6521 1.91368 3.05772 5.90381 -195222 -124448 15146.7 324996 53758.1 -36464.1 -7.41726 
2766 1 31.9188 0.697488 3.04945 5.91124 -176645 -140072 -7021.21 336488 -29411.7 -34727 -7.41527 
2930 1 34.1946 9.28519 3.1083 5.96404 -263863 -54486.1 -86177.9 240879 -3099.03 -24070.1 -7.41235 
2931 1 34.8827 8.04623 3.10588 5.93505 -264883 -53005.7 75006.6 248499 59718.8 -29242 -7.4223 
2932 1 34.1567 6.82595 3.09483 5.94995 -241204 -83985.7 -62601 283197 -1476.87 -26252.7 -7.41308 
2933 1 34.8439 5.58689 3.08893 5.91443 -238726 -79969.4 49996.2 294689 66467.5 -29684.4 -7.42033 
2934 1 34.1148 4.36822 3.07732 5.92886 -217026 -109409 -39010.7 325304 -6738.71 -27587.2 -7.4138 
2935 1 34.801 3.12905 3.07045 5.90086 -211104 -107962 26117.6 334449 61560.6 -30846.2 -7.41824 
2936 1 34.0692 1.9118 3.06059 5.91078 -191873 -129717 -17292 354114 -20819.6 -28712.6 -7.4147 
2937 1 34.7552 0.6727 3.05488 5.89712 -181589 -136476 4684.56 354059 45254.6 -31812.1 -7.4164 
3101 1 37.0236 9.26552 3.11792 5.94064 -271687 -42127 86543.9 239149 54848.8 -24280.7 -7.42323 
3102 1 36.2994 8.04412 3.10807 5.95257 -251022 -71453.1 -74621.6 273967 -2818.73 -21579.6 -7.4127 
3103 1 36.9879 6.80563 3.10225 5.91993 -248689 -67256.8 61958.7 285551 65147.7 -24178.6 -7.42139 
3104 1 36.2607 5.58579 3.09086 5.9347 -229147 -97700.1 -50537.7 319357 -3632.95 -22582.2 -7.41342 
3105 1 36.9481 4.34714 3.08304 5.90246 -224018 -93340.4 37472.4 331490 66029.1 -25135.1 -7.41929 
3106 1 36.2179 3.12881 3.07225 5.91429 -205887 -119434 -27785.6 357929 -13206.1 -23251 -7.41422 
3107 1 36.9046 1.89009 3.06481 5.89395 -197254 -120982 14992.3 363549 54843.7 -26535.8 -7.41725 
3108 1 36.1723 0.672955 3.05648 5.89916 -180800 -137228 -6805.32 376009 -30501.9 -24436.9 -7.41533 
11995 2 28.2095 7.86649 6.36315 5.92878 -75189.3 -229826 -62921.2 -170441 5648.02 -37036.7 -7.41328 
11997 2 28.2532 5.41442 6.36531 5.92296 -105139 -201228 -41725.8 -209796 2291.76 -40083.4 -7.41399 
11999 2 28.3004 2.96109 6.3667 5.91877 -133862 -176100 -22370.7 -244238 -9967.85 -41442.9 -7.41471 
12001 2 28.35 0.506612 6.3651 5.91841 -162155 -154537 -4335.09 -262368 -29984.2 -42479.5 -7.41567 
12165 2 30.3201 9.11052 6.36455 5.92455 -53903.4 -250797 -76335.6 -178084 1156.98 -32578.4 -7.41271 
12166 2 29.6274 7.87447 6.36298 5.92628 -90768.7 -220293 65313.5 -210608 59817.1 -47735 -7.42129 
12167 2 30.3607 6.65944 6.36477 5.91771 -85455 -221224 -54359 -219748 1373.84 -36767.1 -7.41349 
12168 2 29.6708 5.4219 6.36384 5.91977 -116199 -190009 43723 -250267 60800.5 -46698.1 -7.41943 
12169 2 30.4051 4.20704 6.36396 5.91163 -116569 -192703 -33210.6 -262123 -5344.44 -38959.8 -7.41426 
12170 2 29.7179 2.96821 6.36367 5.91552 -139872 -166593 22722.6 -285260 53011.5 -43714.6 -7.41751 
12171 2 30.4526 1.75334 6.36136 5.90856 -147618 -166214 -14056.5 -292755 -21679.1 -40092.7 -7.41514 
12172 2 29.7673 0.513628 6.36046 5.91708 -162872 -149740 2869.81 -304406 37426.9 -40460.1 -7.41587 
12336 2 31.7381 9.11623 6.36535 5.92064 -71510.2 -237126 77672.8 -212501 56119.9 -43179.1 -7.42247 
12337 2 32.4706 7.90071 6.36717 5.91649 -68799.6 -237112 -66894.2 -221335 -1580.75 -31906.1 -7.41296 
12338 2 31.7785 6.66447 6.3645 5.91194 -98768.4 -205283 55890.5 -253875 61495.3 -43095.8 -7.42072 
12339 2 32.512 5.44911 6.36452 5.90914 -100411 -208501 -44631.2 -267806 -3500.75 -34592.1 -7.41376 
12340 2 31.8227 4.21147 6.36249 5.90636 -125173 -178052 33923.8 -296241 59247.1 -40823.1 -7.4187 
12341 2 32.557 2.99619 6.36073 5.9036 -132342 -180121 -24167.5 -308614 -14485.1 -35981.4 -7.4146 
12342 2 31.87 1.75744 6.35863 5.90494 -151198 -157028 13028.3 -327443 47447.9 -37495.1 -7.41678 
12343 2 32.6044 0.541945 6.35402 5.90272 -164252 -152182 -5038.14 -330356 -33850.4 -36611.1 -7.4157 
12507 2 34.5827 9.13906 6.37108 5.91789 -56082.7 -248023 -78705.9 -216859 -5372.51 -26740.5 -7.41246 
12508 2 33.8885 7.90393 6.36742 5.90865 -84290.6 -217767 67882.4 -249368 59061.4 -38584.4 -7.42189 
12509 2 34.621 6.68802 6.36726 5.90928 -87100 -220908 -56196.1 -263788 -4011.81 -29597.2 -7.41328 
12510 2 33.9297 5.45152 6.36394 5.90084 -111277 -189001 45518 -295193 61869.6 -36937.2 -7.41992 
12511 2 34.6632 4.23576 6.36235 5.90175 -118479 -193345 -34541.9 -311196 -9567.03 -31114 -7.41408 
12512 2 33.9744 2.99802 6.3593 5.89716 -138451 -165632 23799.7 -335926 55257.9 -33843.3 -7.41784 
12513 2 34.7084 1.78221 6.35572 5.89806 -150256 -165093 -14818.7 -345290 -24786.8 -31873.3 -7.41504 
12514 2 34.0216 0.54357 6.35178 5.89963 -165564 -146952 3145.62 -358334 39600.2 -30713.2 -7.41603 
12678 2 36.0006 9.14102 6.37129 5.90918 -73379.5 -226777 79251.1 -239650 54820.9 -34029.5 -7.42291 
12679 2 36.7321 7.92454 6.37101 5.91106 -76756.3 -229208 -67565.3 -253346 -6045.63 -24766.1 -7.41283 
12680 2 36.0388 6.68905 6.3669 5.89895 -100034 -198121 57094.3 -285434 61389.3 -32826.6 -7.42108 
12681 2 36.7712 5.47274 6.36526 5.90204 -106942 -203810 -45168.9 -303361 -7145.93 -26271.4 -7.41363 
12682 2 36.0807 4.23597 6.36153 5.89354 -126861 -173751 34874.2 -332000 60157.2 -30125.7 -7.41897 
12683 2 36.814 3.01976 6.35856 5.89575 -137526 -177213 -24522.3 -346767 -17204.5 -27092.6 -7.41447 
12684 2 36.1257 1.78195 6.35447 5.89225 -153990 -154090 13675.2 -366221 48745.4 -26887.1 -7.41694 
12685 2 36.8592 0.565518 6.3492 5.89277 -168087 -149406 -5196.94 -369630 -35570.4 -27301.6 -7.41562 
3272 1 38.4403 9.26429 3.11886 5.95629 -256402 -61773.4 -85803.4 260105 -5408.02 -17683.3 -7.41236 
3273 1 39.13 8.02636 3.1136 5.92728 -254792 -58389.6 73411.5 270812 61808.9 -19651.6 -7.42237 
3274 1 38.4047 6.80548 3.10293 5.94105 -237445 -88067.7 -61902.9 305530 -2880.69 -18322.9 -7.41308 
3275 1 39.0933 5.56738 3.09484 5.90734 -233252 -82117.5 48873.8 319250 67421.1 -20074.8 -7.42034 
3276 1 38.3649 4.34801 3.08377 5.92044 -217010 -110414 -38397.8 350239 -7655.95 -18645 -7.41381 
3277 1 39.0525 3.10973 3.07519 5.89438 -210054 -107235 25662.4 360666 61900.5 -21441 -7.41821 
3278 1 38.3216 1.89168 3.06567 5.90255 -194449 -128325 -16765.3 380807 -21547.3 -19168 -7.41474 
3279 1 39.0089 0.653435 3.05851 5.89103 -184367 -134089 4682.81 381104 45879.8 -22722.3 -7.41634 
3443 1 41.2705 9.24858 3.12267 5.9356 -257347 -52960.6 84166.9 253165 57250.4 -16110.6 -7.42325 
3444 1 40.5468 8.02681 3.1131 5.94639 -241889 -80422.2 -72917.5 287059 -3981.89 -14841.9 -7.41277 
3445 1 41.2367 6.78925 3.10526 5.91437 -238959 -73997.4 60082.3 301159 66283.3 -15941.9 -7.42135 
3446 1 40.5101 5.56892 3.0945 5.92695 -224385 -102739 -49080 334420 -4543.79 -14891.6 -7.41347 
3447 1 41.1988 4.33112 3.08538 5.89799 -219354 -96383.5 36491.9 348117 66126.2 -16929 -7.41923 
3448 1 40.4695 3.11217 3.07524 5.9084 -205305 -120837 -26751.3 374208 -13972.8 -14973.1 -7.41426 
3449 1 41.1573 1.87423 3.06693 5.89037 -197325 -120616 14796.6 380681 54757.3 -18417.9 -7.41719 
3450 1 40.4259 0.656368 3.05897 5.89409 -183747 -135577 -6112.05 392989 -31074.8 -15736.6 -7.41539 
3614 1 42.6872 9.24935 3.12102 5.95191 -242850 -75014.9 -83409.7 266326 -6290.55 -12036.6 -7.41247 
3615 1 43.3785 8.01233 3.11381 5.92279 -241350 -69175.1 70928.9 279673 63276.5 -12722.4 -7.42231 
3616 1 42.6535 6.79115 3.10385 5.93438 -228387 -96718.6 -59746.6 313316 -3671.42 -11874 -7.41317 
3617 1 43.3434 5.55385 3.09472 5.90405 -224978 -88429.3 47320.3 328895 67625.1 -13170.7 -7.42026 
3618 1 42.6157 4.33404 3.08454 5.91489 -212751 -114612 -36833.4 358964 -8500.62 -11689.4 -7.41388 
3619 1 43.3044 3.09647 3.07552 5.89233 -206869 -109486 25072.2 370452 61476.9 -14538.6 -7.41814 
3620 1 42.5743 1.87785 3.06677 5.89922 -194734 -128823 -15782.1 389950 -22244.4 -11862 -7.4148 
3621 1 43.2626 0.640248 3.05947 5.89015 -186228 -132670 4779.07 391064 45720.2 -15819.2 -7.4163 
3785 1 45.5188 9.23621 3.12009 5.93155 -240717 -67121.1 81317.1 257109 59013.8 -10250.4 -7.42318 
3786 1 44.7953 8.01432 3.1113 5.94221 -229058 -92439.5 -70258.9 289524 -4568.73 -9436.76 -7.41289 
3787 1 45.4865 6.77753 3.10259 5.91165 -227346 -83497.7 58046.8 305757 66766.8 -10173.2 -7.42127 
3788 1 44.7603 5.55694 3.09292 5.92249 -216555 -109936 -47042.2 337750 -5349.56 -9101.77 -7.41357 
3789 1 45.4501 4.31979 3.08365 5.89661 -212913 -101323 35458.9 352879 65669.4 -11178.6 -7.41916 