ITEM: TIMESTEP
0
ITEM: NUMBER OF ATOMS
19496
ITEM: BOX BOUNDS pp pp pp
0.0000000000000000e+00 1.2124284700000000e+02
0.0000000000000000e+00 2.0999877200000000e+02
0.0000000000000000e+00 1.5000000000000000e+01
ITEM: ATOMS id type x y z c_csym c_2[1] c_2[2] c_2[3] c_2[4] c_2[5] c_2[6] c_3 
194 1 0.796 8.588 3 6.02438 -161556 -178864 -48198.4 -10613.6 46254.5 -3573.52 -7.41279 
195 1 0.075 7.368 3 6.02216 -153900 -189851 -50543.1 -9072.41 45882.3 -1031.9 -7.4131 
196 1 0.771 6.133 3 6.02109 -148463 -147438 -55464.7 4707.21 38395 -4278.48 -7.41232 
197 1 0.05 4.912 3 6.02501 -147653 -152846 -58008 8554.19 33962.5 -443.63 -7.41252 
198 1 0.746 3.677 3 6.02088 -144527 -147017 -61022.1 6190.26 25328.4 -4909.98 -7.41237 
199 1 0.025 2.456 3 6.02501 -148204 -151013 -62923.2 8504.52 17974.2 -78.9585 -7.41227 
200 1 0.721 1.221 3 6.02088 -141515 -151025 -63806.6 5729.45 8752.82 -5161.62 -7.412 
201 1 0 0 3 6.0265 -144432 -142647 -64321.6 -1603.58 -9.81662 -17.6575 -7.41184 
366 1 2.214 8.574 3 6.02597 -145341 -155219 -45164.1 12542.4 49371.2 -12003.6 -7.41263 
367 1 2.91 7.339 3 6.02444 -150801 -147997 -49966.9 8380.64 41410.1 -17056.2 -7.41248 
368 1 2.189 6.118 3 6.02246 -134831 -139210 -53565.2 -3759.55 39901.2 -13520.4 -7.41214 
369 1 2.886 4.883 3 6.02426 -178805 -115393 -56171 7478.79 31417.5 -19080.3 -7.41252 
370 1 2.164 3.662 3 6.0234 -124891 -123907 -59277.4 8044.63 25787.8 -14597.4 -7.41163 
371 1 2.861 2.427 3 6.02425 -128105 -121122 -60369.2 7235.96 17089.9 -20496.4 -7.41157 
372 1 2.139 1.206 3 6.02194 -126839 -131064 -62528.5 13146 8819.69 -15288.2 -7.41146 
537 1 5.05 8.545 3 6.02332 -143386 -150435 -42246.7 -10082 41272.9 -26906.9 -7.41285 
538 1 4.328 7.325 3 6.02159 -123645 -129396 -47545 -21350.9 43083.2 -23322.3 -7.41213 
539 1 5.025 6.089 3 6.02159 -132440 -120247 -48685 -28835.3 34701 -30511.3 -7.41206 
540 1 4.303 4.869 3 6.02193 -180504 -155501 -54459 -4349.58 31697.6 -26174.4 -7.41281 
541 1 5 3.634 3 6.02152 -138677 -136213 -54329.4 -8315.07 23313.7 -32849.3 -7.41197 
542 1 4.279 2.413 3 6.023 -139898 -154902 -58371.3 11569.1 16676 -28085.8 -7.41226 
543 1 4.975 1.178 3 6.023 -148308 -157347 -57625.2 -843.565 8523.25 -33931.6 -7.41213 
708 1 6.468 8.531 3 6.023 -138975 -158983 -40039 14327.9 43020.9 -28559.9 -7.41335 
709 1 7.164 7.296 3 6.02243 -151120 -147239 -40103.1 2320.14 34887.4 -37673.6 -7.41324 
710 1 6.443 6.075 3 6.02597 -141250 -156475 -47189.5 16012.3 34797.5 -33385.1 -7.41284 
711 1 7.139 4.84 3 6.02597 -147811 -149980 -45769.4 6630.96 26803.6 -41846.4 -7.41291 
712 1 6.418 3.619 3 6.02243 -141999 -153733 -52269.3 10480 22274.6 -37148.7 -7.41262 
713 1 7.114 2.384 3 6.02257 -142688 -151281 -50001.2 4141.24 14869 -44116.1 -7.41303 
714 1 6.393 1.163 3 6.02122 -146799 -159948 -54215.4 15784.4 6916.39 -39585.5 -7.41231 
879 1 9.303 8.502 3 6.023 -150454 -150530 -29274.9 4746.07 32315.5 -40687.4 -7.41378 
880 1 8.582 7.281 3 6.02152 -133453 -145109 -39775.2 2248.28 34222.2 -36054.5 -7.41273 
881 1 9.279 6.046 3 6.02193 -188567 -151605 -35290.1 -12275.1 27817.4 -45907.3 -7.41378 
882 1 8.557 4.826 3 6.02159 -124581 -129309 -44489.5 -19387.2 24869.6 -41338.7 -7.41228 
883 1 9.254 3.59 3 6.02159 -129058 -125446 -40376.2 -30497.5 19318.9 -49474.6 -7.41249 
884 1 8.532 2.37 3 6.02332 -132914 -160077 -47107.6 -1806.1 12171.9 -45060.8 -7.41257 
885 1 9.229 1.135 3 6.02446 -128775 -133466 -44129.2 -2443.68 7920.93 -50789.9 -7.41245 
9774 2 0.622 8.603 6.4 6.0244 -135298 -164782 -45718.9 9169.6 49548 -2501.95 -7.41273 
9775 2 0.647 6.147 6.4 6.0265 -127452 -130282 -54323.5 -8254.29 40106.4 -3556.89 -7.41196 
9776 2 0.672 3.691 6.4 6.02515 -128564 -128583 -60468.2 -9926.97 25949.1 -4506.63 -7.41152 
9777 2 0.697 1.235 6.4 6.0243 -173903 -121520 -63824.3 -8309.63 8872.71 -5054.17 -7.41219 
9778 2 0 0 6.4 6.02539 -144186 -142398 -64328.8 10948.4 11.7904 -44.2484 -7.41184 
9942 2 2.04 8.617 6.4 6.02457 -151126 -144032 -47300.9 -8592.7 46332.6 -13167.9 -7.41314 
9943 2 2.761 7.396 6.4 6.02243 -141438 -154904 -49038 -2144.69 43699.8 -14658.6 -7.41277 
9944 2 2.065 6.161 6.4 6.02322 -148619 -145769 -54357.9 -9034.29 38521.2 -14365.2 -7.41265 
9945 2 2.786 4.94 6.4 6.02152 -142321 -155118 -56164.1 -4250.4 32391.9 -17493.5 -7.41206 
9946 2 2.09 3.705 6.4 6.02325 -153154 -181877 -60123.9 8490.12 25548.9 -15160.5 -7.41247 
9947 2 2.811 2.485 6.4 6.02248 -134966 -138533 -60792.8 41273.2 17134 -19625.1 -7.41163 
9948 2 2.114 1.249 6.4 6.02002 -176224 -117389 -62872.7 24505.2 9010.23 -15513.4 -7.41198 
9949 2 2.836 0.029 6.4 6.02297 -128980 -128934 -62191.2 24287.5 -145.194 -20597.5 -7.41151 
10113 2 4.876 8.646 6.4 6.02426 -172737 -125920 -42177.6 -4020.22 43867.8 -22466.6 -7.41311 
10114 2 4.179 7.411 6.4 6.02246 -144744 -130844 -47485.8 4771.38 41700.7 -25776.7 -7.41246 
10115 2 4.9 6.19 6.4 6.023 -138688 -157022 -49835.4 -3090.86 35649.2 -27438.2 -7.41286 
10116 2 4.204 4.955 6.4 6.02243 -150679 -146365 -53502.6 -8371.96 31618.8 -27824.5 -7.41231 
10117 2 4.925 3.734 6.4 6.02444 -141318 -154312 -55351.9 -5573.76 23091.5 -31015.5 -7.41242 
10118 2 4.229 2.499 6.4 6.02597 -147653 -148987 -57899.7 -10444.5 17453 -28939.9 -7.41207 
10119 2 4.95 1.278 6.4 6.02434 -142325 -152079 -57901.5 -1230.22 7702.79 -33311.1 -7.41228 
10120 2 4.254 0.043 6.4 6.02389 -141658 -158267 -59687.8 -8343.24 526.46 -29003.7 -7.4127 
10284 2 6.293 8.66 6.4 6.02426 -184217 -115171 -38700.7 -10689.8 41752.1 -33016.6 -7.4133 
10285 2 7.015 7.439 6.4 6.0234 -122974 -131198 -42649.2 432.802 35539.8 -32484.3 -7.41239 
10286 2 6.318 6.204 6.4 6.02332 -140559 -152493 -45026.3 6181.99 35248.3 -36668.5 -7.41271 
10287 2 7.04 4.984 6.4 6.02159 -123578 -129427 -48165.9 32072.5 25995.5 -38296.6 -7.41209 
10288 2 6.343 3.748 6.4 6.02159 -129188 -123053 -50110.7 22757.9 23852.2 -39149.2 -7.41198 
10289 2 7.065 2.528 6.4 6.02332 -132929 -156997 -51505.6 14452.4 13151.4 -42396.9 -7.41259 
10290 2 6.368 1.293 6.4 6.02246 -137147 -137240 -53213.6 2724.5 9130.9 -40261.9 -7.41211 
10291 2 7.089 0.072 6.4 6.02152 -135959 -129280 -51930.5 9610.2 -973.684 -44289.2 -7.4123 
10455 2 9.129 8.689 6.4 6.02457 -138616 -158578 -35431.8 204.11 32516.5 -33138.8 -7.41382 
10456 2 8.433 7.454 6.4 6.02243 -149030 -148545 -34996.7 -9518.74 35569.2 -41175.2 -7.4137 
10457 2 9.154 6.233 6.4 6.02597 -143362 -157730 -40464.2 -84.4445 26328.3 -40466.5 -7.41297 
10458 2 8.458 4.998 6.4 6.02444 -148199 -150670 -41170.5 -13548.3 27586.3 -44722.6 -7.41316 
10459 2 9.179 3.777 6.4 6.02243 -144168 -155329 -44038.6 770.295 16664.3 -46279.6 -7.41283 
10460 2 8.483 2.542 6.4 6.02169 -143345 -153337 -45400.3 -12461.4 15725.5 -46721.4 -7.41309 
10461 2 9.204 1.321 6.4 6.02297 -135401 -141005 -45454.1 13555.2 4696.29 -49665.3 -7.41254 
10462 2 8.507 0.086 6.4 6.02424 -129376 -131818 -47571.2 -9628.61 1899.56 -46879.7 -7.41238 
1050 1 10.721 8.488 3 6.02426 -124442 -131066 -32991.4 18459.8 31004.7 -33751.4 -7.41302 
1051 1 11.418 7.253 3 6.0234 -134130 -122250 -24522.9 1528.35 26009.8 -45581.2 -7.41344 
1052 1 10.696 6.032 3 6.02426 -172336 -126455 -37536.9 17934.5 24729.7 -40408.1 -7.4135 
1053 1 11.393 4.797 3 6.02246 -141729 -137465 -29911.7 -11319.1 20976.2 -49991.7 -7.41336 
1054 1 10.672 3.576 3 6.02444 -141901 -159367 -39621.5 17864.8 15177.5 -45486.1 -7.41302 
1055 1 11.368 2.341 3 6.02597 -149931 -154213 -34258.7 3567.71 12731.4 -52557.5 -7.41304 
1056 1 10.647 1.12 3 6.02238 -142657 -163848 -40098.6 18404.2 3313.76 -48746 -7.41346 
1221 1 13.557 8.459 3 6.02457 -152599 -150750 -13704.8 1389.54 22633.8 -41361.6 -7.41458 
1222 1 12.836 7.238 3 6.02152 -139168 -159191 -30418.8 17027.9 21870.1 -35146.6 -7.41394 
1223 1 13.532 6.003 3 6.02457 -147763 -153051 -19048.2 2386.91 20352.6 -46395.2 -7.41452 
1224 1 12.811 4.782 3 6.02152 -140684 -160284 -32668.1 14975.9 15325.8 -41298.8 -7.4135 
1225 1 13.507 3.547 3 6.02303 -152973 -187404 -24110.9 -15911.6 15065.9 -49748.2 -7.41458 
1226 1 12.786 2.327 3 6.02219 -144706 -158350 -33328 -17224.2 6300.92 -45772.5 -7.41322 
1227 1 13.482 1.091 3 6.01874 -145281 -165283 -28189.2 -38790.2 7623.9 -50854.8 -7.41385 
1392 1 14.975 8.445 3 6.02457 -134986 -144556 -26220.9 6930.75 17072.2 -27007.9 -7.41356 
1393 1 15.672 7.21 3 6.02172 -181658 -121920 -8759.35 489.569 18190.9 -39833.8 -7.41482 
1394 1 14.95 5.989 3 6.02441 -125467 -130564 -27403 18735.6 13021.7 -33490.4 -7.4133 
1395 1 15.647 4.754 3 6.02303 -131075 -126809 -13919.9 -372.52 15774.8 -43401.1 -7.41398 
1396 1 14.925 3.533 3 6.02584 -126654 -130634 -27013.9 20835.3 6544.02 -38640.1 -7.4132 
1397 1 15.622 2.298 3 6.02447 -128913 -128973 -18484.5 3758.84 11008.6 -45158.7 -7.41372 
1398 1 14.9 1.077 3 6.02431 -127086 -135413 -25393.6 23694 -1388.78 -42076 -7.41387 
1563 1 17.811 8.416 3 6.02444 -134830 -123950 650.923 95.6412 15501 -31786.9 -7.41483 
1564 1 17.089 7.195 3 6.02172 -172158 -127939 -23387.3 18589.5 9200.92 -23743.7 -7.41408 
1565 1 17.786 5.96 3 6.02457 -143561 -139470 -4632.49 -12329.1 14993.9 -34969.6 -7.41464 
1566 1 17.065 4.739 3 6.02013 -138395 -163248 -22866.6 17479.9 5180.47 -28948.1 -7.414 
1567 1 17.761 3.504 3 6.0246 -157994 -187657 -9546.42 -17770.2 12522.7 -36902.6 -7.41488 
1568 1 17.04 2.284 3 6.02072 -141951 -157837 -20962.6 -16005.1 -392.022 -33048.2 -7.41439 
1569 1 17.736 1.048 3 6.02306 -140551 -131164 -14505.3 -24308.7 8503.07 -37252.5 -7.41423 
10626 2 10.547 8.703 6.4 6.02332 -143952 -153126 -24495.6 6000.49 33226.5 -41109.5 -7.41376 
10627 2 11.269 7.483 6.4 6.0202 -171492 -129612 -33640.5 35247.5 23686.6 -37907.4 -7.41343 
10628 2 10.572 6.247 6.4 6.02248 -143018 -137397 -30075.5 34629.8 28620.1 -45775.5 -7.4132 
10629 2 11.293 5.027 6.4 6.02303 -147261 -192877 -36635.7 18471.3 17070.4 -44911.9 -7.41373 
10630 2 10.597 3.792 6.4 6.02152 -148339 -153905 -34814.6 -12108.9 20369.9 -48750.4 -7.41316 
10631 2 11.318 2.571 6.4 6.023 -140634 -157097 -38011.2 -122.167 7878.46 -49979.4 -7.41356 
10632 2 10.622 1.336 6.4 6.02243 -144924 -154058 -38411 -11210 9142.85 -49826.1 -7.41329 
10633 2 11.343 0.115 6.4 6.02456 -145936 -163438 -37240.1 -3730.69 -2582.16 -52587.2 -7.4134 
10797 2 13.383 8.732 6.4 6.02597 -135494 -145164 -28077.5 13023.9 19132.2 -31248.1 -7.41334 
10798 2 12.686 7.497 6.4 6.023 -182618 -120167 -19006.7 -17176.8 27223 -42551.8 -7.4143 
10799 2 13.408 6.276 6.4 6.0234 -124857 -130927 -30472 -871.113 15022.5 -39151.1 -7.41315 
10800 2 12.711 5.041 6.4 6.02429 -132790 -125170 -24063.5 -16406.7 22208.8 -46272.6 -7.41334 
10801 2 13.433 3.82 6.4 6.02447 -124664 -130610 -31287.6 2548.81 8517.39 -45376.7 -7.4131 
10802 2 12.736 2.585 6.4 6.02582 -129575 -126620 -28751.3 -15809.2 14107.1 -48203 -7.41322 
10803 2 13.458 1.364 6.4 6.02248 -125693 -128175 -30288.7 2010.92 515.837 -49456.9 -7.41333 
10804 2 12.761 0.129 6.4 6.02485 -139515 -149578 -32028.9 1592.34 4095.49 -48083.5 -7.41327 
10968 2 14.801 8.746 6.4 6.0246 -160674 -183611 -8733.85 4961.72 23925.6 -36656 -7.41514 
10969 2 15.522 7.526 6.4 6.02219 -138163 -161443 -25556.2 37319.2 11574 -30241.4 -7.41406 
10970 2 14.826 6.29 6.4 6.02219 -147449 -154733 -13890.3 19879.8 21763.4 -40513.4 -7.41465 
10971 2 15.547 5.07 6.4 6.0246 -149841 -191533 -25864.5 21362.3 7482.57 -37021 -7.41428 
10972 2 14.851 3.835 6.4 6.02013 -144063 -157327 -18601.7 -14230.3 16635.8 -42867.8 -7.41442 
10973 2 15.572 2.614 6.4 6.02457 -145658 -157582 -24958.1 1585.76 1754.04 -41989.6 -7.4138 
10974 2 14.876 1.379 6.4 6.02013 -142980 -158755 -22743.9 -14607.3 9382.53 -43485.7 -7.4141 
10975 2 15.597 0.158 6.4 6.02541 -139167 -151374 -22440.1 10119.4 -4782.91 -44735.2 -7.41376 
11139 2 17.637 8.775 6.4 6.02303 -124861 -132067 -23226.6 803.935 7204.2 -20028.7 -7.41327 
11140 2 16.94 7.54 6.4 6.02447 -136603 -124955 -3870.57 -16531.9 19725.8 -32859.6 -7.41424 
11141 2 17.662 6.319 6.4 6.02169 -172020 -128172 -22514.3 3915.08 4844.61 -26510.4 -7.41412 
11142 2 16.965 5.084 6.4 6.02457 -142410 -139168 -8703.43 -3578.18 17423.8 -35118.8 -7.41456 
11143 2 17.686 3.863 6.4 6.02013 -139857 -160927 -21157.1 4609.33 1071.97 -31789.6 -7.41421 
11144 2 16.99 2.628 6.4 6.02457 -149897 -155007 -13892.4 -17282.1 12876.5 -36111.1 -7.41436 
11145 2 17.711 1.407 6.4 6.01957 -141064 -158868 -18039 3599.46 -3574.96 -35536.2 -7.41454 
11146 2 17.015 0.172 6.4 6.02306 -147304 -164745 -17818.6 -12033.4 6837.69 -35357.5 -7.41439 
1734 1 19.229 8.402 3 6.0246 -146533 -191124 -22036.1 2319.9 4882.59 -13756 -7.41467 
1735 1 19.925 7.167 3 6.02152 -146971 -156452 3480.68 -2005.52 13965.8 -26358.1 -7.41555 
1736 1 19.204 5.946 3 6.02457 -142283 -157842 -20354 18080.3 2481.93 -18444.8 -7.41424 
1737 1 19.9 4.711 3 6.02013 -146333 -155353 -1620.4 -2697.15 13116 -27809.9 -7.4154 
1738 1 19.179 3.49 3 6.02457 -145153 -156682 -17975.5 19367.8 -1279.66 -22517.4 -7.41427 
1739 1 19.875 2.255 3 6.02243 -143831 -159061 -6920.14 -3722.75 10760.8 -28227.4 -7.41489 
1740 1 19.154 1.034 3 6.02516 -140524 -151098 -14411.9 10524.5 -5922.96 -25519.5 -7.41404 
1905 1 22.065 8.373 3 6.023 -184525 -122550 10734.9 941.115 13159.1 -18982.4 -7.41556 
1906 1 21.343 7.152 3 6.0234 -124232 -128730 -20148 17217.5 -638.028 -8975.28 -7.41365 
1907 1 22.04 5.917 3 6.02429 -132118 -126121 5478.53 -1089.11 13530 -19527.1 -7.41508 
1908 1 21.318 4.696 3 6.02447 -124885 -129374 -17066.9 18302.2 -3103.13 -12434.9 -7.41381 
1909 1 22.015 3.461 3 6.02582 -130765 -127631 -106.346 -1265.64 12518.6 -19577 -7.41467 
1910 1 21.293 2.24 3 6.02248 -126071 -129687 -13359.6 18160.6 -6462.01 -15317.4 -7.41398 
1911 1 21.99 1.005 3 6.02385 -131050 -135898 -5462.36 -7047.54 10347.7 -18691.7 -7.41441 
2076 1 23.482 8.359 3 6.0202 -170634 -126263 -21298.5 -15127.1 -3160.87 -1843.46 -7.41401 
2077 1 24.179 7.123 3 6.02248 -143695 -140174 11544.5 -49157.4 14399.8 -13393.1 -7.41531 
2078 1 23.458 5.903 3 6.02303 -147202 -190764 -17795.5 1452.28 -4839.32 -4151.14 -7.41465 
2079 1 24.154 4.668 3 6.02152 -149670 -155968 5584.74 -3614.99 13997 -12597.6 -7.4152 
2080 1 23.433 3.447 3 6.023 -141165 -156188 -13765.8 19375.2 -7320.81 -6546.15 -7.41477 
2081 1 24.129 2.212 3 6.02243 -146497 -155313 -519.879 -5786.83 12672.4 -11465.4 -7.4152 
2082 1 23.408 0.991 3 6.02456 -144369 -164234 -8609.1 23626.1 -10086.4 -8656.21 -7.41504 
2247 1 26.318 8.33 3 6.0249 -151974 -152425 16837.4 -524.942 16163.8 -10542.4 -7.41612 
2248 1 25.597 7.109 3 6.0249 -141003 -154206 -19963.8 20208 -6044.72 904.655 -7.41422 
2249 1 26.293 5.874 3 6.023 -148729 -153805 10868.2 -553.836 16143.8 -8561.96 -7.41589 
2250 1 25.572 4.653 3 6.02243 -144441 -153814 -15640.2 17202.7 -8167.82 -422.552 -7.41423 
2251 1 26.268 3.418 3 6.023 -145751 -156214 4443.06 -2698.99 15114.9 -6672.5 -7.41547 
2252 1 25.547 2.197 3 6.0219 -136840 -140395 -10242.1 4767.28 -10608.4 -2031.95 -7.41429 
2253 1 26.244 0.962 3 6.02385 -178686 -131542 -2155.58 -6074.68 13319.1 -4923.64 -7.41514 
2418 1 27.736 8.316 3 6.02248 -132047 -140533 -22571.6 -30548.7 -6055.74 2418.44 -7.41352 
2420 1 27.711 5.86 3 6.02332 -131700 -158313 -18174 1361.56 -8289.04 2266 -7.41403 
2422 1 27.686 3.404 3 6.02426 -125757 -125913 -12840.3 19100.1 -10811 1502.96 -7.41398 
2424 1 27.661 0.948 3 6.02428 -177387 -130984 -6709.73 23746.8 -13311.4 193.009 -7.41489 
11310 2 19.055 8.789 6.4 6.01928 -149600 -156060 4358.26 18773.5 17142.2 -25050.7 -7.41536 
11311 2 19.776 7.569 6.4 6.02457 -142054 -176263 -21107.4 32735.5 1875.42 -15770.6 -7.4141 
11312 2 19.079 6.334 6.4 6.02172 -179768 -125375 -119.949 -15959.9 16808.4 -26663.8 -7.41513 
11313 2 19.801 5.113 6.4 6.02441 -125360 -129979 -19076.7 3251.69 -584.482 -20758 -7.41371 
11314 2 19.104 3.878 6.4 6.02303 -130855 -127475 -5148.71 -16326.4 14566.3 -27482 -7.41442 
11315 2 19.826 2.657 6.4 6.02429 -125446 -129858 -15830.1 2135.46 -3911.43 -24715.8 -7.414 
11316 2 19.129 1.422 6.4 6.0234 -129155 -128602 -10139.5 -15941.7 10712.4 -27172.6 -7.41414 
11317 2 19.851 0.201 6.4 6.02428 -178198 -134997 -11695.7 -2661.15 -7462.78 -27276 -7.41456 
11481 2 21.89 8.818 6.4 6.02243 -137350 -159197 -21704.7 4484.68 -623.27 -6441.88 -7.41415 
11482 2 21.194 7.583 6.4 6.02457 -151287 -152375 7408.53 -15667.4 15683.9 -19179.4 -7.41577 
11483 2 21.915 6.362 6.4 6.02152 -138612 -157483 -19043.7 4332.33 -2307.42 -10504.4 -7.4145 
11484 2 21.219 5.127 6.4 6.02457 -147607 -154621 2128.82 -18033.3 15123 -19287.1 -7.41559 
11485 2 21.94 3.906 6.4 6.02152 -140920 -159366 -15409.2 5893.36 -4740.52 -14120.1 -7.41435 
11486 2 21.244 2.671 6.4 6.02303 -153125 -190347 -3172.42 -732.269 12967 -18703.1 -7.41541 
11487 2 21.965 1.451 6.4 6.02248 -138068 -141760 -10938.2 49901 -7666.03 -16850.8 -7.41427 
11488 2 21.268 0.215 6.4 6.02235 -171448 -99888.5 -8566.49 1797.75 9867.73 -17526.2 -7.41451 
11652 2 23.308 8.833 6.4 6.02303 -133500 -127055 13934.7 -16998.8 14827.8 -14036.7 -7.41525 
11653 2 24.03 7.612 6.4 6.02426 -123141 -128063 -20255.3 1489.27 -3691.45 -2705.27 -7.41362 
11654 2 23.333 6.377 6.4 6.0234 -133749 -125010 8489.5 -16093.3 15515.4 -12993.7 -7.41511 
11655 2 24.055 5.156 6.4 6.02426 -172105 -124681 -16568 1888.94 -5679.09 -5431.89 -7.41451 
11656 2 23.358 3.921 6.4 6.02246 -141958 -139516 2896.71 -4372.07 14638.4 -11885.7 -7.41501 
11657 2 24.079 2.7 6.4 6.02444 -142603 -158674 -11895.1 1358.28 -8065.76 -7850.85 -7.4144 
11658 2 23.383 1.465 6.4 6.02597 -148296 -155937 -3087.11 -18772.4 12702.1 -10457.7 -7.41484 
11659 2 24.104 0.244 6.4 6.02596 -142452 -163670 -6510.2 1675.99 -10535.7 -9924.21 -7.41539 
11823 2 26.144 8.861 6.4 6.02243 -141531 -153415 -22931.7 2963.97 -3737.84 1658.44 -7.41384 
11824 2 25.448 7.626 6.4 6.023 -149516 -154742 14118.7 -18305 16088.8 -9654.92 -7.41598 
11825 2 26.169 6.405 6.4 6.02152 -132434 -142276 -19008.1 15855.8 -5854.74 244.749 -7.41374 
11826 2 25.472 5.17 6.4 6.02193 -188533 -155011 8339.8 -2115.87 16050.8 -7551.41 -7.41598 
11827 2 26.194 3.95 6.4 6.02159 -124838 -127992 -14108 37198.4 -8378.38 -1405.89 -7.41379 
11828 2 25.497 2.714 6.4 6.02159 -129741 -127869 1980.02 15113.9 14979.9 -5614.92 -7.41463 
11829 2 26.219 1.494 6.4 6.02332 -134169 -160184 -8285.49 19017.8 -10906.3 -3117.36 -7.41451 
11830 2 25.522 0.259 6.4 6.02395 -130438 -134150 -4202.39 -12886.3 13036.1 -3739.62 -7.41445 
11994 2 27.562 8.876 6.4 6.02152 -153256 -153712 19501.6 -17269.8 17635.9 -9748.31 -7.41591 
11996 2 27.587 6.42 6.4 6.02243 -150573 -152266 13231.6 -15470.3 17957.6 -6534.75 -7.41592 
11998 2 27.612 3.964 6.4 6.0249 -146597 -153459 6624.87 -22283.2 17186.7 -3810.94 -7.41579 
12000 2 27.637 1.508 6.4 6.023 -145137 -156379 -198.305 -20189.2 15516.7 -1555.21 -7.41507 
2417 1 28.457 9.536 3 6.02172 -158067 -187261 21926.3 -19981.3 19006.9 -11126.2 -7.41669 
2419 1 28.433 7.08 3 6.02159 -132857 -124796 15740.5 -36789.2 19057.7 -7881.15 -7.41554 
2421 1 28.408 4.625 3 6.02447 -129739 -128062 8860.88 -3340.14 18084.6 -5141.58 -7.41498 
2423 1 28.383 2.169 3 6.0234 -129479 -125816 1892.05 -4524.81 16269.8 -2851 -7.41471 
2588 1 29.875 9.522 3 6.02426 -121163 -122139 -24896.7 16963.2 -4691.62 392.043 -7.41368 
2589 1 30.572 8.287 3 6.02353 -144224 -138517 20997.1 -17433.4 22829.4 -10542.1 -7.41592 
2590 1 29.851 7.066 3 6.02444 -139529 -155177 -20816.3 18461 -7216.45 1441.1 -7.41389 
2591 1 30.547 5.831 3 6.02597 -153830 -152719 13678.2 -472.23 21768.2 -6879.57 -7.41547 
2592 1 29.826 4.61 3 6.02243 -139226 -152969 -15811.9 16053 -10108 1664.33 -7.41461 
2593 1 30.522 3.375 3 6.02457 -147300 -152505 6212.79 -3747.41 19688.3 -3895 -7.41567 
2594 1 29.801 2.154 3 6.02096 -140701 -153723 -9948.06 16466.9 -13115.7 1093.82 -7.41488 
2595 1 30.497 0.919 3 6.02346 -145811 -161913 -1349.48 -6208.9 16874.6 -1603.2 -7.41526 
2759 1 32.711 9.493 3 6.02457 -152714 -153006 26613.9 -3212.91 27287.9 -15924.3 -7.41661 
2760 1 31.99 8.272 3 6.02152 -137555 -154158 -22919.3 13333.8 -5012.22 -2576.61 -7.41389 
2761 1 32.686 7.037 3 6.02303 -156111 -186267 18783.8 -18963.4 26214.3 -11521 -7.41672 
2762 1 31.965 5.817 3 6.02219 -142348 -153000 -18317.4 -17656.6 -8391.84 -1351.56 -7.41391 
2763 1 32.661 4.581 3 6.01928 -145422 -157030 11004.3 -36585.3 23931.8 -7887.49 -7.41565 
2764 1 31.94 3.361 3 6.02457 -143627 -170399 -12635.4 -12564.2 -11986.3 -1060.04 -7.41447 
2765 1 32.637 2.126 3 6.02172 -176637 -122879 3206.56 -1990.14 20673.1 -5081.45 -7.41533 
2766 1 31.915 0.905 3 6.02389 -122123 -99100.6 -5990.15 4517.98 -15619.6 -1776.25 -7.41399 
2930 1 34.129 9.479 3 6.02597 -131423 -137904 -23912.4 2451.79 -1820.9 -8511.93 -7.41356 
2931 1 34.826 8.244 3 6.02303 -133791 -124490 25411.9 -2543.18 30848.3 -18087.3 -7.41616 
2932 1 34.104 7.023 3 6.02584 -121654 -124215 -20057.2 16591.6 -5670.97 -6813.13 -7.41369 
2933 1 34.801 5.788 3 6.02447 -131621 -126253 16874.2 -2125.88 28568.8 -14102.7 -7.4155 
2934 1 34.079 4.567 3 6.02303 -125391 -125357 -14992.4 18545.5 -9914.31 -5898.13 -7.41359 
2935 1 34.776 3.332 3 6.02447 -132085 -125995 8312.4 286.167 25023.7 -10911.5 -7.4148 
2936 1 34.054 2.111 3 6.02299 -173186 -122429 -8761.34 15827.4 -14306 -5935.11 -7.4147 
2937 1 34.751 0.876 3 6.02487 -138553 -146348 268.104 -15870.4 20565.6 -8632.41 -7.41508 
3101 1 36.965 9.45 3 6.02597 -144513 -140829 32960.9 -13784 35445.8 -25504.1 -7.41667 
3102 1 36.244 8.229 3 6.02013 -135944 -155193 -20188.3 13565.5 -2155.72 -13619.8 -7.41414 
3103 1 36.94 6.994 3 6.02457 -152662 -154368 23707.9 43.0352 33393 -21501.2 -7.41623 
3104 1 36.219 5.773 3 6.02013 -135879 -155945 -15846.6 14291.8 -6842.24 -12264 -7.41445 
3105 1 36.915 4.538 3 6.0246 -155784 -187291 14595.8 -19007.7 29842.7 -18097.3 -7.41628 
3106 1 36.194 3.318 3 6.02219 -138608 -155201 -10327.9 -18600.3 -11985.8 -11667.4 -7.41473 
3107 1 36.89 2.082 3 6.02338 -143779 -154545 6121.97 -34233.3 24943.8 -15463.6 -7.41568 
3108 1 36.169 0.862 3 6.02462 -145815 -160667 -3857.43 -15425.9 -17231.5 -12139.8 -7.415 
11995 2 28.283 7.655 6.4 6.023 -137660 -153591 -21456.8 844.174 -5001.12 2270.1 -7.41432 
11997 2 28.308 5.199 6.4 6.02457 -140024 -154040 -16800.4 -384.874 -7784.96 1642.8 -7.41444 
11999 2 28.333 2.743 6.4 6.0249 -143124 -153554 -11239.7 68.6616 -10792.3 555.382 -7.41465 
12001 2 28.358 0.287 6.4 6.0223 -139498 -147199 -4882.71 11998.4 -13728.3 -963.803 -7.4146 
12165 2 30.398 8.904 6.4 6.02447 -121113 -124688 -24066.1 1337.55 -3015.11 617.208 -7.41338 
12166 2 29.701 7.669 6.4 6.02581 -134454 -124624 18428.1 -19330.1 20470.3 -8866.08 -7.4156 
12167 2 30.423 6.448 6.4 6.02303 -120973 -127538 -19787.5 1565.62 -6280.45 1114.18 -7.41348 
12168 2 29.726 5.213 6.4 6.02332 -140775 -156911 11270.6 -913.822 19838.5 -5263.2 -7.41554 
12169 2 30.448 3.993 6.4 6.0202 -171927 -123657 -14411.6 34993.9 -9877.01 874.886 -7.41432 
12170 2 29.751 2.757 6.4 6.02248 -140430 -139722 3965.48 28594.1 18242.4 -2372.71 -7.41489 
12171 2 30.472 1.537 6.4 6.02303 -148722 -188641 -8302.38 19055.7 -13437.6 17.9 -7.41507 
12172 2 29.776 0.302 6.4 6.02265 -147020 -160692 -3216.65 -11084.4 15923 -221.727 -7.41507 
12336 2 31.816 8.919 6.4 6.02013 -149901 -152875 23864.6 -16644.7 23924.5 -13983.7 -7.41668 
12337 2 32.537 7.698 6.4 6.02457 -141001 -151197 -21828.4 -211.8 -3630.75 -2608.21 -7.41398 
12338 2 31.841 6.463 6.4 6.02243 -147872 -154869 16313.2 -16267.4 23266.7 -9632.81 -7.41606 
12339 2 32.562 5.242 6.4 6.026 -135705 -138380 -16921.1 11186.3 -7861.12 -1934.96 -7.41369 
12340 2 31.865 4.007 6.4 6.023 -181096 -122356 8654.41 -20365.3 21527.4 -6119.34 -7.41541 
12341 2 32.587 2.786 6.4 6.0234 -125270 -124560 -11018 2808.74 -12286.1 -2101.4 -7.41404 
12342 2 31.89 1.551 6.4 6.02428 -128180 -125242 1218.14 -18394.8 18905.7 -3475.28 -7.41478 
12343 2 32.612 0.33 6.4 6.02194 -128084 -133643 -4186.36 -2167.48 -16708 -3163.57 -7.41442 
12507 2 34.651 8.947 6.4 6.02013 -134074 -157291 -22849.4 1067.74 -224.203 -8431.04 -7.41388 
12508 2 33.955 7.712 6.4 6.0246 -161598 -185227 22445.7 -530.914 27233.5 -16192.2 -7.41649 
12509 2 34.676 6.492 6.4 6.02072 -136463 -154656 -18627.8 34024 -4905.84 -7279.22 -7.4143 
12510 2 33.98 5.256 6.4 6.02219 -148703 -154494 14187.8 18609.2 25288.8 -12173.1 -7.41582 
12511 2 34.701 4.036 6.4 6.0246 -146565 -186069 -13385.3 17018.1 -10105.9 -6866.43 -7.41503 
12512 2 34.005 2.801 6.4 6.02152 -143132 -155925 6025.02 -16035.2 22316.2 -9106.48 -7.4156 
12513 2 34.726 1.58 6.4 6.02457 -142828 -153633 -6891.35 1609.28 -15443.6 -7288.28 -7.41481 
12514 2 34.03 0.345 6.4 6.02069 -143911 -163196 -1826.4 -10744.8 18549.9 -6978.1 -7.41512 
12678 2 36.069 8.962 6.4 6.02303 -134502 -126781 29716.8 -15789.2 31605.7 -23832.9 -7.41618 
12679 2 36.791 7.741 6.4 6.02447 -122800 -126406 -18898.9 -3262.34 -1492.38 -14072.9 -7.41338 
12680 2 36.094 6.506 6.4 6.02447 -134445 -127115 20873.5 -19057.3 29668.8 -19681.3 -7.41547 
12681 2 36.816 5.285 6.4 6.02303 -122121 -126060 -14230.5 127.66 -7092.31 -13179.5 -7.41386 
12682 2 36.119 4.05 6.4 6.02444 -130681 -125360 12020.4 -16249.2 26444.5 -16188.1 -7.41536 
12683 2 36.841 2.829 6.4 6.02172 -172083 -123128 -8532.99 268.939 -13112.4 -13008.2 -7.41474 
12684 2 36.144 1.594 6.4 6.02401 -138968 -139585 3615.85 -4089.96 22164.1 -13650.1 -7.41496 
12685 2 36.865 0.373 6.4 6.01844 -142268 -164811 -1772.4 -2754.41 -19198.6 -13763.7 -7.41512 
3272 1 38.383 9.436 3 6.0246 -145935 -186577 -19339.9 -3639.3 1529.3 -20316 -7.4145 
3273 1 39.079 8.201 3 6.02013 -146825 -159486 31975.8 -658.902 37811.7 -28591.3 -7.41697 
3274 1 38.358 6.98 3 6.02457 -141534 -153472 -15694.2 15418.2 -3301.86 -19018.2 -7.41416 
3275 1 39.054 5.745 3 6.02013 -145942 -158570 22276.6 -1224.85 34547.2 -25432.3 -7.41636 
3276 1 38.333 4.524 3 6.02457 -133276 -139284 -10715.8 2638.6 -8896.34 -18327.5 -7.41436 
3277 1 39.03 3.289 3 6.02169 -176958 -125138 13296.2 -89.8861 29757.6 -22936.1 -7.41588 
3278 1 38.308 2.068 3 6.02447 -126702 -127477 -4597.99 16558 -14917.4 -18332.6 -7.41408 
3279 1 39.005 0.833 3 6.02357 -128421 -136129 4862.14 668.615 23738.3 -21072.1 -7.41488 
3443 1 41.219 9.407 3 6.02426 -183589 -127670 41636.7 4255.05 41321.6 -34671.1 -7.41727 
3444 1 40.497 8.186 3 6.0234 -121228 -127468 -13834 12744.1 194.185 -25175.8 -7.41389 
3445 1 41.194 6.951 3 6.02426 -132243 -130434 31365.9 2456.56 38876.9 -32043 -7.41626 
3446 1 40.472 5.73 3 6.02303 -121605 -128196 -9659.11 13593.2 -5447.22 -24523.3 -7.4141 
3447 1 41.169 4.495 3 6.02441 -130522 -129500 21514.7 1443.97 34440.2 -29720.9 -7.41573 
3448 1 40.447 3.274 3 6.02172 -169893 -127689 -4442.25 13877 -11789.7 -24339.6 -7.41482 
3449 1 41.144 2.039 3 6.02401 -145684 -175963 12420.7 -27979.1 28453.5 -27898.9 -7.41573 
3450 1 40.423 0.819 3 6.01984 -141025 -168332 1877.6 -15881 -18501.7 -24788.9 -7.41517 
3614 1 42.636 9.393 3 6.02193 -176683 -159179 -11240.3 -1776.94 3242.5 -29468 -7.41493 
3615 1 43.333 8.158 3 6.02152 -141905 -147618 41458.5 -11231.7 42170.2 -36577.9 -7.41686 
3616 1 42.612 6.937 3 6.023 -136396 -159801 -7701.2 14177.1 -1923.02 -29270.7 -7.41479 
3617 1 43.308 5.702 3 6.02243 -147675 -159337 30954.9 -560.776 38550.3 -34901.6 -7.41682 
3618 1 42.587 4.481 3 6.02457 -137609 -158073 -2890.48 14333.1 -8354.32 -29268.6 -7.41525 
3619 1 43.283 3.246 3 6.02152 -142895 -159648 21185.4 1159.97 32969.9 -33447.3 -7.41652 
3620 1 42.562 2.025 3 6.02457 -142070 -158427 2878.86 14254.4 -15504.6 -29636.4 -7.41519 
3621 1 43.258 0.79 3 6.02394 -142630 -167485 12519.8 1878.01 25932.7 -32280.2 -7.41608 
3785 1 45.472 9.364 3 6.02597 -150447 -162386 52269 5498.56 44149.1 -38752.3 -7.41793 
3786 1 44.751 8.143 3 6.02243 -138058 -159058 -4695.36 10945.8 854.512 -31979.8 -7.41497 
3787 1 45.447 6.908 3 6.023 -145790 -163249 41162.4 3322.71 41770.5 -37839.4 -7.41749 
3788 1 44.726 5.687 3 6.02246 -132077 -144707 -441.79 -440.149 -5052.31 -32361.7 -7.41479 
3789 1 45.423 4.452 3 6.02426 -177327 -130321 31020.9 4440.13 37119.9 -36901.5 -7.41681 
3790 1 44.701 3.231 3 6.0234 -121604 -133928 4823.88 11506.1 -12202.8 -32782.2 -7.41473 
3791 1 45.398 1.996 3 6.02331 -133983 -166506 21896.1 -13114.9 30633 -36010.9 -7.41604 
3792 1 44.676 0.776 3 6.02271 -126655 -139505 11255.2 -16550.7 -19881 -33526.4 -7.4152 
12849 2 38.905 8.991 6.4 6.02219 -137240 -156117 -17862.1 34811.4 2138.16 -20835.4 -7.41413 
12850 2 38.209 7.755 6.4 6.02072 -147927 -157535 28526 18514.5 34139.8 -27144.7 -7.41678 
12851 2 38.93 6.535 6.4 6.0246 -149047 -186873 -14085.9 15612.7 -3531.72 -20026.7 -7.41456 
12852 2 38.234 5.3 6.4 6.02013 -144512 -160164 19250.8 -14183 30924.9 -23817.2 -7.41608 
12853 2 38.955 4.079 6.4 6.02457 -133849 -140385 -8797.07 10906.5 -10026.7 -19669 -7.41433 
12854 2 38.258 2.844 6.4 6.02172 -176982 -124275 10650.3 -14871.7 26380.8 -21121.6 -7.41574 
12855 2 38.98 1.623 6.4 6.02441 -125104 -127719 -2461.83 -1020.56 -16950.1 -19993.6 -7.41444 
12856 2 38.283 0.388 6.4 6.02357 -128076 -135214 2521.64 -10156.4 20927.5 -19245.9 -7.41475 
13020 2 40.323 9.005 6.4 6.02493 -145199 -142714 37988.7 -5889.72 38341.7 -33860.3 -7.41681 
13021 2 41.044 7.784 6.4 6.02338 -135827 -158791 -12251.9 -4924.02 -45.158 -26212.2 -7.41456 
13022 2 40.348 6.549 6.4 6.02597 -152931 -156525 27976.6 -17008 35415 -30816 -7.41633 
13023 2 41.069 5.328 6.4 6.02013 -136608 -156935 -7919.5 -476.414 -6540.28 -25950.2 -7.41499 
13024 2 40.373 4.093 6.4 6.02457 -147411 -156614 18490.2 -13555.3 30864.9 -28161.5 -7.41616 
13025 2 41.094 2.872 6.4 6.02243 -140485 -156586 -2213.3 1197.2 -13799.5 -25985.9 -7.41507 
13026 2 40.398 1.637 6.4 6.02257 -142388 -157433 9603.1 -15044.3 25091.6 -26090.3 -7.41587 
13027 2 41.119 0.416 6.4 6.02122 -146158 -164666 4451.22 -4792.53 -21310.7 -26568.5 -7.41523 
13191 2 43.159 9.034 6.4 6.02159 -120331 -131514 -9523.32 33046.6 2707.94 -30703 -7.41399 
13192 2 42.462 7.798 6.4 6.02159 -132164 -132822 37750.7 19905.6 39479.5 -36136.9 -7.41647 
13193 2 43.184 6.578 6.4 6.02332 -128853 -163260 -5768.62 14231.5 -3251.82 -30892 -7.41463 
13194 2 42.487 5.343 6.4 6.02447 -128751 -133543 27732.8 -13206 35393.2 -33922.1 -7.41593 
13195 2 43.209 4.122 6.4 6.02426 -122489 -128965 -800.168 -3049.29 -10372.7 -31074.8 -7.41478 
13196 2 42.512 2.887 6.4 6.02353 -138096 -144242 18283.7 1130.52 29671 -31989.3 -7.41575 
13197 2 43.233 1.666 6.4 6.02169 -137965 -161221 5158.37 -2434.16 -18073.3 -31491.6 -7.41556 
13198 2 42.537 0.431 6.4 6.023 -146970 -165430 9955.2 -8117.98 22847.4 -30522 -7.41551 