ITEM: TIMESTEP
0
ITEM: NUMBER OF ATOMS
18152
ITEM: BOX BOUNDS pp pp pp
0.0000000000000000e+00 1.1715644600000000e+02
0.0000000000000000e+00 2.0292091700000000e+02
0.0000000000000000e+00 1.8399999600000001e+01
ITEM: ATOMS id type x y z c_csym c_2[1] c_2[2] c_2[3] c_2[4] c_2[5] c_2[6] c_3 
1 1 0 0 7.5 6.04904 10572.2 10398.4 -64740.6 -33.9402 0.17475 0.18076 -7.41189 
2 1 2.14279 1.20733 7.5 6.04912 9875.41 11292.2 -62991.8 -1428.26 9157.46 -16220.4 -7.41198 
3 1 3.56271 1.19242 7.5 6.04918 11450.2 9106.41 -60909.3 2877.42 8737.24 -25425.6 -7.41209 
4 1 6.40256 1.16261 7.5 6.04918 9696.64 8895.49 -53228.4 -4111.87 8510.86 -42569.5 -7.41249 
5 1 7.82248 1.14771 7.5 6.04918 11005.3 6503.04 -49348.7 5962.84 5947.27 -45247.1 -7.41269 
56 1 0.0258168 2.45938 7.5 6.04906 8405.16 12219 -63063.8 -56.741 18317.9 54.7315 -7.41198 
57 1 1.44574 2.44447 7.5 6.04912 12099.3 8951.65 -62462.3 1293.88 18524.7 -10545.3 -7.412 
58 1 2.16861 3.66671 7.5 6.04912 7317.47 13027.9 -59713.9 -1126.46 25826.2 -15569.2 -7.41215 
59 1 3.58853 3.6518 7.5 6.0492 12407 7398.55 -57817.3 3366.09 25966.8 -24066.1 -7.41225 
60 1 4.28558 2.41466 7.5 6.04918 8658.46 11233.4 -57840.8 -2461.11 16984.8 -30570.4 -7.41225 
61 1 5.7055 2.39976 7.5 6.04918 11864.8 7171.66 -55062 4829.85 15901.1 -36400.2 -7.41239 
62 1 6.42837 3.62199 7.5 6.0492 7237.05 10646.4 -49768.9 -3276.34 22489 -41186.3 -7.41266 
63 1 7.8483 3.60709 7.5 6.0492 12075.2 5023.87 -47633 6843.07 20448.3 -42359.9 -7.41278 
64 1 8.54535 2.36994 7.5 6.04918 8417.49 8156.06 -44231.1 -4865.47 14489.8 -49669.8 -7.41295 
166 1 0.0516335 4.91875 7.5 6.04906 5502.37 13810.7 -58406.7 -111.207 33757.5 306.252 -7.41223 
167 1 1.47156 4.90385 7.5 6.04912 12621.5 7086.52 -57391.7 1527.5 34852.4 -10024.5 -7.41227 
168 1 2.19442 6.12608 7.5 6.04912 4195.7 14563.4 -53891.5 -901.122 38564.7 -14080.7 -7.41245 
169 1 3.61435 6.11118 7.5 6.0492 12646.4 5591.9 -51659.9 3787.45 39858.1 -21809.5 -7.41257 
170 1 4.3114 4.87404 7.5 6.0492 5820.48 12865.2 -53197.3 -1933.73 30917.5 -28728 -7.41249 
171 1 5.73132 4.85913 7.5 6.0492 12495.3 5494.7 -51070.6 5519.2 30677 -33446.1 -7.4126 
172 1 6.45419 6.08137 7.5 6.0492 4278.63 12279.6 -44170.8 -2590.21 32969.7 -37848 -7.41295 
173 1 7.87411 6.06646 7.5 6.0492 12523.1 3555.83 -43338.5 7548.04 32073.8 -37658.4 -7.413 
174 1 8.57116 4.82932 7.5 6.0492 5765.22 9846.13 -39600.8 -3957.46 25143.7 -46935.3 -7.41319 
276 1 0.0774503 7.37813 7.5 6.04906 2220.33 15254.5 -51625.9 -162.569 44242.3 672.638 -7.41258 
277 1 1.49737 7.36322 7.5 6.04912 12545.1 5192.81 -49423.1 1703.26 46786.4 -9244.47 -7.41268 
278 1 2.22024 8.58546 7.5 6.04912 910.395 15952.9 -46524.4 -741.457 45749.3 -11999.4 -7.41284 
279 1 3.64016 8.57055 7.5 6.0492 12445.3 3805.56 -43069 4050.41 48741.2 -18810.3 -7.41301 
280 1 4.33722 7.33341 7.5 6.0492 2633.05 14385.1 -46620.4 -1514.66 40221.1 -25603.7 -7.41283 
281 1 5.75714 7.31851 7.5 6.0492 12578.2 3858.86 -44470.8 5999.3 41410.6 -29191.1 -7.41294 
282 1 6.48001 8.54074 7.5 6.0492 1190.01 13832.6 -37357.6 -2083.8 38548.1 -33046.4 -7.41331 
283 1 7.89993 8.52584 7.5 6.0492 12584.2 2198.21 -36965.8 7949.68 39376.7 -31528.9 -7.41333 
284 1 8.59698 7.2887 7.5 6.0492 2837.99 11524.9 -33556.3 -3226.64 31908.8 -42164.4 -7.4135 
6 1 10.6623 1.1179 7.5 6.04918 9312.27 5643.55 -37504.7 -6604.17 7930.22 -53039.7 -7.4133 
7 1 12.0822 1.10299 7.5 6.04918 10413.1 3749.85 -33977 8458.99 1602.45 -47553.7 -7.41348 
8 1 14.9221 1.07318 7.5 6.04918 8841.35 3409.87 -21409.6 -8698.67 8011.86 -45916.2 -7.41412 
9 1 16.342 1.05828 7.5 6.04918 9835.54 2551.92 -20103.6 10141.3 -3391.78 -34754.5 -7.41419 
65 1 9.96527 2.35504 7.5 6.04918 11384.9 4378.24 -41713.2 7781.54 10408.7 -47248.1 -7.41309 
66 1 10.6881 3.57727 7.5 6.0492 7008.43 7360.84 -33654.4 -5528.99 17856.6 -51548 -7.41349 
67 1 12.1081 3.56237 7.5 6.0492 11658.6 2621.97 -34296.3 9402.6 12057.3 -43963 -7.41347 
68 1 12.8051 2.32523 7.5 6.04918 8034.41 5143.79 -27269 -7157 11982.5 -51113 -7.41382 
69 1 14.225 2.31032 7.5 6.04918 10855.6 2422.2 -27489.2 9842.21 3442.99 -41020.2 -7.41382 
70 1 14.9479 3.53256 7.5 6.0492 6696.87 4965.82 -16923.1 -7721.5 13860.3 -45028.6 -7.41435 
71 1 16.3678 3.51765 7.5 6.0492 11291.1 1832.99 -22646.3 10829.1 3031.7 -31322.3 -7.41406 
72 1 17.0649 2.28051 7.5 6.04918 7629.12 3767.12 -12402.8 -9082.3 10728.5 -37719 -7.41458 
175 1 9.99109 4.81442 7.5 6.0492 12228.4 3065.05 -39798.4 8668.29 21906.7 -42838.7 -7.41319 
176 1 10.714 6.03665 7.5 6.0492 4325.27 9084.51 -28342.8 -4627.86 24972.3 -47603.6 -7.41376 
177 1 12.1339 6.02175 7.5 6.0492 12416.6 1636.5 -32697.1 10113.1 20365.1 -38329.3 -7.41355 
178 1 12.8309 4.78461 7.5 6.0492 5620.76 6809.1 -22506 -6178.87 18719 -48569.8 -7.41406 
179 1 14.2509 4.7697 7.5 6.0492 11971.9 1558.01 -28118.2 10607.7 11074.3 -36418.6 -7.41379 
180 1 14.9737 5.99194 7.5 6.0492 4313.21 6635.78 -11698.5 -6889.1 17654.6 -41936.4 -7.41461 
181 1 16.3936 5.97703 7.5 6.0492 12393.1 1343 -23887.7 11283.2 8114.69 -26313.1 -7.414 
182 1 17.0907 4.73989 7.5 6.0492 5430.42 5231.68 -7226.76 -8319.72 14156.4 -36363.7 -7.41484 
285 1 10.0169 7.27379 7.5 6.0492 12619.1 1911.66 -35798.7 9247.37 30140.3 -36614.5 -7.41339 
286 1 10.7398 8.49603 7.5 6.0492 1570.99 10826.5 -22363.3 -3953.59 28213.1 -41827.8 -7.41407 
287 1 12.1597 8.48112 7.5 6.0492 12858.9 866.851 -29489.2 10453.5 25419.3 -31146.4 -7.41372 
288 1 12.8567 7.24398 7.5 6.0492 3036.04 8574.16 -16995.3 -5380.84 22515.8 -43894.9 -7.41434 
289 1 14.2767 7.22908 7.5 6.0492 12743.3 959.101 -27234.5 11038.2 16435.6 -30156.4 -7.41383 
290 1 14.9995 8.45131 7.5 6.0492 1928.73 8407.01 -6380.38 -6252.52 18697.8 -37246.5 -7.41488 
291 1 16.4195 8.43641 7.5 6.0492 13242.4 1133.75 -23935.6 11385.4 11113.5 -20190.9 -7.414 
292 1 17.1165 7.19927 7.5 6.0492 3167.48 6867.26 -1899.8 -7678.35 15557.9 -33413.5 -7.41511 
10 1 19.1819 1.02847 7.5 6.04918 8446.04 3240.14 -9538.42 -10141.4 9251.13 -28010.8 -7.41472 
11 1 20.6018 1.01356 7.5 6.04918 9453.82 3450.22 -11232.8 10904.6 -8119.71 -16152.1 -7.41463 
12 1 23.4416 0.983751 7.5 6.04918 8288.8 4731.68 -3501 -10729.2 11785.1 -10249.4 -7.415 
13 1 24.8615 0.968845 7.5 6.04918 9414.91 5539.47 -7663.69 10783.8 -11954.8 -2322.71 -7.41478 
73 1 18.4848 2.26561 7.5 6.04918 10443.4 2499.61 -16863.8 10884 -3367.06 -24086.5 -7.41435 
74 1 19.2077 3.48784 7.5 6.0492 6408.61 4472.39 -4189 -9509.72 12186.6 -28217.9 -7.41499 
75 1 20.6276 3.47294 7.5 6.0492 11123.4 3126.46 -15736.1 11156.9 -4538.41 -13486.1 -7.4144 
76 1 21.3246 2.2358 7.5 6.04918 7351.15 4366.36 -2936.88 -10326 11553.3 -18971.9 -7.41504 
77 1 22.7446 2.22089 7.5 6.04918 10309.4 4365.42 -11623 10961.1 -8744.15 -7042.86 -7.41459 
78 1 23.4674 3.44313 7.5 6.0492 6272.16 5517.99 2840.26 -10517.9 13591.8 -11628.9 -7.41533 
79 1 24.8874 3.42822 7.5 6.0492 11272.5 5539.06 -13563.2 10617.8 -9430.7 -626.287 -7.41448 
80 1 25.5844 2.19108 7.5 6.04918 7338.13 5941.33 1138.48 -10656.7 14506.1 -5358.72 -7.41523 
81 1 27.0043 2.17618 7.5 6.04918 10549 6580.42 -10421.2 10274.2 -12149.7 1272.45 -7.41462 
183 1 18.5106 4.72498 7.5 6.0492 11842.9 2071.9 -19916.3 11289 1044.44 -20364.8 -7.4142 
184 1 19.2335 5.94722 7.5 6.0492 4259.85 5862.62 1347.24 -8953.54 13711.4 -27044.6 -7.41527 
185 1 20.6534 5.93231 7.5 6.0492 12537.3 3036.5 -19338.4 11223.9 -1598.47 -10142.5 -7.41421 
186 1 21.3505 4.69517 7.5 6.0492 5280.05 5440 2967.91 -9935.07 13156.6 -19314.3 -7.41535 
187 1 22.7704 4.68027 7.5 6.0492 11955.5 4284.58 -16522.4 10942.4 -6053.39 -4743.6 -7.41434 
188 1 23.4933 5.9025 7.5 6.0492 4236.77 6436.04 9120.27 -10302.4 14392.7 -12663.1 -7.41565 
189 1 24.9132 5.8876 7.5 6.0492 12913.7 5694.45 -18678.2 10346.2 -7085.36 804.036 -7.41421 
190 1 25.6102 4.65046 7.5 6.0492 5280.45 6516.52 7993.94 -10626.2 15991.1 -7266.31 -7.41558 
191 1 27.0301 4.63555 7.5 6.0492 12367.9 6718.88 -16388.7 9949.07 -9484.01 2216.68 -7.41431 
293 1 18.5364 7.18436 7.5 6.0492 12984.1 1949.2 -21893.8 11401.3 4149.29 -15670.8 -7.41409 
294 1 19.2593 8.4066 7.5 6.0492 2175.77 7389.42 6557.85 -8501.06 13431.5 -24961.5 -7.41553 
295 1 20.6792 8.39169 7.5 6.0492 13728.7 3216.78 -21981.6 11026.8 250.99 -6450.65 -7.41407 
296 1 21.3763 7.15455 7.5 6.0492 3232.94 6691.71 8665.87 -9569.76 13408.5 -18963.2 -7.41564 
297 1 22.7962 7.13964 7.5 6.0492 13384.5 4464.43 -20543.4 10720 -3941.68 -2368.87 -7.41413 
298 1 23.5191 8.36188 7.5 6.0492 2315.18 7472.35 14920 -10077.8 13975.3 -13621 -7.41595 
299 1 24.939 8.34697 7.5 6.0492 14318.9 6038.41 -22853.1 9933.98 -5198 1821.81 -7.41399 
300 1 25.636 7.10983 7.5 6.0492 3302.95 7223.18 14590.7 -10529.1 16457.9 -9375.49 -7.41593 
14 1 27.7014 0.939035 7.5 6.04918 8479.74 6419.39 -1697.71 -10408.6 15306.9 -1583.89 -7.41507 
15 1 29.1213 0.924129 7.5 6.04918 9776.45 7161.91 -6916.77 9947.14 -14711.3 413.63 -7.41479 
16 1 31.9611 0.894319 7.5 6.04918 9034.81 6794.98 -724.925 -9316.53 19189.2 -4846.04 -7.4151 
17 1 33.3811 0.879413 7.5 6.04918 10479.8 6994.21 -5485.87 8647.22 -16596.7 -7592 -7.41484 
82 1 27.7272 3.39841 7.5 6.0492 6400.36 6743.95 5611.49 -10525.4 17672.3 -3803.46 -7.41545 
83 1 29.1471 3.38351 7.5 6.0492 11766.2 7375.82 -13563.3 9539.68 -11577.2 1312.13 -7.41444 
84 1 29.8442 2.14636 7.5 6.04918 7667.4 6922.88 2495.47 -10044.7 18887.7 -2937.51 -7.41528 
85 1 31.2641 2.13146 7.5 6.04918 11147.3 7509.13 -10006 9101.26 -13824.9 -2056.51 -7.41462 
86 1 31.987 3.3537 7.5 6.0492 6843.22 6759.14 7380.81 -9574.25 23150.4 -7331.85 -7.41552 
87 1 33.4069 3.33879 7.5 6.0492 12517.1 7310.27 -12349.3 8237.31 -11847.9 -7107.81 -7.41448 
88 1 34.1039 2.10165 7.5 6.04918 8321.05 6195.25 4623.39 -8686.19 23597.9 -11083.7 -7.41537 
89 1 35.5239 2.08674 7.5 6.04918 11974.8 6310.64 -7197.25 7713.52 -14513.1 -13625 -7.41475 
192 1 27.753 5.85779 7.5 6.0492 4346.2 7126.93 12926.8 -10578.7 19159.4 -6534.53 -7.41583 
193 1 29.1729 5.84288 7.5 6.0492 13516.8 7624.77 -19309.7 9119.48 -8441.08 1298.81 -7.41415 
194 1 29.87 4.60574 7.5 6.0492 5525.65 7029.9 10342.4 -10239.3 21553 -5761.26 -7.41569 
195 1 31.2899 4.59084 7.5 6.0492 13037.5 7742.95 -16335.1 8695.93 -9917.83 -1957.56 -7.41429 
196 1 32.0128 5.81307 7.5 6.0492 4673.33 6703.07 15786.5 -9748.91 26125.5 -10752.3 -7.41597 
197 1 33.4327 5.79817 7.5 6.0492 14243 7549.64 -18096.2 7904.95 -7165.09 -7717.68 -7.41419 
198 1 34.1298 4.56103 7.5 6.0492 6047.04 5986.97 13319.4 -8927.05 27973.2 -13969.9 -7.41583 
199 1 35.5497 4.54612 7.5 6.0492 13818.4 6554.87 -13449 7453.33 -8878.71 -13722.3 -7.41442 
301 1 27.056 7.09493 7.5 6.0492 13956.2 7011.56 -21438.8 9531.21 -7013.5 2490.79 -7.41405 
302 1 27.7788 8.31716 7.5 6.0492 2433.53 7578.75 19880.1 -10528.9 19601.6 -9845.18 -7.4162 
303 1 29.1988 8.30226 7.5 6.0492 14976.6 7944.3 -23984.7 8686.58 -5548.3 400.83 -7.4139 
304 1 29.8958 7.06512 7.5 6.0492 3483.27 7200.6 18144.1 -10308.2 23198 -9364.91 -7.4161 
305 1 31.3157 7.05021 7.5 6.0492 14636 8009.6 -21573.7 8306.65 -6165.73 -2880.68 -7.41401 
306 1 32.0386 8.27245 7.5 6.0492 2648.88 6666.94 24146 -9772.54 27883.2 -15026.5 -7.41641 
307 1 33.4585 8.25754 7.5 6.0492 15595.6 7754.24 -22616.6 7666.82 -2868.5 -9269.78 -7.41395 
308 1 34.1556 7.0204 7.5 6.0492 3857.17 5789.65 22337.1 -9031.4 31082.7 -17762.2 -7.41631 
309 1 35.5755 7.0055 7.5 6.0492 15279 6744.31 -18444.7 7298.55 -3619.29 -14755.6 -7.41416 
18 1 36.2209 0.849603 7.5 6.04918 9859.31 5199.59 2589.95 -7734.18 22742.1 -16447.1 -7.41526 
19 1 37.6408 0.834697 7.5 6.04918 11364.1 4766.09 -779.216 7144.17 -18013.4 -20710.1 -7.41508 
20 1 40.4807 0.804887 7.5 6.04918 10784.5 2047.84 9656.93 -5977.2 25466.5 -29284.5 -7.41563 
21 1 41.9006 0.789981 7.5 6.04918 12232.6 1221.96 7747.35 5628.34 -19321.5 -31655.8 -7.41553 
22 1 44.7404 0.760171 7.5 6.04918 11632.1 -1610.68 19707.3 -4283.48 27182.4 -36613.4 -7.41616 
90 1 36.2467 3.30898 7.5 6.0492 7560.94 4977.14 11238.1 -7945.76 28485.6 -18620.3 -7.41571 
91 1 37.6667 3.29407 7.5 6.0492 13346.7 5100.49 -7570.07 6923.64 -11496.9 -20251.3 -7.41472 
92 1 38.3637 2.05693 7.5 6.04918 9186.49 3671.08 9939.75 -6916.53 27603.3 -24013 -7.41564 
93 1 39.7836 2.04203 7.5 6.04918 12835.8 3288.73 -470.511 6300.3 -15032.4 -26505.2 -7.41509 
94 1 40.5065 3.26426 7.5 6.0492 8432.47 1810.62 18598.1 -6029.69 32496.8 -30757.4 -7.4161 
95 1 41.9264 3.24936 7.5 6.0492 14061.3 1540.3 1071.77 5669.55 -11558 -30990.8 -7.41518 
96 1 42.6235 2.01222 7.5 6.04918 10096.8 144.929 18778.3 -5074.41 30300.9 -34450.7 -7.41611 
97 1 44.0434 1.99731 7.5 6.04918 13551 -488.377 9539.15 4934.99 -15906.7 -34046.5 -7.41563 
98 1 44.7663 3.21955 7.5 6.0492 9300.75 -1749.5 28759.9 -4168.66 34723.6 -37275.5 -7.41664 
200 1 36.2725 5.76836 7.5 6.0492 5238.87 4685.57 20569.7 -8095.97 32993 -21674.7 -7.41621 
201 1 37.6925 5.75345 7.5 6.0492 14915.8 5299.74 -13071.4 6855.18 -5279.16 -20653.9 -7.41444 
202 1 38.3895 4.51631 7.5 6.0492 6793.07 3350.99 19232.6 -7063.55 33456.9 -26241.6 -7.41613 
203 1 39.8094 4.5014 7.5 6.0492 14517.8 3515.2 -6529.32 6314.34 -7946.33 -26305 -7.41478 
204 1 40.5323 5.72364 7.5 6.0492 5982.08 1504.25 28569.4 -6069.71 38003.7 -32730.8 -7.41663 
205 1 41.9522 5.70873 7.5 6.0492 15366.2 1735.17 -4278.49 5907.87 -4390.53 -30746.6 -7.41491 
206 1 42.6493 4.47159 7.5 6.0492 7640.59 -112.43 28404.5 -5072.09 36945.9 -35659.7 -7.41662 
207 1 44.0692 4.45669 7.5 6.0492 14983.5 -257.408 3549.73 5209.36 -8087.92 -33382.5 -7.41532 
208 1 44.7921 5.67892 7.5 6.0492 6781.35 -1915.85 39079.1 -4093.41 40501.4 -37978.9 -7.41718 
310 1 36.2984 8.22773 7.5 6.0492 3043.29 4391.64 30251.6 -8099.29 35902.5 -25455.9 -7.41673 
311 1 37.7183 8.21283 7.5 6.0492 16020.5 5413.37 -17293.5 6952.85 183.101 -21704.9 -7.41422 
312 1 38.4153 6.97569 7.5 6.0492 4437.3 3027.74 29238.3 -7104.83 37684.9 -29115.5 -7.41667 
313 1 39.8353 6.96078 7.5 6.0492 15714.6 3666.88 -11289.5 6491.63 -1592.7 -26657.8 -7.41454 
314 1 40.5581 8.18302 7.5 6.0492 3619.03 1208.97 39260.5 -6004.01 41475.3 -35047.9 -7.4172 
315 1 41.9781 8.16811 7.5 6.0492 16125.1 1865.91 -8467.16 6343.53 1573.47 -30706.5 -7.4147 
316 1 42.6751 6.93097 7.5 6.0492 5155.25 -347.461 39061.3 -5016.73 41612.1 -37073.1 -7.41719 
317 1 44.095 6.91606 7.5 6.0492 15838.3 -51.8586 -1261.53 5666.82 -1376.83 -32831.7 -7.41508 
318 1 44.8179 8.1383 7.5 6.0492 4296.04 -2028.84 50393.4 -3965.58 43867.5 -38612 -7.41779 
23 1 46.1604 0.745266 7.5 6.04918 12929.7 -2476.69 18607.2 4186.51 -20681 -34965.4 -7.41611 
24 1 49.0002 0.715455 7.5 6.04918 12277.5 -4758.12 30396.9 -2758.34 27993.6 -34749.1 -7.41674 
25 1 50.4201 0.70055 7.5 6.04918 13389.2 -5404.61 29137.4 2817.03 -22030.4 -28743.8 -7.41668 
26 1 53.26 0.670739 7.5 6.04918 12676.7 -6827.64 38893.9 -1395.51 28140.7 -23761.5 -7.41719 
99 1 46.1862 3.20464 7.5 6.0492 14537.7 -2168.37 11937.2 4424.81 -12457 -34084.4 -7.41577 
100 1 46.8832 1.9675 7.5 6.04918 10893.9 -3307.14 29507.7 -3386.71 31631.3 -37071.9 -7.41668 
101 1 48.3032 1.9526 7.5 6.04918 14028 -3895.75 20575.9 3596.65 -17206.7 -32557.3 -7.41623 
102 1 49.026 3.17483 7.5 6.0492 10025.5 -4765.61 39461.2 -2555.47 35415.3 -34732.6 -7.41721 
103 1 50.446 3.15993 7.5 6.0492 14771.5 -5084.22 22346.4 3097.57 -13969.7 -27817.4 -7.41633 
104 1 51.143 1.92279 7.5 6.04918 11474.9 -5901.68 39430.3 -1931.69 31938.8 -30171.6 -7.41721 
105 1 52.5629 1.90788 7.5 6.04918 14279.9 -6255.49 29819.1 2232.53 -18634.3 -22020.3 -7.41673 
106 1 53.2858 3.13012 7.5 6.0492 10518.2 -6731.4 47925.8 -1219.47 35220.3 -23323.8 -7.41766 
209 1 46.212 5.66402 7.5 6.0492 15523.3 -1911.18 6481.56 4868.46 -5102.47 -33229.3 -7.41549 
210 1 46.9091 4.42688 7.5 6.0492 8442.89 -3411.36 39264.8 -3270.31 38352.7 -37302.3 -7.41719 
211 1 48.329 4.41197 7.5 6.0492 15180.8 -3620.67 14460.2 3993.65 -9381.67 -31593.7 -7.41592 
212 1 49.0518 5.63421 7.5 6.0492 7497.76 -4736.68 49908.1 -2425.19 40928.1 -34447.6 -7.41776 
213 1 50.4718 5.6193 7.5 6.0492 15456.4 -4718.8 16580.7 3551.66 -6968.92 -26750.6 -7.41604 
214 1 51.1688 4.38216 7.5 6.0492 9074.46 -5848.55 49198.2 -1791.31 38339.2 -29747 -7.41772 
215 1 52.5887 4.36726 7.5 6.0492 15198.5 -5917.08 23467.5 2561.56 -11187.7 -21109.5 -7.41641 
216 1 53.3116 5.58949 7.5 6.0492 8016.13 -6539.69 58374 -1119.11 40348.6 -22569.5 -7.41821 
319 1 46.2378 8.1234 7.5 6.0492 15901.3 -1636.05 1919.3 5500.42 642.679 -32219.4 -7.41526 
320 1 46.9349 6.88625 7.5 6.0492 5887.82 -3439.74 50254.6 -3148.23 42830.4 -37356.3 -7.41778 
321 1 48.3548 6.87135 7.5 6.0492 15684.4 -3275.79 9286.34 4553.27 -2968.17 -30469.6 -7.41566 
322 1 49.0777 8.09358 7.5 6.0492 4947.41 -4598.35 61516.3 -2284.07 43777.8 -33848.4 -7.41838 
323 1 50.4976 8.07868 7.5 6.0492 15494.2 -4230.76 11386.2 4146.68 -1867.32 -25419.4 -7.41578 
324 1 51.1946 6.84154 7.5 6.0492 6501.61 -5660.41 60296.5 -1670.22 42352.9 -28992.9 -7.41831 
325 1 52.6146 6.82663 7.5 6.0492 15421.4 -5412.63 17812.9 2995.65 -5336.99 -20038.8 -7.41613 
326 1 53.3374 8.04887 7.5 6.0492 5443.31 -6190.92 70062.9 -1026.71 42701.4 -21516.5 -7.41883 
27 1 54.6799 0.655834 7.5 6.04918 13628.3 -7151.03 36600 1483.36 -23181.1 -14545.4 -7.41708 
28 1 57.5197 0.626023 7.5 6.04918 12843.2 -7687.24 42902 -131.138 27845.7 -6651.81 -7.41741 
29 1 58.9397 0.611118 7.5 6.04918 13693 -7676.51 39069.4 157.208 -23946.2 3771.91 -7.41722 
30 1 61.7795 0.581307 7.5 6.04918 12798.6 -7364.34 41327.9 1107.19 27227.9 11997.3 -7.41733 
107 1 54.7057 3.11521 7.5 6.0492 14850.5 -6810.64 29647.3 1639.87 -15485.6 -13810.4 -7.41673 
108 1 55.4028 1.87807 7.5 6.04918 11802.6 -7333.37 45885.1 -669.55 31693.2 -15465.3 -7.41756 
109 1 56.8227 1.86316 7.5 6.04918 14378.8 -7384.78 34891.2 820.696 -19761.7 -5314.25 -7.417 
110 1 57.5456 3.0854 7.5 6.0492 10743.3 -7544.58 51880.9 -72.7154 34769.5 -6035.86 -7.41787 
111 1 58.9655 3.07049 7.5 6.0492 14876.4 -7329.61 32018.1 91.0199 -16401.8 4137.79 -7.41686 
112 1 59.6625 1.83335 7.5 6.04918 11877.9 -7593 47119.6 498.848 31230.7 3109.76 -7.41763 
113 1 61.0825 1.81845 7.5 6.04918 14379.2 -7315.41 34518.3 -613.374 -20277.8 13079.3 -7.41698 
114 1 61.8053 3.04068 7.5 6.0492 10691.5 -7236.59 50241 1026.87 34359.7 12668.6 -7.41779 
217 1 54.7315 5.57459 7.5 6.0492 15331.8 -6348.93 23557.9 1904.14 -8930.94 -13034.7 -7.41643 
218 1 55.4286 4.33745 7.5 6.0492 9455.62 -7178.39 55608.8 -599.515 37813.5 -14783 -7.41806 
219 1 56.8485 4.32254 7.5 6.0492 15177.9 -7005.15 28349.7 927.419 -12619.6 -4789.87 -7.41667 
220 1 57.5714 5.54478 7.5 6.0492 8263.58 -7275.53 62277.9 -68.0532 39785.8 -5274.82 -7.41842 
221 1 58.9913 5.52987 7.5 6.0492 15307.6 -6837.61 25783.2 49.8085 -9971.38 4291.7 -7.41655 
222 1 59.6884 4.29273 7.5 6.0492 9549.83 -7417.05 56781.1 447.503 37415.6 3781.38 -7.41813 
223 1 61.1083 4.27782 7.5 6.0492 15211.6 -6942.96 27942 -776.938 -13054.5 13073.5 -7.41665 
224 1 61.8311 5.50006 7.5 6.0492 8209.29 -6993.64 60573.2 922.209 39688.1 13253.8 -7.41833 
327 1 54.7573 8.03396 7.5 6.0492 15146.2 -5680.81 17792.9 2234.09 -4421.55 -12158 -7.41614 
328 1 55.4544 6.79682 7.5 6.0492 6889.33 -6846.51 66696.4 -548.099 41521.8 -13873.5 -7.41865 
329 1 56.8743 6.78192 7.5 6.0492 15261.1 -6403.72 22365.1 1056.73 -7126.55 -4333.05 -7.41638 
330 1 57.5972 8.00415 7.5 6.0492 5687.32 -6826.44 73943.2 -69.7973 42035.8 -4439.67 -7.41903 
331 1 59.0171 7.98925 7.5 6.0492 15068.5 -6114.11 19803.6 -14.1139 -5592.11 4230.75 -7.41625 
332 1 59.7142 6.75211 7.5 6.0492 6987.72 -7055.56 67812.7 394.572 41257.9 4433.5 -7.41871 
333 1 61.1341 6.7372 7.5 6.0492 15332.9 -6357.77 21953.7 -1005.45 -7413.19 12715.4 -7.41635 
334 1 61.857 7.95944 7.5 6.0492 5633.05 -6580.58 72170.3 819.485 42357.2 13639.7 -7.41894 
442 1 59.74 9.21148 7.5 6.0492 4463.79 -6528.21 79968.8 339.06 42113.3 4964.89 -7.41935 
443 1 61.1599 9.19658 7.5 6.0492 14865.9 -5557.64 15962.6 -1298.09 -4091.22 11977.7 -7.41605 
31 1 63.1994 0.566402 7.5 6.04918 13599.2 -7008.42 35935.4 -1177.53 -24220.4 21341 -7.41705 
32 1 66.0393 0.536591 7.5 6.04918 12538.7 -5838.04 34548.6 2385.31 26309.7 27268.8 -7.41696 
33 1 67.4592 0.521686 7.5 6.04918 13313.4 -5116.37 28046.6 -2548.5 -23975.4 33442.1 -7.41662 
34 1 70.299 0.491875 7.5 6.04918 12041 -3116.92 24318.9 3760.69 25070.5 35060 -7.41641 
35 1 71.719 0.47697 7.5 6.04918 12788.2 -2085.91 17518.9 -4002.92 -23203.8 36720.5 -7.41605 
115 1 63.2252 3.02578 7.5 6.0492 14878.3 -6672.87 28890.1 -1451.86 -16439.1 21296.6 -7.41669 
116 1 63.9223 1.78864 7.5 6.04918 11704.5 -6691.63 42767.5 1685.66 30627 20709.7 -7.41739 
117 1 65.3422 1.77373 7.5 6.04918 14266.6 -6038.45 28821.6 -2032.84 -20115.3 28272.6 -7.41667 
118 1 66.0651 2.99597 7.5 6.0492 10363.8 -5780.37 43393.4 2225.97 33861 28026.8 -7.41742 
119 1 67.485 2.98106 7.5 6.0492 14791 -4791.25 21064.5 -2909.35 -15735.2 33078.1 -7.41626 
120 1 68.1821 1.74392 7.5 6.04918 11276.9 -4592.45 33938 2991.11 29728.9 32726.1 -7.41692 
121 1 69.602 1.72902 7.5 6.04918 13968.4 -3535.89 19299.2 -3437.64 -19418.2 36097.1 -7.41616 
122 1 70.3249 2.95125 7.5 6.0492 9775.59 -3166.21 33100 3635.22 32850.7 36047.5 -7.41687 
123 1 71.7448 2.93635 7.5 6.0492 14502.3 -1748.1 10565.3 -4280.3 -14702.6 36182.4 -7.41569 
225 1 63.2511 5.48515 7.5 6.0492 15429.2 -6231.51 22754.8 -1778.48 -9655.4 20832.9 -7.41638 
226 1 63.9481 4.24801 7.5 6.0492 9349.18 -6576.6 52363.4 1531.55 37222.4 21344 -7.41789 
227 1 65.368 4.23311 7.5 6.0492 15275.4 -5711.7 22355.7 -2385.86 -12431.9 27838.4 -7.41635 
228 1 66.0909 5.45534 7.5 6.0492 7858.44 -5655.92 53648.5 2058.85 39752.4 28599.4 -7.41796 
229 1 67.5108 5.44044 7.5 6.0492 15597.3 -4445.08 15178 -3374.38 -8311.37 32311.7 -7.41597 
230 1 68.2079 4.2033 7.5 6.0492 8868.86 -4600.88 43460.8 2815.58 36774.3 33522.7 -7.41742 
231 1 69.6278 4.18839 7.5 6.0492 15243.3 -3254.91 12972.2 -3807.9 -11223.6 35501.4 -7.41583 
232 1 70.3507 5.41063 7.5 6.0492 7254.39 -3216.34 43230 3492.58 39142.6 37003.4 -7.4174 
233 1 71.7706 5.39572 7.5 6.0492 15630.8 -1482.13 4884.72 -4674.92 -6797.5 35546.1 -7.4154 
335 1 63.2769 7.94453 7.5 6.0492 15320 -5602.75 17013.3 -2211.37 -4805.78 19887 -7.4161 
336 1 63.9739 6.70739 7.5 6.0492 6781.99 -6304.57 63318 1390.44 41616.5 21755.1 -7.41847 
337 1 65.3939 6.69249 7.5 6.0492 15604.1 -5242.24 16665.7 -2876.73 -6164.43 26914 -7.41606 
338 1 66.1167 7.91472 7.5 6.0492 5289.33 -5402.11 65126.8 1890.23 43173.5 28837 -7.41857 
339 1 67.5366 7.89982 7.5 6.0492 15770.7 -4005.78 9973.52 -4008.72 -2599.86 31026.2 -7.41571 
340 1 68.2337 6.66267 7.5 6.0492 6301.52 -4508.42 54288.9 2647.38 41817.8 34101.3 -7.41799 
341 1 69.6536 6.64777 7.5 6.0492 15894.5 -2932.5 7679.62 -4356.95 -4202.38 34557 -7.41557 
342 1 70.3765 7.87 7.5 6.0492 4719.54 -3193.27 54472.3 3322.47 43228.7 37744.5 -7.418 
343 1 71.7964 7.8551 7.5 6.0492 16174.3 -1227.4 205.927 -5269.05 -295.952 34653 -7.41517 
446 1 63.9997 9.16677 7.5 6.0492 4264.22 -5889.38 75371.8 1242.73 43171.8 21794.2 -7.41911 
447 1 65.4197 9.15186 7.5 6.0492 15347 -4633.81 11233.6 -3505.86 -2048.9 25404.9 -7.41579 
450 1 68.2595 9.12205 7.5 6.0492 3813.04 -4318.55 66132.8 2452.34 44263 34267.8 -7.41862 
451 1 69.6794 9.10715 7.5 6.0492 15973.8 -2579.09 3025.11 -5096.72 943.652 33107.7 -7.41534 
36 1 74.5588 0.447159 7.5 6.04918 11309.9 475.564 13308.5 5270.8 23491.8 33356.1 -7.41582 
37 1 75.9787 0.432254 7.5 6.04918 12025.8 1585.1 7160.92 -5576.24 -21873.8 30548.2 -7.4155 
38 1 78.8186 0.402443 7.5 6.04918 10420.7 4109.9 4249.18 6889.09 21566.8 23446.7 -7.41534 
39 1 80.2385 0.387538 7.5 6.04918 11119.3 4906.62 -486.969 -7231.21 -19942.7 18008.1 -7.4151 
124 1 72.4418 1.69921 7.5 6.04918 10604.6 -1412.69 22931.8 4480.66 28289.7 35959.1 -7.41633 
125 1 73.8618 1.6843 7.5 6.04918 13419.7 -66.6332 8481.14 -4871.14 -18399.7 34398.6 -7.41557 
126 1 74.5846 2.90654 7.5 6.0492 8981 319.748 22011 5288.75 30881.7 34730.9 -7.41628 
127 1 76.0045 2.89163 7.5 6.0492 13943.3 1955.18 147.081 -5632.64 -13753.8 29933.6 -7.41513 
128 1 76.7016 1.65449 7.5 6.04918 9749.34 2296.57 12563.9 6147.54 26127.7 29915.7 -7.41578 
129 1 78.1215 1.63958 7.5 6.04918 12635.9 3593.26 -814.192 -6376 -17190.3 24319.3 -7.41508 
130 1 78.8444 2.86182 7.5 6.0492 8092.42 3908.1 12795.3 7093.47 27756.9 25273.1 -7.41579 
131 1 80.2643 2.84691 7.5 6.0492 13157.1 5289.93 -7600.7 -7033.27 -13042.4 17293.4 -7.41472 
132 1 80.9614 1.60977 7.5 6.04918 8842.25 5528.41 5146.1 7869.63 23241.3 17725.2 -7.41539 
234 1 72.4676 4.15858 7.5 6.0492 8158.81 -1568.05 32343.7 4387.97 35372.5 37212.9 -7.41683 
235 1 73.8876 4.14368 7.5 6.0492 14974.1 199.485 2187.36 -5074.58 -10121.9 33902 -7.41525 
236 1 74.6104 5.36591 7.5 6.0492 6485.94 106.031 31899.2 5252.03 36975.9 36460.2 -7.4168 
237 1 76.0304 5.35101 7.5 6.0492 15380.8 2193.91 -5525.73 -5780.43 -5996.13 29713.2 -7.41484 
238 1 76.7274 4.11387 7.5 6.0492 7318.08 2035.82 21764.9 6209.11 32492.1 31830.9 -7.41627 
239 1 78.1473 4.09896 7.5 6.0492 14414 3874.8 -7225.22 -6302.75 -9620.88 24003.2 -7.41475 
240 1 78.8702 5.3212 7.5 6.0492 5683.71 3628.23 22242.4 7193.68 32849.4 27904.7 -7.41629 
241 1 80.2901 5.30629 7.5 6.0492 14825.3 5547.2 -13463.7 -6869.97 -6287.6 17421.9 -7.41442 
242 1 80.9872 4.06915 7.5 6.0492 6490.95 5280.23 13955.9 8074.96 28131.7 20257.8 -7.41586 
344 1 72.4935 6.61796 7.5 6.0492 5624.73 -1683.81 42923.1 4271.97 40702.1 38518.8 -7.41739 
345 1 73.9134 6.60305 7.5 6.0492 15986.2 421.875 -2862.65 -5458.99 -2722.5 33464.8 -7.41499 
346 1 74.6363 7.82529 7.5 6.0492 4033.97 -86.8484 42685.9 5143.8 41192.7 38336.4 -7.41738 
347 1 76.0562 7.81038 7.5 6.0492 16304.4 2354.6 -9971.57 -6119.41 726.926 29711.1 -7.41462 
348 1 76.7532 6.57324 7.5 6.0492 4872.51 1773.56 31880.4 6199.43 37384.6 34239.3 -7.41681 
349 1 78.1732 6.55834 7.5 6.0492 15748.1 4079.8 -12326.4 -6374.18 -2616.19 24253.4 -7.41448 
350 1 78.896 7.78057 7.5 6.0492 3369.28 3343.48 32265.1 7175.1 36421.5 31133 -7.41683 
351 1 80.3159 7.76567 7.5 6.0492 16068 5724.92 -18044.8 -6851.47 -188.512 18239.6 -7.41419 
352 1 81.013 6.52853 7.5 6.0492 4185.9 5030.24 23325.2 8165.78 31823.5 23681.5 -7.41636 
454 1 72.5193 9.07733 7.5 6.0492 3207.42 -1755.31 54347.3 4088.24 43764.4 39641.9 -7.418 
455 1 73.9392 9.06243 7.5 6.0492 16460.2 580.187 -6913.3 -6053.51 3173.9 32886.6 -7.41479 
458 1 76.779 9.03262 7.5 6.0492 2578.72 1513.42 42563.9 6073.65 40409.4 36884.1 -7.41738 
459 1 78.199 9.01771 7.5 6.0492 16601.4 4179.12 -16205.3 -6638.52 3317.46 24862 -7.41429 
462 1 81.0388 8.9879 7.5 6.0492 2056.24 4769.18 32898 8103.44 34052.3 27758.3 -7.41687 
40 1 83.0783 0.357727 7.5 6.04918 9528.02 6651.79 -1162.33 8486.55 19287.9 10280.2 -7.41507 
41 1 84.4983 0.342822 7.5 6.04918 10242.1 6758.39 -4271.23 -8810.6 -17418.1 5510.02 -7.41491 
42 1 87.3381 0.313011 7.5 6.04918 8822.01 7257.17 -3183.53 9830.24 16648.4 1047.77 -7.41498 
43 1 88.758 0.298106 7.5 6.04918 9585.26 6564.15 -5179.02 -10053.4 -14416.2 395.354 -7.41488 
133 1 82.3813 1.59487 7.5 6.04918 11741.1 6288.97 -6554.86 -7918.75 -15757.9 10742.4 -7.41478 
134 1 83.1042 2.8171 7.5 6.0492 7270.44 6526.8 7054.24 8813.5 23700.1 12458.2 -7.4155 
135 1 84.5241 2.8022 7.5 6.0492 12300.5 7079.8 -11366.2 -8460.37 -12338.3 4546.38 -7.41454 
136 1 85.2211 1.56506 7.5 6.04918 8060.74 7229.93 1421.25 9404.06 19851.6 5709.32 -7.41521 
137 1 86.641 1.55015 7.5 6.04918 10930.3 7058.67 -8525.21 -9346.48 -13923.5 945.032 -7.4147 
138 1 87.3639 2.77239 7.5 6.0492 6679.13 7364.62 4445.38 10112.9 19360.4 3314.06 -7.41538 
139 1 88.7838 2.75748 7.5 6.0492 11579.4 6706.46 -11929.3 -9760.06 -11087.8 -1022.33 -7.41453 
140 1 89.4809 1.52034 7.5 6.04918 7570.4 6965.53 -18.5662 10441.7 16367.2 988.813 -7.41516 
243 1 82.4071 4.05424 7.5 6.0492 13643.1 6573.3 -13127.3 -7592.31 -9693.98 10421.3 -7.41444 
244 1 83.13 5.27648 7.5 6.0492 4997.23 6355.38 15806.4 8995.68 27185.1 15705.9 -7.41596 
245 1 84.5499 5.26158 7.5 6.0492 14085.6 7348.71 -17423.2 -8070.03 -7245.56 4560.88 -7.41422 
246 1 85.2469 4.02443 7.5 6.0492 5834.12 7166.46 9599.83 9641.93 22953.9 8513.92 -7.41564 
247 1 86.6669 4.00953 7.5 6.0492 12845.7 7275.33 -15067.6 -8926.16 -9710.63 212.701 -7.41436 
248 1 87.3897 5.23176 7.5 6.0492 4546.67 7503.86 12269.2 10238.3 21235.7 6506.53 -7.41579 
249 1 88.8097 5.21686 7.5 6.0492 13357.4 6914.35 -17859.8 -9347.37 -7696.06 -1824.39 -7.41423 
250 1 89.5067 3.97972 7.5 6.0492 5467.06 7256.24 7294.06 10527.3 18148.3 3506.77 -7.41554 
353 1 82.4329 6.51362 7.5 6.0492 15202.4 6820.52 -18488.5 -7342.88 -3914.94 11011.8 -7.41416 
354 1 83.1558 7.73586 7.5 6.0492 2849.59 6194.48 24745.4 9032.76 29461.2 19854.1 -7.41644 
355 1 84.5757 7.72095 7.5 6.0492 15533.8 7609.05 -22302.7 -7744.73 -2501.31 5473.62 -7.41397 
356 1 85.2728 6.48381 7.5 6.0492 3686.8 7148.02 17955.3 9748.03 25054.1 12319 -7.41608 
357 1 86.6927 6.46891 7.5 6.0492 14501.2 7556.47 -20593.3 -8495.48 -5609.43 335.83 -7.41407 
358 1 87.4156 7.69114 7.5 6.0492 2544.74 7706.1 19922.2 10233.2 22062.8 10546 -7.41619 
359 1 88.8355 7.67624 7.5 6.0492 14869.2 7232.13 -22780.1 -8895.52 -4524.09 -1962.75 -7.41397 
360 1 89.5325 6.43909 7.5 6.0492 3436.83 7669.93 14497.4 10504.3 18960.8 6685.93 -7.41591 
463 1 82.4587 8.973 7.5 6.0492 16356.8 6993.73 -22591.4 -7229.49 1210.02 12356.9 -7.41395 
466 1 85.2986 8.94319 7.5 6.0492 1721.12 7141.41 26128.3 9700.69 25990.7 16965.1 -7.41652 
467 1 86.7185 8.92828 7.5 6.0492 15830.9 7858.3 -24968.8 -8105.66 -1876.33 1280.25 -7.41384 
470 1 89.5583 8.89847 7.5 6.0492 1575.66 8145 21218.2 10378.2 18667.3 10509.6 -7.41627 
44 1 91.5979 0.268296 7.5 6.04918 8458.14 6006.4 -4181.87 10640.3 13676.2 1916.36 -7.41496 
45 1 93.0178 0.25339 7.5 6.04918 9280.94 4814.8 -6146.49 -10672.8 -11168.1 7120.52 -7.41486 
46 1 95.8576 0.22358 7.5 6.04918 8498.1 4060.62 -7654.56 10681.2 10481.6 14268.4 -7.41481 
47 1 97.2776 0.208674 7.5 6.04918 9351.15 2963.01 -10707 -10459.6 -7965.43 24000.7 -7.41466 
141 1 90.9008 1.50544 7.5 6.04918 10389.2 5817.16 -8705.51 -10406.2 -11452.9 1337.37 -7.41472 
142 1 91.6237 2.72767 7.5 6.0492 6429.85 6480.97 2575.36 10665.8 15636.8 3923.8 -7.41531 
143 1 93.0436 2.71277 7.5 6.0492 11156.8 4657.75 -12063.6 -10670 -8635.59 5101.99 -7.41456 
144 1 93.7407 1.47563 7.5 6.04918 7463.51 5362.21 -2309.52 10712.9 13279.3 7735.56 -7.41507 
145 1 95.1606 1.46072 7.5 6.04918 10217.2 3616.21 -10527.4 -10823.3 -8185.06 13620.3 -7.41465 