ITEM: TIMESTEP
252
ITEM: NUMBER OF ATOMS
18152
ITEM: BOX BOUNDS pp pp pp
0.0000000000000000e+00 1.1715644600000000e+02
0.0000000000000000e+00 2.0292091700000000e+02
0.0000000000000000e+00 1.8399999600000001e+01
ITEM: ATOMS id type x y z c_csym c_2[1] c_2[2] c_2[3] c_2[4] c_2[5] c_2[6] c_3 
1 1 8.73416e-06 -3.68284e-07 7.43539 6.04521 -17144.9 -17148.3 -6939.67 -11.6277 -0.380256 -0.678021 -7.41274 
2 1 2.15742 1.17954 7.44218 6.03449 -27575.1 -7648.23 -4375.26 773.394 12647.9 -22981.2 -7.41302 
3 1 3.57664 1.14769 7.45006 6.0207 -26756.4 -10946.1 -3307.99 23062.4 10319.6 -28895.7 -7.41316 
4 1 6.41409 1.08644 7.46981 6.01589 -33508.7 -2818.9 3131.17 33123.8 10954.2 -42654 -7.41431 
5 1 7.83329 1.05937 7.47854 6.02278 -31604.9 -9795.11 -1855.08 66729.1 -2543.06 -25602.8 -7.4139 
56 1 0.0571915 2.45838 7.44217 6.02744 -23649.6 -12065.2 -5000.16 -8594.44 23803.2 1198.52 -7.41295 
57 1 1.47645 2.42527 7.44426 6.02707 -23376 -12587 -4209.05 -2378.59 26182.6 -12964.5 -7.41307 
58 1 2.21306 3.63882 7.45357 6.02084 -47466.5 10338.6 -1348.62 -14546.4 27804 -19730.2 -7.41339 
59 1 3.6322 3.60699 7.45982 6.01482 -44884.6 5003.42 -2742.39 6577.36 30249.3 -22511.9 -7.41343 
60 1 4.3134 2.36133 7.45838 6.02632 -46801.4 11403.3 1706.55 8970.12 18654 -38099.1 -7.41385 
61 1 5.73253 2.33171 7.46756 6.0173 -44143.5 1651.69 -3597.37 40351 13067 -28664.8 -7.41343 
62 1 6.46753 3.54654 7.47563 6.02272 -61598.5 29623.9 8671.1 16940 16960.7 -39180.1 -7.41498 
63 1 7.88662 3.51899 7.48252 6.0235 -55375.6 10270.7 -8884.99 48729.1 8266.22 -17458 -7.41341 
64 1 8.56888 2.27405 7.48365 6.01777 -43435.9 12323.9 9519.85 41475.1 12741.9 -33862.5 -7.41537 
166 1 0.111705 4.91693 7.45834 6.01679 -31473.8 -8670.74 -3226.86 -29245 33828.7 2442.75 -7.4133 
167 1 1.53097 4.88407 7.45985 6.02061 -28705.6 -7637.42 959.207 -23394.7 42072.5 -10941.4 -7.41384 
168 1 2.2654 6.09879 7.46975 6.01924 -61982 20987.8 -1473.81 -36653 28010 -13940.5 -7.41367 
169 1 3.68452 6.06716 7.47372 6.01126 -55171 16132.1 326.781 -18285.6 36994.9 -14443.9 -7.41414 
170 1 4.36675 4.82185 7.46982 6.01983 -70288.5 34581.9 4274.05 -12438.7 23299.8 -31009 -7.41429 
171 1 5.7858 4.79196 7.47635 6.01316 -63616.3 19954.6 -5794.06 16153.7 23808.4 -18885.1 -7.41355 
172 1 6.51865 6.00794 7.48387 6.01557 -79124.6 49095.7 10484.9 -9214.8 13493.1 -30039.1 -7.41538 
173 1 7.93771 5.97964 7.48835 6.01979 -67444.5 23834.6 -12648.5 18865.8 11785.6 -7995.43 -7.41336 
174 1 8.62035 4.73466 7.4881 6.02038 -61718.1 36623.6 15707.8 17650 11753.2 -29362.7 -7.41611 
276 1 0.162324 7.37552 7.4755 6.01761 -36928.3 -7399.47 -6222.04 -48094.1 27497.7 2504.05 -7.41343 
277 1 1.58163 7.34328 7.47639 6.01974 -29251.8 -3851.27 7438.01 -43091.2 41953 -7969.58 -7.41492 
278 1 2.31422 8.55901 7.48349 6.02744 -66784 23331.9 -6547.17 -50854.5 16141.9 -8528.28 -7.41365 
279 1 3.73339 8.5279 7.48546 6.01373 -54727.1 20942.9 5571.54 -36636.1 30891.1 -5307.43 -7.41504 
280 1 4.41695 7.28315 7.48185 6.01989 -82551.3 44836.3 2246.51 -35203 16008.5 -21215.7 -7.41443 
281 1 5.836 7.2531 7.48561 6.01272 -70610.3 29841.2 -4556.77 -11581.9 23469.6 -8004.7 -7.41405 
282 1 6.5673 8.46983 7.49063 6.0154 -84756.1 54148.3 7782.09 -32148.3 3474.25 -20449.3 -7.41535 
283 1 7.98639 8.44085 7.49319 6.01998 -68187.6 30204.2 -12051.3 -9558.26 9244.01 672.305 -7.41368 
284 1 8.66981 7.19608 7.49289 6.01644 -70331.9 47796.4 17318 -10900.6 4756.42 -22820.7 -7.41638 
6 1 10.6712 1.00426 7.49013 6.01583 -26388.3 -5109.57 6074.35 54811.6 11630.9 -19652.8 -7.41524 
7 1 12.0905 0.979831 7.49272 6.02188 -24037.3 -10700.2 -4513.54 77940.6 -12082.3 -2564.59 -7.41434 
8 1 14.9294 0.926527 7.49461 6.0176 -17240.4 -7819.96 5390.91 57158.6 16790.3 -3013.48 -7.41534 
9 1 16.3487 0.902462 7.49508 6.01707 -14490 -9748.75 -6195.57 81045 -15164.9 -2122.74 -7.41451 
65 1 9.98805 2.24854 7.48872 6.03005 -38560.4 -3158.37 -8385.45 69988.3 -4340.95 -10480.1 -7.41372 
66 1 10.7228 3.46377 7.49192 6.02053 -40206.5 16270.9 16398.7 37794.4 12644.2 -20171.2 -7.4163 
67 1 12.142 3.43865 7.49372 6.03115 -31619.9 -5803.04 -16403.7 60988.5 -7154.67 366.916 -7.41339 
68 1 12.8259 2.19471 7.49382 6.01857 -24212.8 -820.606 12533.5 49525.1 15178.9 -9113.07 -7.41595 
69 1 14.2452 2.17024 7.49424 6.02364 -18375.5 -12309.3 -12495.1 70833 -11636.6 2112.44 -7.4139 
70 1 14.9806 3.38509 7.49552 6.01707 -16887.4 -6312.73 18630.7 42700.2 21097.2 -8016.56 -7.41648 
71 1 16.3999 3.36062 7.496 6.02146 -7808.68 -17740.9 -20795.4 68442.3 -8102.4 -3792.17 -7.41361 
72 1 17.0846 2.11714 7.49579 6.01098 -14236.2 -10662.3 11395.9 61129.5 24748.5 -9205.18 -7.41588 
175 1 10.0395 4.70822 7.4917 6.03073 -51048.8 8752.52 -16703.9 44556.1 610.256 -4371.21 -7.41315 
176 1 10.7728 5.9241 7.49514 6.02465 -48077.1 29272.8 22711.2 9973.4 8711.54 -18904.5 -7.41696 
177 1 12.192 5.89778 7.49653 6.0373 -33620.3 -1115.79 -24892.9 33108.4 -4156.42 1540.74 -7.41288 
178 1 12.8765 4.65393 7.49594 6.02397 -28200.5 8094.52 22974.9 27243.8 14921.1 -12274.8 -7.41695 
179 1 14.2958 4.62861 7.49636 6.03164 -16167.8 -13960 -24581.6 50140 -6746.36 715.578 -7.41313 
180 1 15.0304 5.84374 7.49965 6.02215 -18588.7 -3746.58 29126.3 19051.1 21379.2 -16021.6 -7.41739 
181 1 16.4498 5.81856 7.50103 6.03015 -4223.28 -18696 -32548.2 47810.1 -1459.24 -8930.38 -7.41311 
182 1 17.1353 4.57545 7.49955 6.01128 -14922.1 -12599.3 24939.8 43347.4 30082.6 -17533.3 -7.41699 
285 1 10.089 7.16846 7.4953 6.02867 -54242 16566.2 -20777.5 13208.1 1359.9 716.99 -7.41303 
286 1 10.8212 8.3848 7.49838 6.02245 -52206.9 34973.4 24489.1 -17926.2 2184.04 -18994.6 -7.41709 
287 1 12.2404 8.35718 7.50012 6.03632 -33528.9 5768.38 -28781.3 4583.29 -2275.56 407.943 -7.41283 
288 1 12.9255 7.11347 7.49969 6.02957 -31859.2 14061.4 29357.4 -533.415 11219.8 -17260 -7.4175 
289 1 14.3449 7.08702 7.50093 6.03872 -14925.1 -10176.7 -32741 24364.4 -2618.65 -3430.77 -7.41281 
290 1 15.0783 8.30266 7.50578 6.02889 -26092.2 3620.28 36196.7 -6033.56 18477.3 -26857.1 -7.41793 
291 1 16.4977 8.27675 7.5086 6.02817 -8194.42 -8695.38 -40620 25982.2 4151.05 -15495.6 -7.41301 
292 1 17.184 7.03389 7.50709 6.01723 -22059.2 -7452.63 36536.5 20370.1 30186.4 -29228.6 -7.41792 
10 1 19.1882 0.850273 7.499 6.00297 -14828.3 -7641.09 3253.61 86758 24491.6 -15835.5 -7.4154 
11 1 20.6075 0.82893 7.50294 5.99754 -11671 -5552.71 -6922.69 126096 -17056 -23502.4 -7.41478 
12 1 23.447 0.781987 7.51483 5.97039 -18055 -1513.39 3634.99 160890 33260.9 -36145.4 -7.4159 
13 1 24.8662 0.766792 7.52169 5.9681 -15144.1 1982.59 -6763.51 209987 -21968.7 -39569.3 -7.41511 
73 1 18.5039 2.09388 7.49764 6.01047 -8167.94 -13311.2 -14638.9 93024.2 -10875.7 -12362 -7.41418 
74 1 19.2397 3.30867 7.50145 6.00012 -17226.2 -11968.1 18523.1 75242.1 35400.5 -22295.4 -7.41654 
75 1 20.659 3.28727 7.50604 6.00098 -8434.28 -11032.4 -23056.8 116271 -4419.88 -25039.1 -7.41406 
76 1 21.3435 2.04391 7.50666 5.98772 -19886 -6151.53 11246.8 115344 36440.2 -29196.9 -7.41617 
77 1 22.7628 2.02534 7.51296 5.98503 -13933.6 -2746.65 -15425.7 161845 -11579.6 -33354 -7.41455 
78 1 23.4982 3.24099 7.52051 5.97238 -33718 4831.63 21802.2 148747 48595.8 -40510.9 -7.41719 
79 1 24.9174 3.22573 7.52827 5.97576 -25690.7 8166.09 -24818.9 198504 -5853.84 -38710.5 -7.41435 
80 1 25.602 1.98274 7.52823 5.95722 -31162.8 9034.29 13751.2 201647 46506.9 -43141.7 -7.41685 
81 1 27.0211 1.97105 7.53535 5.95813 -26049.9 10967.6 -16315.5 250165 -15839.1 -40354.4 -7.41477 
183 1 18.5546 4.55187 7.50219 6.01585 -3367.67 -18078.4 -29024.4 77860.8 -1313 -16379.4 -7.41357 
184 1 19.2894 5.76713 7.50933 6.0029 -25184.1 -8824.25 33704.6 55016.5 39865.5 -32495.7 -7.41773 
185 1 20.7087 5.74562 7.51486 6.00836 -11783.8 -6483.86 -37921.5 98395.4 5927.48 -28628.5 -7.41365 
186 1 21.3941 4.50266 7.51379 5.98786 -30692.8 -2929.14 28590 98391.8 46268.9 -36550.7 -7.41747 
187 1 22.8134 4.48406 7.5209 5.99287 -19861 1483.8 -32260.2 146119 1765.91 -34533.3 -7.41399 
188 1 23.547 5.70064 7.53162 5.97834 -53710.2 18446.5 41716.8 125247 54114.5 -46529.1 -7.41871 
189 1 24.9661 5.68528 7.5398 5.98888 -41268.6 23181.3 -43594.8 175311 5503.17 -38213.3 -7.41384 
190 1 25.6515 4.44254 7.53858 5.96131 -54427.6 25332.9 34509.8 180061 57793.5 -46440.1 -7.41844 
191 1 27.0705 4.43061 7.54628 5.97162 -44568.7 26128.8 -36014.3 228784 -1359.91 -39020.9 -7.41406 
293 1 18.6034 7.00995 7.51094 6.01976 -6310.85 -11259.6 -40953.3 58172.1 6347.12 -22052.3 -7.4133 
294 1 19.3363 8.22614 7.51985 6.01161 -41335.6 5008.76 47298 32690.4 37485.3 -44328 -7.4188 
295 1 20.7556 8.20462 7.52601 6.00942 -24583.5 10753.5 -51471.7 78352.4 12369.6 -31445 -7.41345 
296 1 21.442 6.96195 7.52506 5.99526 -48167.9 9997.17 46138.3 75249.1 47011.2 -45676.6 -7.41883 
297 1 22.8612 6.94338 7.53257 6.00174 -33400.1 17095.2 -49061.1 124128 10313.4 -35430.3 -7.41364 
298 1 23.5922 8.16134 7.54385 5.99139 -78521.1 40431.2 61273.2 98573.7 49474.9 -52615.7 -7.4202 
299 1 25.0112 8.14598 7.55175 6.00066 -62378.5 48014 -62952.8 148466 10561.4 -36087.5 -7.41339 
300 1 25.6976 6.90347 7.55154 5.9738 -80816.9 47934.2 56602 149712 57065.8 -49948 -7.42012 
14 1 27.7059 0.72844 7.53515 5.94114 -22711.8 6880.99 4726.14 250621 40430.5 -43563.5 -7.4164 
15 1 29.1251 0.720254 7.54072 5.94132 -20729 9019.43 -7083.75 294543 -27035.9 -39469.2 -7.41533 
16 1 31.9653 0.690584 7.5493 5.92268 -26649.6 13298.8 4720.77 322473 44165.9 -38073.7 -7.41656 
17 1 33.3844 0.688049 7.55212 5.92342 -25511.9 13443 -7300.95 352981 -29726.8 -30459 -7.41542 
82 1 27.7557 3.18807 7.54442 5.94538 -49281.5 27261.1 25348.3 235059 57238 -44941.5 -7.41797 
83 1 29.1748 3.17959 7.55069 5.954 -42368.6 24918.3 -27148.4 279578 -9693.22 -37579.9 -7.41438 
84 1 29.8602 1.93744 7.54805 5.93221 -39477.4 22942.8 15147.2 284266 52373.3 -42025.3 -7.41732 
85 1 31.2793 1.93216 7.55249 5.93742 -35510.3 20234 -17494.5 322333 -19269.8 -34403.9 -7.41481 
86 1 32.0129 3.15048 7.56138 5.92613 -56781.5 41601.4 26526.7 303732 60984.4 -37463.3 -7.41835 
87 1 33.4319 3.14748 7.56444 5.93868 -51029.8 32688.1 -28430.1 335433 -12075.8 -28801.4 -7.41434 
88 1 34.1185 1.90634 7.55927 5.91673 -43385 30159.2 15236.6 340778 54474.3 -32837 -7.41743 
89 1 35.5376 1.9057 7.56105 5.92479 -40341.7 23886.1 -17615.6 365305 -20953.4 -24506 -7.41484 
192 1 27.8026 5.64893 7.55769 5.95604 -77301.7 51409.2 48371 203792 62188.5 -46437.3 -7.41978 
193 1 29.2216 5.63999 7.56421 5.97205 -65915.2 47220.6 -48871.6 248203 1011.24 -35761.1 -7.4137 
194 1 29.9076 4.39794 7.56108 5.93962 -68756.3 49159.3 37906.4 256715 63681.6 -42140.2 -7.41917 
195 1 31.3266 4.39212 7.56586 5.95486 -60187.8 41026.9 -39020.1 295355 -4836.62 -32855.8 -7.41396 
196 1 32.0575 5.61189 7.57658 5.9395 -86101.8 70460.3 50893.7 265921 65724.2 -36725.5 -7.42038 
197 1 33.4763 5.60812 7.57975 5.95904 -75921.5 56723.5 -51299.7 298323 -2184.82 -27574.8 -7.41356 
198 1 34.1637 4.36702 7.57417 5.92552 -72220.6 59563.6 38492.9 309379 65762 -31532.5 -7.41945 
199 1 35.5826 4.36569 7.57589 5.94327 -64786.4 44664.1 -39608.8 335250 -6765.75 -23508.4 -7.41392 
301 1 27.1165 6.89128 7.55923 5.98888 -66800.7 49823.5 -57191.6 197961 6072.15 -36834.9 -7.41351 
302 1 27.8456 8.11124 7.57028 5.97397 -106315 78958.1 71800.1 168055 55455.4 -47839.3 -7.42152 
303 1 29.2644 8.10183 7.57665 5.99005 -90826.9 76240.5 -71692.9 211763 3973.31 -32636.6 -7.41306 
304 1 29.9515 6.85992 7.57538 5.95616 -98215.6 77314.5 62491.1 217690 61964.6 -42323.1 -7.4211 
305 1 31.3703 6.85342 7.58026 5.97566 -85255.2 67921.6 -62344.5 256285 1015.48 -30849.3 -7.41327 
306 1 32.098 8.07487 7.59046 5.96005 -114240 99371.3 76094.8 222467 58534 -36542.4 -7.42229 
307 1 33.5167 8.07023 7.59375 5.9768 -99832.3 85608.4 -75390.1 255042 -962.168 -25703.3 -7.41284 
308 1 34.2051 6.82926 7.59013 5.94348 -99615.7 88194.3 63737.5 264765 64310 -30692.7 -7.42153 
309 1 35.6239 6.82697 7.59184 5.96445 -87873.1 70136.6 -63425.3 291434 -1879.02 -22587.7 -7.41317 
18 1 36.2249 0.665118 7.55595 5.91153 -30042.6 16891.1 4569.96 365351 45386.7 -28460.1 -7.41652 
19 1 37.644 0.666307 7.557 5.91424 -29427.6 15785.4 -6859.92 383341 -30943.8 -20647.9 -7.41548 
20 1 40.4847 0.647934 7.55836 5.90775 -32817.5 18842.8 4560.63 385320 45465.4 -19974.1 -7.41647 
21 1 41.9038 0.651326 7.55862 5.9109 -32219.9 17231.6 -6191.51 394971 -31738.7 -12929.7 -7.41554 
22 1 44.7445 0.63584 7.55892 5.90782 -34137.3 20264.8 4565.13 391987 45084.6 -13648.2 -7.41644 
90 1 36.2702 3.12503 7.56938 5.91539 -58224 46239.3 26346.5 344999 61875.6 -27052 -7.41841 
91 1 37.6892 3.12571 7.57014 5.92949 -53281.6 33548.4 -28003.1 364578 -13425.4 -19412.6 -7.41435 
92 1 38.3772 1.88548 7.56368 5.90959 -44915.8 32245.2 15001.5 370622 54702.2 -23265.5 -7.41739 
93 1 39.7962 1.88774 7.564 5.91855 -42212.7 24366.9 -16841.3 384753 -22026.5 -15813.8 -7.41489 
94 1 40.5279 3.10778 7.5716 5.91073 -56059.1 45431.4 25693.8 364445 61590.6 -18398.6 -7.41835 
95 1 41.9469 3.11068 7.57114 5.92476 -51443.2 31307.3 -26781.6 375738 -14552.7 -11999.7 -7.41441 
96 1 42.636 1.87115 7.56457 5.90741 -44223.1 32002.2 14689 382731 54212.5 -15850.7 -7.41733 
97 1 44.055 1.87508 7.5642 5.91627 -41611.3 23544.8 -15883.9 390389 -22966.5 -9362.83 -7.41496 
98 1 44.7861 3.09561 7.5708 5.90948 -51873.6 42382.7 24958.7 371044 60853.6 -12104 -7.41829 
200 1 36.3125 5.58644 7.58587 5.92915 -84179.8 74421.1 50576.5 303918 67050.4 -25632.5 -7.42055 
201 1 37.7313 5.58623 7.58636 5.94983 -74958.9 55082 -50819 324801 -3910.69 -18890 -7.41354 
202 1 38.4201 4.34607 7.57915 5.91803 -69448.3 59780.4 37705.5 337704 66112.3 -21567.1 -7.41945 
203 1 39.839 4.3476 7.57893 5.93599 -62602.1 41902.7 -38453.3 353454 -8050.78 -15229.7 -7.41395 
204 1 40.5682 5.56894 7.58809 5.92353 -76716.4 69976.7 49033.8 322290 67388 -16849.5 -7.42051 
205 1 41.9871 5.57093 7.58691 5.94295 -68092.2 48391.1 -48970.8 335020 -5090.99 -11853.6 -7.41362 
206 1 42.6771 4.33157 7.57921 5.91475 -63343.1 55472 36489.7 349569 65727.1 -14126.1 -7.41938 
207 1 44.096 4.33478 7.57793 5.93139 -56831.1 36548.8 -36784.9 358801 -9180.54 -9010.93 -7.41403 
208 1 44.8248 5.55645 7.58598 5.92086 -66856.9 62229.3 47281.3 328779 67172.3 -10569.9 -7.42042 
310 1 36.3507 8.04931 7.60145 5.94997 -108428 101191 75946.6 256214 60623.6 -25237 -7.42256 
311 1 37.7694 8.04804 7.60186 5.96816 -95024.8 80828.3 -75046.6 278002 -3441.23 -18281.4 -7.41281 
312 1 38.4594 6.80807 7.59606 5.93548 -91974.8 85436.8 62391 290659 65581.8 -20526.3 -7.4216 
313 1 39.8782 6.80856 7.59541 5.95647 -81015.8 63359.9 -61909.1 307578 -3365.98 -15040.3 -7.41321 
314 1 40.6045 8.03136 7.60441 5.94337 -95740.2 92516.1 73694.6 272865 62162.2 -16431.8 -7.42257 
315 1 42.0233 8.03223 7.60268 5.9632 -83105.2 69283.8 -72729 286629 -4614.25 -11916 -7.41291 
316 1 42.7146 6.79315 7.59572 5.93092 -80217.4 76506.3 60155.3 301797 66187.6 -13044.6 -7.42153 
317 1 44.1335 6.79533 7.59356 5.95062 -69750.6 53008.4 -59507.2 312147 -4335.75 -9144.44 -7.41332 
318 1 44.8595 8.0183 7.60157 5.93924 -80224.6 79810.8 70955.7 278735 63103.4 -10083.2 -7.42249 
23 1 46.1636 0.640455 7.55884 5.91056 -33510.9 18383 -5617.03 396699 -32412.4 -7329.42 -7.41562 
24 1 49.0043 0.626722 7.5587 5.90932 -35117.9 21262.9 4550.43 392410 44519.1 -9058.18 -7.41644 
25 1 50.4233 0.631973 7.55846 5.9115 -34419 18994.8 -5204.15 394564 -33036.6 -3217 -7.41568 
26 1 53.264 0.619238 7.55812 5.91098 -35135.1 21754.5 4520.36 391079 43900.8 -5596.43 -7.41645 
99 1 46.205 3.09977 7.56971 5.92221 -47448.3 27723.1 -25521.2 377343 -15594.6 -6621.95 -7.4145 
100 1 46.8951 1.86075 7.56378 5.90773 -42581.4 30819.9 14382.5 385515 53465.6 -10493 -7.4173 
101 1 48.3141 1.86558 7.56306 5.91571 -40078.8 21948.2 -15075.8 389485 -23814 -4700.05 -7.41504 
102 1 49.0446 3.08641 7.56839 5.9097 -47124.6 38246.4 24342.7 371438 59969.7 -7572.1 -7.41825 
103 1 50.4636 3.09123 7.56695 5.92115 -42715.2 23384.2 -24515.3 375056 -16518.6 -2689.45 -7.41458 
104 1 51.1543 1.85257 7.56213 5.90886 -40091.8 28973.4 14141.2 384555 52668.5 -6556.5 -7.41729 
105 1 52.5734 1.85786 7.56123 5.91565 -37506.9 19846.5 -14501.5 386729 -24565.6 -1199.33 -7.4151 
106 1 53.3036 3.07882 7.56509 5.9101 -41175.9 33612 23924 370003 59104.8 -4126.72 -7.41824 
209 1 46.2437 5.55972 7.58381 5.93896 -58645.6 39750.8 -46925.6 336409 -6102.57 -6652.45 -7.41372 
210 1 46.9348 4.32096 7.57655 5.9137 -56021.9 49360.2 35343.1 352491 65004.2 -8829.49 -7.41931 
211 1 48.3538 4.32511 7.57466 5.92901 -49768 29956.8 -35262 357885 -10207.1 -4502.66 -7.41413 
212 1 49.0822 5.54691 7.58127 5.91958 -56363.9 53004.8 45817.7 329363 66621.8 -6067.28 -7.42035 
213 1 50.5012 5.55087 7.57851 5.93637 -48281 30313.5 -45220.6 334046 -7009.75 -2817.38 -7.41381 
214 1 51.1931 4.31255 7.5723 5.91342 -47617.6 42448.6 34481.4 351635 64161.7 -4935.56 -7.41927 
215 1 52.6121 4.31719 7.57005 5.92741 -41387.7 22784.5 -34126.6 355020 -11095.7 -1121.45 -7.41419 
216 1 53.3406 5.53895 7.575 5.91837 -44713.3 43289.2 44817 327972 65910.2 -2607.83 -7.42031 
319 1 46.2784 8.02045 7.59841 5.95838 -68199 55315.9 -69964.9 287146 -5337.73 -6963.19 -7.41304 
320 1 46.971 6.78208 7.59135 5.92831 -67227.6 65406.9 58000.8 304596 66255.6 -7722.77 -7.42144 
321 1 48.3899 6.78521 7.58824 5.94681 -57205.2 41073.7 -57204.5 310924 -5153.03 -4754.7 -7.41343 
322 1 49.116 8.00816 7.59482 5.93637 -64050.1 65485.2 68582.5 278959 63431.9 -5470.38 -7.42241 
323 1 50.5349 8.011 7.59072 5.95444 -52338.4 40515 -67561.4 284167 -5961.88 -3179.73 -7.41314 
324 1 51.2285 6.7732 7.58443 5.92639 -53196.9 53457.1 56357 303723 65917.8 -3780.37 -7.42137 
325 1 52.6475 6.77682 7.58073 5.94378 -43363.4 28684.4 -55441.8 307754 -5901.65 -1414.86 -7.41351 
326 1 53.3738 7.99958 7.58557 5.9337 -46876 50685.8 66913.1 277267 63250.8 -1865.76 -7.42236 
27 1 54.683 0.624793 7.55782 5.91248 -34290 19136.9 -4945.05 392044 -33637.4 -16.933 -7.41571 
28 1 57.5237 0.612518 7.55741 5.91149 -33963.9 21579 4479.89 390353 43287.1 -2723.16 -7.41645 
29 1 58.9428 0.618171 7.55707 5.91272 -33054.7 18208.7 -4812.26 390723 -34212.5 2745.48 -7.41573 
30 1 61.7836 0.605912 7.55665 5.91057 -32256.1 20150.3 4426.17 391161 42704.9 66.7176 -7.41644 
107 1 54.7226 3.08396 7.56344 5.92031 -36714.6 18417 -23843.5 372266 -17294.2 366.723 -7.41462 
108 1 55.4138 1.84552 7.56004 5.90976 -36513.9 26608.7 13990.3 383221 51920.7 -3444.26 -7.41729 
109 1 56.8328 1.85101 7.55904 5.91538 -33770.2 17032.1 -14163 384497 -25211.7 1657.38 -7.41513 
110 1 57.5631 3.07194 7.56131 5.90977 -33965.6 28362.1 23714.1 368956 58333.3 -1206.99 -7.41823 
111 1 58.9822 3.07719 7.55959 5.91899 -29475 12437.5 -23494.2 370459 -17898.6 3027.66 -7.41464 
112 1 59.6736 1.83887 7.55775 5.90967 -32071.1 23311.4 13928.8 382999 51259.1 -635.152 -7.41729 
113 1 61.0927 1.84438 7.55674 5.91439 -29326.3 12849.1 -14027.9 383696 -25735.3 4330 -7.41513 
114 1 61.8232 3.06511 7.55746 5.90865 -26473.7 21777.4 23694.9 369259 57686.8 1704.59 -7.41823 
217 1 54.7596 5.54325 7.57189 5.93406 -36634.6 20244.8 -44056 331036 -7791.42 171.752 -7.41386 
218 1 55.4521 4.30525 7.56715 5.91276 -38196.1 34957.3 33963.6 350171 63337.2 -1806.43 -7.41925 
219 1 56.8712 4.31009 7.56472 5.92567 -31830.9 14961.2 -33438.4 352441 -11810.1 1641.71 -7.41423 
220 1 57.5999 5.53166 7.56789 5.9167 -31883.8 33117.2 44295.9 326679 65153 393.652 -7.4203 
221 1 59.0191 5.53606 7.56467 5.93139 -23800 9188 -43441.8 328754 -8407.14 2786.69 -7.41388 
222 1 59.7119 4.29828 7.56163 5.91137 -28053.6 26583.3 33772.4 349568 62590.5 1096.51 -7.41925 
223 1 61.1311 4.30314 7.5592 5.92333 -21658.7 5669.41 -33151.1 351093 -12323.3 4252.58 -7.41423 
224 1 61.8603 5.52436 7.5607 5.91437 -18743.9 21495.9 44209.3 326551 64421.4 3466.4 -7.4203 
327 1 54.7929 8.00276 7.58091 5.95081 -35220 25286.7 -65886.4 280553 -6572.11 -177.733 -7.4132 
328 1 55.4872 6.76538 7.576 5.9243 -38141.7 41005.4 55337.9 302078 65327.3 -553.003 -7.42134 
329 1 56.9063 6.76921 7.57201 5.94068 -28236.9 15851.3 -54361.8 304728 -6562.6 1331.26 -7.41354 
330 1 57.633 7.99163 7.57497 5.93081 -28655.2 35422.8 66000.7 275691 62700.6 1331.2 -7.42234 
331 1 59.0522 7.99489 7.57012 5.94686 -17006.3 9012.91 -65000.5 277694 -7142.41 2462.58 -7.41322 
332 1 59.7471 6.75785 7.56697 5.92171 -22553.8 27575.9 54917.9 301170 64594.7 2516.42 -7.42134 
333 1 61.1663 6.76168 7.56299 5.93703 -12543.7 1454.79 -53915.2 302799 -7100.1 3937.21 -7.41354 
334 1 61.8938 7.98359 7.5642 5.92732 -10287.6 18512.4 65779.2 275326 61916.4 4662.88 -7.42235 
442 1 59.7783 9.21746 7.57174 5.93734 -16400.6 26205.3 76713.2 250156 58423.7 3200.83 -7.42328 
443 1 61.1976 9.2201 7.56615 5.95217 -2885.11 -387.809 -75848.9 251350 -9130.58 3628.79 -7.41288 
31 1 63.2027 0.611497 7.55631 5.91151 -31268.7 16002.5 -4783.06 390976 -34737.2 5538.41 -7.41573 
32 1 66.0436 0.598824 7.55592 5.90896 -29720 17598.4 4342.97 393296 42185.7 3252.4 -7.41642 
33 1 67.4627 0.604152 7.55559 5.90979 -28555.8 12937.6 -4852.28 392067 -35182.9 8855.58 -7.41571 
34 1 70.304 0.590555 7.5552 5.90723 -26002.2 14653.7 4199.65 395424 41732.7 7298.19 -7.41637 
35 1 71.7231 0.595327 7.55484 5.9084 -24736 9513.3 -5019.24 391978 -35493.5 13221.3 -7.41569 
115 1 63.2424 3.07029 7.5558 5.91695 -21816.8 5194.22 -23419.7 370088 -18315 5757.07 -7.41463 
116 1 63.9337 1.83201 7.55553 5.90883 -27004.2 18779.6 13941.9 384264 50715 2375.04 -7.41728 
117 1 65.3529 1.83736 7.55458 5.91268 -24125.6 7571.36 -14073.7 384207 -26116.4 7296.95 -7.41511 
118 1 66.084 3.05774 7.55393 5.90689 -18119.4 14194.4 23840.5 370779 57213.6 5096.55 -7.41823 
119 1 67.5032 3.06267 7.55242 5.91432 -13181.8 -3048.41 -23607.7 370470 -18513.5 9031.88 -7.4146 
120 1 68.1944 1.82431 7.55355 5.90711 -20909.4 13344.4 14007 386342 50314.7 6048.85 -7.41725 
121 1 69.6135 1.82928 7.55267 5.91042 -17723.1 1851.25 -14297.2 384731 -26303.8 11053.7 -7.41509 
122 1 70.3455 3.04915 7.55095 5.90508 -8867.53 6264.38 24107.5 372254 56917.2 9438.28 -7.41821 
123 1 71.7647 3.05355 7.54963 5.91176 -3711.89 -11523.5 -24033.1 369557 -18411.9 13356.7 -7.41457 
225 1 63.2796 5.52869 7.55761 5.92803 -10433.7 -3172.63 -43306.4 327692 -8844.54 5486.5 -7.41386 
226 1 63.9726 4.29104 7.55632 5.90929 -17307.5 17043.4 33868.3 350283 61976.4 4283.56 -7.41925 
227 1 65.3919 4.29574 7.55408 5.92031 -10721.3 -4735.71 -33221.5 350845 -12629.5 7175.07 -7.41421 
228 1 66.1219 5.51646 7.55417 5.91149 -5027.23 8686.68 44502 327543 63792.5 7102.18 -7.42031 
229 1 67.5412 5.52053 7.55143 5.92414 3715.01 -16471.4 -43627.7 327293 -9080.97 8730.38 -7.41382 
230 1 68.2343 4.28291 7.55173 5.90681 -5621.83 6542.02 34214.7 351712 61536.1 8228.29 -7.41925 
231 1 69.6536 4.28724 7.54977 5.91695 1367.46 -15589.7 -33634.2 350502 -12661.6 10885.3 -7.41416 
232 1 70.3846 5.50732 7.54884 5.90866 9137.38 -4620.9 45107.5 328504 63285.6 11773.2 -7.42032 
233 1 71.804 5.51087 7.54654 5.92037 18253.8 -30169.4 -44341.8 325585 -8992.05 12984.1 -7.41376 
335 1 63.3131 7.98678 7.55957 5.94221 1635 -8799.6 -64828.2 276154 -7661.35 5182.18 -7.4132 
336 1 64.0084 6.74997 7.55832 5.91852 -6597.03 12649 55025.1 301565 63823.6 5942.11 -7.42135 
337 1 65.4277 6.75365 7.55467 5.93273 3720.65 -14201.5 -54047.8 301916 -7517.91 6852.53 -7.41351 
338 1 66.1561 7.97491 7.55448 5.92342 8421.13 148.504 66154.8 276230 61023.8 8614.14 -7.42237 
339 1 67.5756 7.97785 7.55041 5.93702 20968 -27338.8 -65338.2 275356 -8102.16 8406.19 -7.41313 
340 1 68.271 6.74117 7.55092 5.91505 10088.8 -3124.2 55587.6 302661 63085 10197.3 -7.42137 
341 1 69.6904 6.74449 7.5478 5.92814 20922.9 -30377.7 -54722.6 300984 -7731.63 10516.8 -7.41344 
342 1 70.4201 7.96496 7.54671 5.91962 27190.4 -18799.1 67023.6 277301 60093.3 13623.2 -7.42239 
343 1 71.8396 7.9674 7.54342 5.932 40297.6 -46362 -66412.8 273486 -8264.89 12517.6 -7.41304 
446 1 64.0402 9.2087 7.55964 5.93305 4710.19 5639.47 76758.5 250560 57513.8 6969.11 -7.4233 
447 1 65.4596 9.21117 7.55453 5.94654 18689.3 -21569.6 -76053.4 250291 -9672.36 6547.67 -7.41282 
450 1 68.3039 9.19897 7.54942 5.92855 26079.1 -15921.3 77443.1 252054 56441 11579.7 -7.42331 
451 1 69.7234 9.2011 7.54515 5.94063 40737.3 -43198.7 -76991.3 249415 -10084.2 10097 -7.41273 
36 1 74.5645 0.580113 7.5543 5.90654 -22085.4 11242.8 3950.59 394503 41298.1 12759.3 -7.41631 
37 1 75.9837 0.583801 7.55378 5.90742 -20716.9 5827.23 -5254.2 386597 -35558.8 19213.4 -7.4157 
38 1 78.8253 0.565923 7.55267 5.90874 -17543.7 7910.84 3552.8 384930 40753.6 20276.6 -7.41625 
39 1 80.2445 0.567623 7.55166 5.91002 -15964.9 2571.24 -5452.9 369274 -35152.2 27277.6 -7.41575 
124 1 72.4555 1.81497 7.55182 5.90509 -14366.5 7753.18 14068.9 387152 50032.3 10888 -7.41722 
125 1 73.8748 1.81917 7.55098 5.90913 -11034.5 -4290.29 -14665.6 382313 -26212.4 16141.7 -7.41507 
126 1 74.6077 3.0384 7.54854 5.90455 83.7585 -1980.98 24390.6 370689 56725 15284.5 -7.41818 
127 1 76.027 3.04175 7.54736 5.91061 5533.69 -19952.7 -24584.1 363445 -17868.4 19275.8 -7.41455 
128 1 76.7172 1.80279 7.55011 5.90502 -7974.44 2031.42 14029.2 382548 49749.6 17504.3 -7.41717 
129 1 78.1364 1.80553 7.54916 5.90977 -4362.7 -9876.78 -15065.6 371691 -25674.1 23103.5 -7.41508 
130 1 78.8705 3.02397 7.54642 5.90641 8475.04 -9471.15 24480 360937 56466.7 23242.9 -7.41814 
131 1 80.2899 3.02538 7.54519 5.91305 14457.6 -26259.3 -25000.2 345883 -16598.2 27156.4 -7.41459 
132 1 80.9791 1.7858 7.54772 5.9094 -1574.57 -2535.79 13741.4 365717 49209 26418.4 -7.4171 
234 1 72.4968 4.27315 7.54809 5.90494 5874.65 -4238.43 34721.6 351873 61246.7 13428.7 -7.41925 
235 1 73.9162 4.27673 7.54644 5.91431 13240.1 -26670 -34294.1 347189 -12287.4 15891.3 -7.41412 
236 1 74.6484 5.49603 7.54497 5.90719 22571.1 -18049.6 45850.6 326559 62880.2 18001.9 -7.42033 
237 1 76.0679 5.49856 7.54317 5.91811 32206.2 -43386 -45240.6 318908 -8336.38 18719.8 -7.41372 
238 1 76.7602 4.26057 7.54541 5.90527 16527.9 -14829.8 35186.7 346886 61018.4 20471 -7.41923 
239 1 78.1797 4.26274 7.54404 5.91407 24447 -36538.1 -34969.2 336105 -11244.4 22672.8 -7.41411 
240 1 78.9131 5.48117 7.54261 5.9092 34382.9 -30274.4 46362.5 317207 62569.4 26289.7 -7.42029 
241 1 80.3327 5.48184 7.54125 5.91947 44777.9 -53702.5 -45892.3 301649 -6622.88 26202.6 -7.41373 
242 1 81.0243 4.24332 7.54339 5.91059 25488.1 -23066.3 35226.9 330797 60684.7 29761.4 -7.41915 
344 1 72.5349 6.73073 7.54532 5.91227 26126.6 -19436.1 56473.6 302660 62406.4 15743.9 -7.42139 
345 1 73.9545 6.73332 7.54286 5.92432 37567.9 -46483 -55770.1 297218 -7514.29 15354 -7.41337 
346 1 74.6855 7.95291 7.5415 5.91732 44639.7 -37765.3 68125.9 275852 59246 20102.2 -7.4224 
347 1 76.1052 7.95437 7.53913 5.92855 58492.3 -64617.5 -67727.1 267009 -7735.65 17840.1 -7.41295 
348 1 76.8001 6.71755 7.54183 5.91179 40657.5 -35256.8 57361 297990 61865.3 23062.3 -7.42139 
349 1 78.2198 6.71878 7.5401 5.92294 52892.4 -61073.4 -56818.2 286271 -6410.41 21713.2 -7.41332 
350 1 78.9521 7.9374 7.53924 5.91841 59753 -55278.8 68931.1 267754 58779 28341 -7.42235 
351 1 80.372 7.93708 7.53786 5.9287 74561.5 -79641.6 -68677.2 251062 -5759.14 24463.8 -7.41293 
352 1 81.0663 6.69987 7.54052 5.9162 51972.7 -48306.3 57665.2 283467 61645.7 32357.5 -7.42128 
454 1 72.5693 9.18762 7.54202 5.92482 46466.5 -38001.3 78567.7 252766 55347.3 17386.6 -7.42332 
455 1 73.989 9.18906 7.53883 5.93551 61896.5 -64626.5 -78396.3 246089 -9989.81 14550.7 -7.41261 
458 1 76.8362 9.1736 7.53812 5.92342 64735.4 -59331.6 79684.1 249332 54555.4 24657 -7.4233 
459 1 78.2561 9.17375 7.53619 5.93293 81211.7 -84156.1 -79755.5 236292 -8701.46 20051.9 -7.41252 
462 1 81.1044 9.15529 7.53808 5.92671 78628 -77427 80049.1 237205 54621.5 33351 -7.42314 
40 1 83.0861 0.545522 7.54889 5.91672 -12927 5016.26 3073.58 358409 39740.9 30023.9 -7.41617 
41 1 84.5054 0.543805 7.5466 5.91973 -11637 -264.381 -5317.42 330813 -33753.3 36656.6 -7.41583 
42 1 87.3466 0.51537 7.54009 5.93393 -10343.2 2370.96 2769.86 305341 37171.6 39706.7 -7.41601 
43 1 88.7659 0.508312 7.53545 5.93538 -9588.82 -2331.97 -4724.16 263833 -30405.8 42880.9 -7.4158 
133 1 82.3984 1.78594 7.54623 5.91524 2182.59 -13685.7 -15199.8 345081 -24346.7 31946.8 -7.41516 
134 1 83.1335 3.00348 7.54367 5.91421 14097.8 -14421.6 24085.8 335447 55713.2 33375.9 -7.418 
135 1 84.553 3.00155 7.54179 5.9209 20138.3 -29045.8 -24695.6 308572 -14088.6 36142 -7.41471 
136 1 85.2409 1.76103 7.5428 5.92187 1389.86 -5412.31 13167 327749 47642.2 36871 -7.41693 
137 1 86.6603 1.75687 7.5398 5.92565 4932.19 -14529.6 -14531 293565 -21615.1 40370.5 -7.41526 
138 1 87.3962 2.97346 7.5379 5.93235 12604.8 -15083.1 23066.1 285754 53255.1 43270.1 -7.41768 
139 1 88.8157 2.96629 7.53435 5.93574 18525.1 -24529.8 -23049.4 245226 -9982.16 42004.9 -7.41482 
140 1 89.502 1.72455 7.5323 5.94547 -1099.58 -4962.26 12364.2 261639 43444.6 44097.5 -7.41659 
243 1 82.4438 4.24297 7.54203 5.919 33806.6 -42732.5 -35151.2 310224 -9031.65 31160.6 -7.41419 
244 1 83.1784 5.46046 7.54128 5.91785 40973.1 -38699.1 46070.3 293938 62253.2 36522.3 -7.42011 
245 1 84.5981 5.45793 7.53994 5.92652 51710.5 -58214 -45426.8 266911 -3103.1 34614.9 -7.41386 
246 1 85.2884 4.21856 7.54069 5.92337 27365.4 -27194.3 34414.7 295865 59645.9 40405 -7.41888 
247 1 86.708 4.21404 7.53855 5.92883 35883.1 -41795.7 -33919.8 262184 -5073.73 39224.6 -7.41436 
248 1 87.4434 5.43064 7.53898 5.93673 36394.2 -39333.7 44386.3 249992 61080.6 46417.1 -7.41963 
249 1 88.8631 5.4231 7.53661 5.94003 47301.3 -50303.2 -42628.9 210052 2414.33 40469.4 -7.41409 
250 1 89.5516 4.18245 7.5344 5.94781 17822 -22556.7 32473.8 236383 56164.8 47904.3 -7.41831 
353 1 82.486 6.6987 7.53939 5.9267 64837.1 -71026.7 -57137.1 262134 -3626.28 29430.6 -7.41338 
354 1 83.2196 7.91633 7.53977 5.9259 67907.9 -68111.8 68639.1 247544 59081.7 38046.9 -7.42211 
355 1 84.6395 7.91298 7.53905 5.93395 83220.8 -87347.5 -68097.8 219928 -1335.34 31675.7 -7.41306 
356 1 85.3327 6.67502 7.54045 5.92894 53575.1 -55231.2 56616.2 252747 61690 42689.8 -7.42093 
357 1 86.7525 6.6699 7.53921 5.93506 66830.8 -70932.8 -55375.3 219131 1611.05 36792.7 -7.41359 
358 1 87.4869 7.88666 7.54116 5.94326 61949.9 -70416.7 66192.8 209955 59794.6 47450.1 -7.42151 
359 1 88.9068 7.87862 7.53988 5.94586 77423.2 -79391.8 -64107.3 170378 5781.8 37121.8 -7.41338 