ITEM: TIMESTEP
280
ITEM: NUMBER OF ATOMS
12152
ITEM: BOX BOUNDS pp pp pp
0.0000000000000000e+00 9.5721004899999997e+01
0.0000000000000000e+00 1.6579364400000000e+02
0.0000000000000000e+00 1.5000000000000000e+01
ITEM: ATOMS id type x y z c_csym c_2[1] c_2[2] c_2[3] c_2[4] c_2[5] c_2[6] c_3 
152 1 0.896857 8.57729 2.98327 6.00748 -196905 -145255 -9026.45 -51803.3 18198.3 -2339.86 -7.41324 
153 1 0.164121 7.36399 2.97628 6.0061 -156121 -172726 9283.2 -47288.2 42372.7 -5924.97 -7.41488 
154 1 0.847382 6.12159 2.968 6.00087 -193463 -146173 -3209.59 -39690.3 30602.4 -4068.86 -7.41328 
155 1 0.112861 4.90929 2.95848 6.00964 -159300 -173211 2439.4 -29466.1 42505.2 -4038.21 -7.41372 
156 1 0.79424 3.66598 2.94979 6.00411 -183511 -151384 -2520.32 -18332.6 29760.6 -6501.82 -7.41302 
157 1 0.0577555 2.45471 2.94151 6.01776 -161793 -170621 -3500.01 -9011.01 26311.8 -1291.42 -7.41289 
158 1 0.737651 1.21067 2.93684 6.01924 -171383 -160474 -5192.21 -2709.41 12677.3 -8041.21 -7.41268 
159 1 -1.29539e-06 4.51406e-07 2.93437 6.02848 -165752 -165751 -6023.21 4.75775 -1.27557 -0.770672 -7.4126 
288 1 2.31415 8.54535 2.9844 6.00133 -185607 -142278 9981.62 -44016 35206.5 -6179.79 -7.41526 
289 1 2.99698 7.30252 2.97923 6.00645 -221484 -117005 -1631.63 -42486.4 19738.7 -15862.3 -7.41375 
290 1 2.26462 6.08888 2.97031 5.99924 -187551 -145974 3637.97 -29566.4 42112.3 -12528.6 -7.41419 
291 1 2.94595 4.84537 2.96423 6.00258 -210592 -124746 1358.91 -22073.2 26908.1 -23648.6 -7.41363 
292 1 2.21147 3.63288 2.95347 6.00265 -181622 -152899 -1373.67 -6749.05 34363.9 -17044.7 -7.41327 
293 1 2.89147 2.38881 2.94981 6.01014 -190085 -142766 -609.124 -1541.05 20155.7 -29220.7 -7.41324 
294 1 2.15491 1.17746 2.94151 6.01074 -170963 -162119 -4130.41 9349.35 12265.4 -20285.8 -7.41281 
423 1 5.14493 8.48579 2.98852 6.00195 -233582 -99151.7 2444.37 -39089.4 6225.47 -18928.2 -7.41455 
424 1 4.4141 7.27117 2.98258 5.99491 -210699 -124739 695.82 -23181.2 30836.3 -9664.11 -7.41428 
425 1 5.09555 6.0276 2.97937 6.00137 -228061 -103457 6514.86 -19758.8 17135.5 -29195.6 -7.41461 
426 1 4.36306 4.81383 2.97028 5.99549 -205060 -133597 -2424.54 1507.73 31138.5 -19799.3 -7.41354 
427 1 5.04338 3.56985 2.96808 6.00625 -209765 -121518 5888.45 4945.79 19682.6 -38724.4 -7.41427 
428 1 4.30864 2.3573 2.95845 6.00025 -188048 -149340 -2620.65 24574.9 17930.2 -28235.9 -7.41315 
429 1 4.98855 1.11331 2.96001 6.00397 -181695 -151893 1617.64 20582.9 10709.9 -42234.4 -7.41371 
558 1 6.56203 8.45573 2.99107 6.00031 -218033 -116823 -5790.71 -17693 15594.4 -1028.55 -7.41398 
559 1 7.24393 7.21235 2.99012 5.99832 -227480 -96803.4 12781.5 -18281.6 5984 -25018.1 -7.41566 
560 1 6.51261 5.99782 2.98444 5.99816 -217494 -122947 -8059.55 7792.78 19385.8 -11638.8 -7.41347 
561 1 7.1936 4.75413 2.98354 6.00198 -217131 -108336 12713.2 8790.55 13529.8 -34303.8 -7.41545 
562 1 6.46047 3.5405 2.97615 6.00138 -204389 -137102 -6131.86 36589.3 14702.3 -22290.1 -7.41327 
563 1 7.14094 2.29679 2.97707 6.00311 -195591 -134502 7966.73 32031.7 13341.5 -40456.3 -7.41481 
564 1 6.40575 1.08429 2.97026 6.00288 -179922 -158316 -1045.98 54223.5 526.383 -30913.8 -7.41353 
693 1 9.39219 8.39829 2.99627 6.00195 -212275 -104547 19975.3 -21919.1 -273.623 -19856.9 -7.41651 
694 1 8.66105 7.18367 2.99312 6.00624 -212016 -125001 -15977.7 6954 6415.66 -1397.37 -7.41314 
695 1 9.34305 5.9405 2.99301 6.00343 -208072 -110231 19795.4 5138.25 7586.71 -23633.8 -7.41648 
696 1 8.61071 4.72639 2.98858 6.00841 -207215 -134119 -13515.1 38135.1 6091.85 -9390.38 -7.41309 
697 1 9.2921 3.48313 2.98897 6.00478 -197119 -126093 14923.3 33136.1 12141.9 -28014.9 -7.4159 
698 1 8.55811 2.26983 2.98425 6.01129 -191152 -149339 -6601.58 63984.3 -513.506 -17592.9 -7.41349 
699 1 9.23947 1.02679 2.9862 5.99745 -178002 -152774 5875.56 50371.8 10574.6 -28755 -7.41492 
6096 2 0.520404 8.60691 6.41646 6.00198 -143138 -182400 12712.1 51457 36474.4 5435.42 -7.41545 
6097 2 0.569898 6.15263 6.43192 6.00624 -147799 -183457 5887.64 40589.2 43376.7 2313.58 -7.41427 
6098 2 0.623038 3.6985 6.45019 6.0101 -153321 -179604 -609.251 19721.3 35381.8 -2847.13 -7.41324 
6099 2 0.679644 1.24416 6.46315 6.01924 -160814 -170987 -5190.13 3355.16 13300.7 -6961.17 -7.41268 
6100 2 2.30375e-06 6.20684e-06 6.46563 6.02847 -165743 -165825 -6023.02 31.14 -0.320785 -0.908499 -7.4126 
6228 2 1.93796 8.639 6.41556 5.99815 -153358 -187057 -8058.79 44914.7 19773 -10969.6 -7.41347 
6229 2 2.67228 7.42668 6.42062 6.0014 -117522 -214081 6514.09 43980.6 33851.5 -242.418 -7.41461 
6230 2 1.98738 6.18545 6.42971 5.99555 -152775 -185802 -2423.52 31678.9 32715.9 -17070.4 -7.41354 
6231 2 2.72324 4.97396 6.43577 6.00264 -127054 -208205 1357.91 26012.3 33932.3 -11482 -7.41363 
6232 2 2.04044 3.73164 6.44653 6.00265 -154312 -180284 -1373.64 9085.32 31943.4 -21238.7 -7.41327 
6233 2 2.77771 2.52083 6.4502 6.00409 -143488 -191425 -2520.31 4718.86 20508.5 -22524.6 -7.41302 
6234 2 2.09697 1.27738 6.45848 6.01776 -160561 -171919 -3498.49 -8331.33 14272.5 -22143.6 -7.41288 
6235 2 2.8346 0.0666594 6.45628 6.01032 -165863 -167290 -3367.77 -5732.7 -1164.94 -29166.8 -7.41293 
6363 2 4.77645 8.69854 6.41148 6.00195 -98888.2 -233820 2441.59 38636.8 19502.6 4071.32 -7.41455 
6364 2 4.08998 7.45831 6.41742 5.9949 -126255 -209213 697.653 25686.1 23788.4 -21873.6 -7.41428 
6365 2 4.82568 6.24672 6.42076 6.00643 -106471 -232131 -1632.5 23947.9 23606.3 -9163.73 -7.41375 
6366 2 4.14082 5.00566 6.42968 5.9993 -130810 -202722 3637.77 3218.13 31905.9 -30208.2 -7.41419 
6367 2 4.87777 3.79465 6.432 6.00092 -123627 -215994 -3211.35 622.818 18822.2 -24470.2 -7.41328 
6368 2 4.19514 2.55239 6.44151 6.00965 -144135 -188318 2440.22 -20784.4 24748 -34792.4 -7.41372 
6369 2 4.9326 1.34151 6.44002 5.99828 -150447 -186743 -2184.41 -18070.8 5107.69 -36954.3 -7.41329 
6370 2 4.25188 0.0981305 6.44653 6.00422 -165226 -169068 -568.361 -32494.4 4451.72 -33831 -7.41325 
6498 2 6.19427 8.729 6.40924 5.99964 -112392 -216043 6357.98 18025 10442.2 -19452.4 -7.41512 
6499 2 6.92955 7.51709 6.41056 6.0134 -100983 -237740 -8543.4 19897.3 11106.4 -284.819 -7.41357 
6500 2 6.24341 6.27679 6.41559 6.00126 -115126 -212885 9982.47 -3321.86 22956.4 -27399.5 -7.41526 
6501 2 6.97972 5.06535 6.41673 6.00746 -113249 -228719 -9026.91 -3539.43 11124.1 -14590.3 -7.41324 
6502 2 6.29535 3.82413 6.42372 6.00614 -127624 -201223 9281.59 -30848.3 26316.4 -33733.6 -7.41488 
6503 2 7.03234 2.6129 6.42299 5.99701 -135986 -204884 -5722.6 -27529.4 4850.1 -29072.9 -7.41339 
6504 2 6.34999 1.37055 6.42967 6.0033 -151214 -181508 4893.43 -51639.1 16559.1 -35250.6 -7.41417 
6505 2 7.08664 0.158965 6.42568 5.9949 -166162 -170082 652.506 -39594.1 -5410.93 -38871.8 -7.414 
6633 2 9.0338 8.78633 6.40567 6.01449 -109243 -224603 -16670.1 19727.7 3317.9 6827.93 -7.41323 
6634 2 8.34733 7.54617 6.40739 6.00413 -115095 -205693 16941.7 -5145.74 10739 -20687.4 -7.41619 
6635 2 9.0827 6.33409 6.40763 6.01469 -117542 -221448 -17140.8 -2829.74 3477 -1761.32 -7.41298 
6636 2 8.39739 5.09336 6.41116 6.0041 -122417 -199438 16332.5 -33195.2 19846.9 -24236.3 -7.41602 
6637 2 9.13352 3.88155 6.41097 6.00376 -132141 -208215 -12973.7 -29181.4 1103.62 -13052 -7.41319 
6638 2 8.44983 2.63997 6.41541 5.99919 -140250 -186526 11051.9 -59677.5 20198.5 -25970.1 -7.41529 
6639 2 9.18614 1.42808 6.41371 5.99675 -154275 -183358 -4582.28 -48496.5 -4634.27 -23326.1 -7.4139 
6640 2 8.50395 0.185644 6.41743 6.00337 -166210 -168485 2567.62 -72385.2 11588.7 -23751.3 -7.41431 
828 1 10.8094 8.36988 2.99814 6.01501 -193675 -134640 -24133.4 175.621 -1030.24 2065.8 -7.41284 
829 1 11.4926 7.12735 2.9983 6.01045 -190527 -123586 26827.8 -4158.71 6788.8 -17976.8 -7.41716 
830 1 10.7603 5.91333 2.99531 6.01685 -193766 -141361 -21800.8 29719.7 -1623.95 148.251 -7.41279 
831 1 11.4428 4.67066 2.99518 6.00773 -186156 -131164 21902.3 24483.8 12028.5 -16278.1 -7.41671 
832 1 10.7093 3.45713 2.99233 6.01549 -188824 -149103 -14555.5 59103.6 -4453.6 -3780.32 -7.41321 
833 1 11.3915 2.21445 2.99279 6.00228 -178388 -145022 12484.9 48005.3 13435.1 -15256.8 -7.41576 
834 1 10.6567 1.00148 2.99065 6.00642 -175678 -159130 -3647.04 77116.8 -10575 -8475.3 -7.41409 
963 1 13.6425 8.31394 3.0035 6.01429 -179131 -137346 33652.9 -12290 12021.3 -23588.9 -7.4176 
964 1 12.91 7.10009 2.99971 6.02167 -173369 -152019 -29700 19216.4 -3477.21 -556.827 -7.41263 
965 1 13.5937 5.85805 2.9991 6.00968 -172927 -144050 28357.2 13860.7 16147 -14806.9 -7.41722 
966 1 12.8601 4.64466 2.99621 6.01832 -174050 -156761 -22729.3 47132.4 -6461.84 1480.43 -7.41292 
967 1 13.5432 3.40244 2.99566 6.00293 -170370 -148979 19014.6 39167 17680.2 -8696.21 -7.41638 
968 1 12.8087 2.1894 2.99411 6.00852 -172630 -158565 -11458.5 69899.1 -10837.7 1078.69 -7.41369 
969 1 13.4914 0.947086 2.99439 6.00185 -167864 -155622 6278.43 54852.4 15070.7 -4567.29 -7.41522 
1098 1 15.0599 8.28684 3.00605 6.01758 -160571 -155196 -37350.6 16168.8 1222.89 -10748.4 -7.41275 
1099 1 15.7446 7.04531 3.00526 6.00639 -170027 -152720 35119 10059.3 23902.3 -25068.8 -7.41767 
1100 1 15.0111 5.83191 3.00027 6.01784 -158122 -164319 -30567.4 39630.1 -3427.55 -4661.65 -7.41284 
1101 1 15.6951 4.59016 2.99906 5.99963 -164435 -157509 25165.3 34234 25098.5 -13929.7 -7.41686 
1102 1 14.9606 3.37721 2.99601 6.00866 -161171 -164249 -19590.7 62310.9 -8814.85 -378.965 -7.41336 
1103 1 15.6438 2.13516 2.99551 5.99824 -164047 -157347 12442 53382.6 21713.7 -6147.94 -7.41577 
1104 1 14.9087 0.922374 2.99475 6.00339 -165157 -158586 -5470.77 76336.4 -14779.3 652.798 -7.41432 
1233 1 17.8945 8.23389 3.01638 6.00129 -183420 -146855 44422.1 17471.1 31694.7 -40714.7 -7.41839 
1234 1 17.162 7.01989 3.00857 6.00887 -153567 -161843 -38606.5 44091 3650.43 -17482.3 -7.41301 
1235 1 17.8466 5.7785 3.00726 5.99287 -169522 -158730 32791.7 39848.3 34330.2 -27903.3 -7.41746 
1236 1 17.1125 4.56531 3.00096 6.0054 -152403 -167336 -27672.7 64730.2 -3082.02 -11279 -7.41328 
1237 1 17.7962 3.32357 2.99996 5.98982 -163899 -160750 18966.3 60546.6 31164 -17174.1 -7.41635 
1238 1 17.0611 2.11077 2.99655 5.99933 -157879 -162325 -13772.4 81027.5 -11274.3 -7079.13 -7.41395 
1239 1 17.7441 0.868642 2.9971 5.9929 -163604 -156538 4208.34 72633.1 22109.7 -10427.9 -7.41521 
6768 2 10.4515 8.81526 6.40337 6.00718 -127513 -189755 23599.8 -1676.25 2985.41 -19340.1 -7.41683 
6769 2 11.1858 7.60246 6.40288 6.0208 -130223 -200652 -25302.8 3244.67 1117.21 4396.22 -7.41272 
6770 2 10.5003 6.36168 6.4043 6.00857 -131771 -184125 23416.1 -27712.2 12074.2 -16733.3 -7.41687 
6771 2 11.2353 5.14915 6.40428 6.0126 -139469 -194555 -21205.1 -22972.9 -1134.92 -180.485 -7.41286 
6772 2 10.551 3.90781 6.40659 6.00037 -140984 -178140 17975.4 -55711.9 17855.5 -14844 -7.41629 
6773 2 11.2866 2.69544 6.40643 6.00396 -151917 -182404 -12250.2 -46330.5 -5188.94 -6672.77 -7.41352 
6774 2 10.6035 1.45348 6.40883 5.99916 -157521 -169626 8200.75 -75395.5 16751.4 -12374.4 -7.41524 
6775 2 11.339 0.240965 6.40778 6.00077 -166266 -164172 42.333 -56445 -10320.7 -12312.2 -7.41457 
6903 2 13.2888 8.87119 6.3982 6.02176 -138865 -182306 -33018.5 10548.7 5270.27 -438.162 -7.41268 
6904 2 12.6033 7.63026 6.39975 6.01313 -147861 -167288 30129.1 -19655.6 9861.73 -18836.8 -7.41739 
6905 2 13.3372 6.41701 6.39964 6.0198 -149241 -174577 -29121.8 -13910.1 1452.17 1805.19 -7.41269 
6906 2 12.6528 5.17555 6.40143 6.00632 -152400 -161860 25234.1 -45870.4 15903.2 -11331.3 -7.41698 
6907 2 13.3874 3.96259 6.40205 6.01128 -156733 -169488 -20472.8 -38517.2 -3306.17 1276.26 -7.41314 
6908 2 12.704 2.7207 6.40392 6.00107 -158949 -160182 15354.2 -68437 18269.4 -5552.35 -7.41605 
6909 2 13.4391 1.50792 6.40453 6.0051 -163237 -163299 -7875.98 -54533.3 -9394.91 -1241.33 -7.41404 
6910 2 12.7563 0.265723 6.40584 6.00242 -167015 -159597 2198.62 -78108.3 15805.5 -1416.78 -7.41483 
7038 2 14.7062 8.89891 6.39328 6.01195 -157847 -162685 37115.6 -16263.7 15350 -30447.3 -7.41783 
7039 2 15.4392 7.68509 6.39319 6.01773 -149956 -163410 -36779.1 -8901.72 8173.44 -6994.11 -7.4128 
7040 2 14.7546 6.44364 6.39614 6.01186 -164866 -150044 32426.6 -38913.6 19295.6 -18903.9 -7.41746 
7041 2 15.4883 5.23011 6.3971 6.01373 -159777 -156144 -28407.7 -32928.1 2418.22 -2704.06 -7.41302 
7042 2 14.8048 3.98814 6.39983 6.00437 -167118 -147539 22988 -61353.8 21258.8 -8981.42 -7.41665 
7043 2 15.5393 2.77498 6.40134 6.00645 -164207 -154743 -16318.6 -52539.8 -5392.36 -916.259 -7.41364 
7044 2 14.8564 1.53275 6.40344 6.00175 -167248 -151722 9627.1 -75969.3 19615.9 -2211.49 -7.41551 
7045 2 15.5915 0.319877 6.4044 6.0018 -165050 -155722 -1979.85 -60486.7 -14298.1 -1966.93 -7.41462 
7173 2 17.5422 8.95192 6.38304 6.00204 -134882 -170855 -45547.7 -12656 15053 -19669.3 -7.4131 
7174 2 16.8566 7.71107 6.38782 6.01106 -166801 -153085 40519.4 -41364.3 28177.9 -33271.8 -7.41802 
7175 2 17.5896 6.49711 6.38913 6.00458 -151772 -154428 -36449 -35421 9900.82 -14396.5 -7.41319 
7176 2 16.9056 5.25538 6.3935 6.00533 -172403 -142201 30892 -62437.2 28648.8 -21633.3 -7.4172 
7177 2 17.6396 4.04183 6.39546 6.00143 -160798 -148693 -24493 -57346.5 1507.49 -10051.4 -7.41354 
7178 2 16.9566 2.7996 6.39925 6.00024 -171081 -143175 17611.6 -79634.3 25714.4 -12177 -7.41612 
7179 2 17.6914 1.58649 6.40082 5.99688 -163835 -150852 -10586.4 -71538.2 -9979.92 -8276.02 -7.41423 
7180 2 17.0088 0.344164 6.40327 5.99766 -165442 -152003 1987.31 -86877.4 19470 -7069.47 -7.41496 
7308 2 18.9597 8.97595 6.37627 6.00587 -152164 -173445 51206.5 -53802.8 38481.7 -46596.5 -7.41894 
7310 2 19.007 6.52087 6.3839 5.99973 -165855 -151441 40101.2 -73920.6 39166.8 -36994.9 -7.41797 
7312 2 19.0569 4.06522 6.39154 5.99446 -170046 -142703 26255 -93382.7 35349.8 -27355.9 -7.41682 
7314 2 19.1087 1.60958 6.39777 5.98951 -167043 -145825 10264 -106267 27315.8 -20303.6 -7.41563 
1368 1 19.3119 8.21043 3.02227 5.99625 -166067 -144569 -48455.3 60454.9 10578.5 -28865.7 -7.41324 
1369 1 19.9969 6.96923 3.02168 5.98536 -189009 -145328 43930.4 56065.6 42023.6 -42920.1 -7.41843 
1370 1 19.264 5.75519 3.01214 5.99755 -155572 -159955 -36294.1 79809.3 4300.39 -24740.6 -7.41339 
1371 1 19.9481 4.5137 3.01099 5.97877 -174145 -155830 27934.4 78391.5 41680.8 -32335.6 -7.41717 
1372 1 19.2136 3.30048 3.00365 5.99135 -154817 -162426 -22172.3 97625 -5185.39 -20137.2 -7.41381 
1373 1 19.8968 2.05857 3.00369 5.97897 -166527 -156840 11528.5 95076.2 33068.5 -23988.3 -7.41593 
1374 1 19.1614 0.845672 3.00004 5.98808 -160458 -155329 -6398.08 107725 -16527.1 -17924.9 -7.41457 
1503 1 22.1451 8.16408 3.04015 5.98058 -218502 -117883 58520.4 78287.5 45493.3 -52560.1 -7.41975 
1504 1 21.4142 6.94854 3.02912 5.98914 -173649 -139422 -47023.4 103464 9650.36 -33882.9 -7.41347 
1505 1 22.0987 5.70726 3.02837 5.96876 -195459 -137942 40328.1 103119 50045.8 -44896.3 -7.41834 
1506 1 21.3654 4.49301 3.01772 5.98299 -162870 -152744 -31239.6 123927 1265.19 -31863.7 -7.41379 
1507 1 22.049 3.25137 3.0171 5.96382 -178296 -148635 21418 125304 45081.2 -37453.2 -7.4169 
1508 1 21.3141 2.03794 3.00941 5.9762 -160343 -154255 -14942.4 138959 -11367.3 -29684.9 -7.41435 
1509 1 21.9969 0.795961 3.01075 5.96293 -166255 -151842 3791.17 136919 30741.4 -32106.3 -7.41564 
1638 1 23.5622 8.14655 3.04855 5.98533 -201812 -109573 -60852.7 128588 10803 -36214.1 -7.4133 
1639 1 24.2471 6.90546 3.04883 5.96304 -222866 -109757 55233.1 128402 53792.7 -50810.5 -7.41978 
1640 1 23.5159 5.68968 3.03688 5.97785 -182398 -132653 -42411.6 153189 5484.14 -37831.1 -7.4137 
1641 1 24.1998 4.44834 3.03579 5.95173 -198293 -130063 33936.6 156748 54842.5 -46093.7 -7.41815 
1642 1 23.4662 3.23385 3.025 5.96614 -169816 -145093 -24251.3 174669 -5719.02 -37586 -7.41419 
1643 1 24.1493 1.9922 3.02478 5.94833 -177788 -143130 13692.2 177081 44126.4 -41646.4 -7.41661 
1644 1 23.4141 0.778468 3.01765 5.95976 -163072 -148115 -6539.96 185422 -21314.1 -37721.8 -7.41495 
1773 1 26.393 8.10865 3.06856 5.9622 -249877 -78319.8 71122.5 148992 52660.4 -50026 -7.42128 
1774 1 25.6641 6.89112 3.05731 5.97682 -208332 -106352 -56263.5 178140 6293.19 -37686.7 -7.41342 
1775 1 26.3488 5.65012 3.05622 5.94509 -221847 -104530 48123.5 182870 59887.9 -48045.2 -7.41957 
1776 1 25.617 4.43417 3.04421 5.96068 -187942 -128127 -35449.8 206930 -1250 -39756.4 -7.41395 
1777 1 26.3006 3.19293 3.0424 5.93545 -195346 -126149 25398.6 212646 55489.1 -45690.4 -7.41778 
1778 1 25.5665 1.97821 3.0325 5.94851 -172253 -140444 -16008.9 226970 -15572.6 -40655.8 -7.41464 
1779 1 26.2497 0.736844 3.03217 5.9314 -171021 -143201 4945.8 227409 39029.6 -43489.7 -7.41624 
1908 1 27.8099 8.09724 3.07579 5.97804 -233819 -79395.2 -71646.8 194744 4024.8 -33597.6 -7.41295 
1909 1 28.4954 6.85664 3.07523 5.94406 -243544 -78135.9 62993.3 199700 59908.3 -44605.1 -7.421 
1910 1 27.7657 5.63909 3.06364 5.96006 -209921 -107285 -48733 229629 1003.89 -37201.4 -7.41359 
1911 1 28.4502 4.39832 3.06075 5.92815 -215051 -104709 38356.8 237711 62474.9 -44064.9 -7.41907 
1912 1 27.7177 3.18231 3.04953 5.94289 -187950 -127497 -26933.9 259723 -9647.31 -39015 -7.41428 
1913 1 28.4015 1.94139 3.04678 5.92157 -187299 -128243 15544.3 264590 51618.8 -43349.3 -7.41721 
1914 1 27.6669 0.726462 3.03849 5.9313 -168694 -140413 -6870.21 274066 -26889.6 -40614.5 -7.41523 
7309 2 19.6925 7.76173 6.37835 5.98759 -130119 -169819 -46329.4 -46735.1 15339.2 -26143.8 -7.41341 
7311 2 19.7407 5.307 6.38622 5.98609 -147077 -154469 -33069.8 -70715.1 8657.37 -22639.9 -7.41366 
7313 2 19.7915 2.8518 6.39343 5.98329 -157157 -149813 -18868.7 -90697.7 -3181.52 -19767.9 -7.41412 
7315 2 19.844 0.396552 6.39765 5.98044 -162417 -152485 -4085.87 -99959.8 -18570.6 -19715 -7.41487 
7443 2 21.7978 9.02224 6.36721 5.97021 -98727.3 -199015 -59475.2 -63504.4 16344.5 -32493.8 -7.41338 
7444 2 21.1101 7.78282 6.37265 5.98802 -145512 -175027 51768 -92201.9 48717.7 -48339.9 -7.41911 
7445 2 21.8435 6.56872 6.37556 5.96824 -123239 -174138 -43773.6 -89297.3 12886.6 -32412.2 -7.41373 
7446 2 21.1581 5.32798 6.38114 5.98306 -158380 -154446 36349.1 -114605 46407 -41419.3 -7.41779 
7447 2 21.8925 4.11426 6.38332 5.96578 -141872 -158854 -27730.1 -115259 3564.74 -30967.5 -7.41414 
7448 2 21.2089 2.87261 6.38864 5.97779 -163013 -146788 19500.5 -133560 38196.2 -34480.3 -7.41644 
7449 2 21.9441 1.65926 6.38886 5.96344 -155435 -152908 -12201.7 -133314 -12301.7 -30145.2 -7.41473 
7450 2 21.2614 0.417217 6.39267 5.97468 -162232 -149326 2066.13 -142761 25607.9 -30137.9 -7.41525 
7578 2 23.2156 9.04005 6.36258 5.97371 -115562 -206555 65861.9 -111536 53676.8 -52803.9 -7.42053 
7579 2 23.9489 7.82575 6.36636 5.95293 -93956.8 -202903 -57398.2 -108242 12657.6 -36271.5 -7.41352 
7580 2 23.2611 6.5865 6.37079 5.96846 -136575 -176937 48458.2 -137033 55080 -49875 -7.41909 
7581 2 23.9953 5.37249 6.37334 5.94927 -119658 -178339 -38621.9 -139416 7636.37 -37770 -7.41403 
7582 2 23.31 4.13193 6.37812 5.96333 -150266 -157203 30047.6 -162793 49505.3 -45055.1 -7.41752 
7583 2 24.0451 2.91823 6.3788 5.94621 -141111 -161612 -21087.2 -166993 -5418.43 -37924.4 -7.4146 
7584 2 23.3615 1.67681 6.38293 5.95931 -158112 -149267 11518.9 -181066 37293.9 -40278.9 -7.41608 
7585 2 24.097 0.463279 6.38025 5.94522 -159744 -151653 -4327.41 -181227 -24999.1 -38779.2 -7.41542 
7713 2 26.0572 9.07778 6.36047 5.94253 -64767.8 -232739 -72745.9 -123873 8759.49 -34635.6 -7.41303 
7714 2 25.3667 7.84017 6.36307 5.95412 -109380 -203873 62245.2 -155273 58599.7 -51824.3 -7.42057 
7715 2 26.1006 6.62584 6.36609 5.93728 -94769.4 -203083 -51863.3 -158429 7730.78 -38983.4 -7.41369 
7716 2 25.4129 5.38671 6.36913 5.94857 -130653 -175271 42069 -186974 57849 -49863.5 -7.41887 
7717 2 26.1477 4.17263 6.3703 5.93252 -122227 -178212 -31688.9 -194414 -256.075 -41001 -7.41434 
7718 2 25.4625 2.93226 6.37344 5.94363 -146799 -156747 22005.8 -215193 48888.5 -46041.4 -7.41714 
7719 2 26.198 1.71834 6.37176 5.92979 -147264 -159015 -13372.3 -220651 -17479.6 -42020.5 -7.41512 
7720 2 25.5143 0.477215 6.37364 5.94285 -159714 -147316 2735.43 -230359 33272.8 -42482.1 -7.41568 
7848 2 27.4752 9.08918 6.35888 5.94308 -82333.2 -228911 76563.7 -166719 56808.3 -48885.1 -7.42202 
7849 2 28.2085 7.87448 6.36239 5.93074 -71904.3 -226722 -66354.9 -170035 4457.95 -35823.2 -7.41315 
7850 2 27.5184 6.63684 6.36346 5.93577 -108323 -195886 55263.3 -202092 61134.7 -49331.2 -7.42034 
7851 2 28.2527 5.42234 6.36499 5.92424 -102609 -197823 -44020.9 -211610 1690.14 -39526.5 -7.41391 
7852 2 27.5653 4.18325 6.36644 5.92993 -130772 -169390 33612.8 -238901 57603.1 -47073.8 -7.41843 
7853 2 28.3005 2.96892 6.36567 5.91917 -131715 -172145 -23619.7 -249090 -10405.2 -41342.2 -7.4147 
7854 2 27.6154 1.72873 6.3666 5.9273 -150388 -152019 12903.2 -266185 45035 -43480.8 -7.41663 
7855 2 28.3508 0.514323 6.36238 5.9181 -159912 -149903 -4628.87 -269298 -30984.5 -42435.6 -7.41573 
2043 1 30.6397 8.06729 3.09102 5.94716 -259704 -55971.4 77697.5 206803 56224.4 -38465.7 -7.42234 
2044 1 29.9122 6.84823 3.08087 5.96292 -230096 -86903.1 -63135.6 240541 686.395 -32059.5 -7.41314 
2045 1 30.5978 5.60798 3.07759 5.92679 -232400 -83696.3 52041 249991 64620.8 -38717.3 -7.4204 
2046 1 29.8672 4.39056 3.06632 5.94267 -205997 -112248 -39264.2 279035 -4917.84 -34413 -7.41386 
2047 1 30.5518 3.15016 3.06175 5.91396 -204348 -110480 27293.1 287727 60714.6 -39180.2 -7.41832 
2048 1 29.8186 1.93413 3.05196 5.92587 -183010 -130371 -17396.4 305604 -19267.2 -35859 -7.41474 
2049 1 30.5028 0.693746 3.04844 5.91161 -175868 -135812 5179.99 306368 43956.2 -39372.4 -7.41649 
2178 1 32.0564 8.06086 3.09466 5.96389 -244667 -69903.2 -77501.2 240950 -1902.66 -26147.2 -7.41264 
2179 1 32.7432 6.82118 3.09162 5.92991 -244599 -66765.4 65900.6 250620 62824.5 -32047.1 -7.42169 
2180 1 32.0147 5.60243 3.08122 5.94602 -221739 -97700.5 -52402.3 284416 -2502.23 -28591.4 -7.41341 
2181 1 32.7004 4.36259 3.07564 5.9121 -218708 -93517.1 39885.3 296088 65589.6 -32872 -7.41952 
2182 1 31.9688 3.14538 3.06531 5.92599 -198228 -119395 -28726.1 321936 -12038.5 -29863.3 -7.41424 
2183 1 32.6538 1.90545 3.05973 5.904 -191904 -120198 16041.9 328242 54751.3 -33939.5 -7.41742 
2184 1 31.92 0.689406 3.05174 5.91133 -174535 -135308 -7095.77 339645 -29816.5 -31276.9 -7.41537 
2313 1 34.8868 8.03708 3.10211 5.9358 -250354 -55511.5 79458.8 242551 58344.6 -25599.7 -7.42289 
2314 1 34.1601 6.81719 3.09323 5.95109 -232263 -85996.3 -65755.1 278415 -2728.72 -22730.3 -7.41296 
2315 1 34.8471 5.57794 3.08742 5.91473 -228322 -80276.8 52908.4 291841 66517 -26196.4 -7.42076 
2316 1 34.1173 4.35959 3.07743 5.92976 -210803 -109369 -40623.4 323593 -6765.13 -23820.5 -7.41377 
2317 1 34.8032 3.12017 3.07056 5.90134 -204884 -105748 27739.7 334714 62364 -27535.2 -7.41849 
2318 1 34.0709 1.90316 3.06171 5.91156 -188575 -126807 -17724.9 354790 -20838.7 -24565.5 -7.41475 
2319 1 34.7563 0.663742 3.0561 5.89898 -179787 -131765 5196.11 355997 45707.1 -28745.3 -7.41649 
2448 1 36.3036 8.03408 3.10166 5.9547 -236361 -78253.5 -78949.7 264388 -5158.13 -17400.5 -7.41251 
2449 1 36.992 6.79545 3.09624 5.92038 -231941 -72094.4 66016.5 278356 64217.6 -20126.5 -7.42197 
2450 1 36.264 5.57611 3.08737 5.93531 -218655 -101830 -52916.2 313411 -4249.91 -18307.8 -7.41333 
2451 1 36.9511 4.33724 3.08001 5.90295 -213068 -94680 39974.1 328178 66416.8 -21242.3 -7.41965 
2452 1 36.2202 3.11929 3.07109 5.91544 -199612 -119759 -28697.3 355424 -13109 -18618.8 -7.41421 
2453 1 36.9064 1.88025 3.0642 5.89539 -192287 -118317 16205.6 363342 55389.9 -22841 -7.41742 
2454 1 36.1735 0.663385 3.05721 5.90067 -178935 -132828 -6598.97 375327 -31042.3 -19423.4 -7.41543 
7983 2 30.3189 9.11911 6.36139 5.92903 -53773.9 -244400 -80717.4 -174370 -552.346 -30311.9 -7.41252 
7984 2 29.6264 7.88283 6.36102 5.92728 -87749.3 -213965 68931 -207631 59522 -45249.1 -7.42177 
7985 2 30.36 6.66783 6.36276 5.92143 -85518.7 -215288 -57366.7 -218131 477.834 -35037.9 -7.41337 
7986 2 29.6704 5.43007 6.3626 5.92001 -113796 -183503 46184 -249825 61834.9 -44456.8 -7.41983 
7987 2 30.4049 4.21524 6.36244 5.91426 -116293 -187197 -34943.7 -263708 -5616.34 -37609.6 -7.41419 
7988 2 29.718 2.97617 6.36223 5.91515 -137779 -160303 24061.8 -288052 54570.9 -41427.6 -7.41779 
7989 2 30.4531 1.76137 6.35945 5.90999 -146511 -160980 -14755.2 -297323 -22072.4 -38887.8 -7.41514 
7990 2 29.7681 0.521395 6.35795 5.91634 -160675 -144256 3145.37 -309393 38387.7 -38041.9 -7.41602 
8118 2 31.737 9.12552 6.36049 5.92386 -71751.3 -226968 82384.6 -205439 54608 -39465.9 -7.42306 
8119 2 32.4695 7.90996 6.36231 5.92284 -72732.8 -227338 -70956.4 -215750 -2834.49 -29211 -7.41279 
8120 2 31.7778 6.67339 6.36115 5.91381 -99051 -195585 59302.9 -249181 61640.6 -39710 -7.42122 
8121 2 32.5113 5.45801 6.36126 5.91421 -103444 -200021 -47092.2 -265338 -3752.54 -32231.6 -7.41365 
8122 2 31.8225 4.22005 6.36019 5.9077 -124932 -169238 36080.8 -294971 60552.2 -37480.4 -7.41907 
8123 2 32.5569 3.0048 6.35844 5.90726 -133828 -173114 -25317.7 -309849 -14362.6 -33786.7 -7.41455 
8124 2 31.8704 1.76573 6.35661 5.90534 -150128 -150019 14028.1 -329375 48755.4 -34029.1 -7.41701 
8125 2 32.6051 0.550324 6.35201 5.904 -163677 -146591 -5152.37 -333917 -34226.5 -34368.4 -7.41573 
8253 2 34.581 9.14964 6.36205 5.92576 -65132.3 -232770 -84312.8 -207295 -7145.66 -23166.6 -7.41222 
8254 2 33.8874 7.91405 6.3606 5.91295 -88388.2 -203458 72515.7 -240238 58133.6 -34086.7 -7.42251 
8255 2 34.6199 6.69804 6.36074 5.91559 -94715.9 -208153 -59831.5 -257240 -4435.49 -26390.9 -7.41311 
8256 2 33.929 5.4611 6.35933 5.90331 -114445 -176689 48654.4 -289486 62663.9 -32646.2 -7.4204 
8257 2 34.6625 4.2453 6.35819 5.90615 -123769 -183266 -36446.8 -308511 -9095.84 -28110 -7.41399 
8258 2 33.9744 3.00715 6.35642 5.89923 -140001 -155815 25595 -334099 56764.3 -29508.5 -7.41816 
8259 2 34.7086 1.79139 6.35331 5.90117 -152331 -157674 -15401.7 -346086 -24434.6 -28930.8 -7.41501 
8260 2 34.0224 0.552366 6.34995 5.90071 -165038 -140547 3772.98 -359046 40545.5 -26344.8 -7.41619 
8388 2 35.999 9.15287 6.35949 5.91632 -82695.1 -206385 85505.3 -226063 52582.5 -28340.1 -7.42369 
8389 2 36.7301 7.93618 6.35955 5.92036 -90467.3 -210533 -72913.4 -242677 -6915.65 -20758.8 -7.4126 
8390 2 36.0376 6.7001 6.3583 5.90388 -107807 -180790 61511.3 -275169 61389.6 -27562.7 -7.4217 
8391 2 36.7699 5.48366 6.35745 5.90908 -117445 -189195 -48301.8 -296668 -6586.71 -22547.5 -7.41348 
8392 2 36.0801 4.24635 6.35611 5.8963 -132196 -159925 37622.6 -326050 61638.5 -24995.3 -7.41941 
8393 2 36.8134 3.03012 6.35412 5.90036 -143920 -166707 -25876.3 -344456 -16190.5 -23527.3 -7.4144 
8394 2 36.1259 1.79181 6.35169 5.89479 -156096 -144755 15032.9 -364117 50279 -21736 -7.4172 
8395 2 36.8597 0.575514 6.3475 5.89637 -169285 -142840 -5195.65 -369893 -35250.8 -23757.2 -7.41563 
8524 2 38.1479 7.93775 6.35597 5.90872 -105436 -180785 74468.6 -255786 57547.5 -22540.9 -7.42292 
8526 2 38.1874 5.48402 6.35461 5.89704 -127882 -161141 49999.9 -309022 63208.6 -20658.1 -7.42069 
8528 2 38.2308 3.02956 6.35219 5.89281 -149746 -146635 26578.4 -356710 57865.8 -17664.2 -7.41834 
8530 2 38.2769 0.574543 6.34652 5.89401 -170694 -136677 4530.62 -383086 41636.4 -14941.9 -7.41628 
2583 1 39.1355 8.01439 3.10139 5.92778 -229616 -69482.5 78978.9 259116 59522.6 -14899.6 -7.42313 
2584 1 38.4089 6.79426 3.09426 5.94103 -220498 -97493.1 -65474.4 294837 -4446.68 -13487.2 -7.41291 
2585 1 39.0974 5.55597 3.08711 5.90755 -215325 -88122.5 52522.5 311923 66995.4 -15598.3 -7.42087 
2586 1 38.368 4.33719 3.07895 5.92076 -205842 -115177 -40061.8 344053 -7786.22 -13584.5 -7.41374 
2587 1 39.0552 3.0986 3.07144 5.89533 -199845 -108235 27729.4 357658 62368.7 -17176.6 -7.4185 
2588 1 38.3235 1.881 3.06417 5.90415 -189362 -127539 -17087.1 377973 -21729.9 -13686.7 -7.41477 
2589 1 39.01 0.642306 3.05841 5.89424 -182121 -129820 5356.6 380553 45798.4 -18652 -7.41642 
2718 1 40.5524 8.01342 3.09744 5.94716 -216348 -96988.4 -78118.6 271475 -6775.93 -9316.06 -7.41249 
2719 1 41.2424 6.77575 3.09102 5.91424 -211800 -86755.9 65228.1 289553 64539.8 -10693.9 -7.42207 
2720 1 40.5143 5.55629 3.08434 5.92669 -206202 -113505 -51881.7 323910 -5293.17 -9329.07 -7.41332 
2721 1 41.2027 4.31821 3.07689 5.89811 -201479 -102409 39659.8 341821 66113.8 -11982.5 -7.41967 
2722 1 40.4722 3.09995 3.07007 5.90901 -194856 -124946 -27805.4 368753 -13970.1 -9068.02 -7.41422 
2723 1 41.1594 1.86156 3.06369 5.89221 -189544 -120018 16288.6 378732 54908.5 -13740.9 -7.41738 
2724 1 40.4271 0.644176 3.05847 5.89638 -181379 -132018 -5877.84 390171 -31968.6 -9405.4 -7.41547 
2853 1 43.3863 7.996 3.0912 5.92168 -202340 -90741.8 77937.9 264217 59685.7 -6356.9 -7.42323 
2854 1 42.6593 6.77607 3.08648 5.93321 -200790 -115215 -64115.5 298319 -5450.88 -5643.43 -7.41292 
2855 1 43.3491 5.53855 3.0797 5.90321 -197489 -101537 51916.7 318949 66550.4 -7274.1 -7.4209 
2856 1 42.6198 4.31974 3.07403 5.91443 -194579 -125379 -38928.5 350075 -8659.84 -5277.06 -7.41376 
2857 1 43.3079 3.08174 3.06757 5.89265 -191063 -114385 27616.8 366383 61572.5 -9024.58 -7.41848 
2858 1 42.5765 1.86389 3.0626 5.90062 -186671 -130816 -16285.9 385910 -22634.8 -5022.99 -7.4148 
2859 1 43.2637 0.625653 3.05828 5.89345 -182555 -129326 5480.56 390566 45095.5 -10597 -7.41638 
2988 1 44.8033 7.99603 3.08495 5.93936 -189348 -120684 -76591.8 270174 -7699.7 -2364.86 -7.4125 
2989 1 45.4946 6.75912 3.07932 5.90951 -187427 -105884 64404.2 292133 63994.1 -2922.07 -7.4221 
2990 1 44.7662 5.53992 3.07531 5.92067 -188566 -129043 -50573.8 324827 -6138.77 -1985.58 -7.41334 
2991 1 45.4556 4.3024 3.06936 5.89539 -186756 -113517 39327.7 345869 65172.5 -4457.95 -7.41967 
2992 1 44.725 3.08416 3.06519 5.90479 -186163 -132740 -26899.1 371580 -14867.2 -1478.04 -7.41424 
2993 1 45.4129 1.84617 3.06068 5.89134 -184285 -123689 16299.6 384079 53898.6 -6377.82 -7.41736 
2994 1 44.6808 0.628575 3.05789 5.89523 -181669 -132541 -5322.32 394433 -32950.2 -1532.06 -7.4155 
3123 1 47.6395 7.97945 3.07563 5.91636 -172129 -115774 76941 264233 59057.6 1294.23 -7.42325 
3124 1 46.9117 6.76006 3.07351 5.92683 -176370 -136056 -62736.7 295800 -6232.09 1047.87 -7.41294 
3125 1 47.6025 5.52309 3.06858 5.8998 -176519 -117752 51390 319838 65557.9 47.0671 -7.42089 