ITEM: TIMESTEP
0
ITEM: NUMBER OF ATOMS
12152
ITEM: BOX BOUNDS pp pp pp
0.0000000000000000e+00 9.5721004899999997e+01
0.0000000000000000e+00 1.6579364400000000e+02
0.0000000000000000e+00 1.5000000000000000e+01
ITEM: ATOMS id type x y z c_csym c_2[1] c_2[2] c_2[3] c_2[4] c_2[5] c_2[6] c_3 
152 1 0.819 8.586 3 6.02496 -154511 -141829 -41505.8 -3417.74 47994.9 -3200.72 -7.41273 
153 1 0.095 7.367 3 6.01967 -134493 -157558 -42344.2 -7924.18 51663.6 -1839.19 -7.41298 
154 1 0.788 6.13 3 6.02431 -147700 -159867 -50537.5 -10394.3 44073.7 -4948.87 -7.41271 
155 1 0.063 4.912 3 6.02437 -134609 -169795 -54417.4 -8087.37 40654.1 -1018.35 -7.41273 
156 1 0.756 3.675 3 6.02108 -143087 -147124 -59114.2 -6935.5 30928.9 -5916.74 -7.41194 
157 1 0.032 2.456 3 6.02216 -138119 -150921 -61630.1 -4631.8 22669.5 -305.611 -7.41188 
158 1 0.725 1.219 3 6.02418 -133250 -129515 -63480.6 10419.9 11431.2 -6653.1 -7.41185 
159 1 0 0 3 6.02705 -130832 -144710 -64319.9 18359.6 -24.339 105.674 -7.41207 
288 1 2.237 8.568 3 6.02464 -131454 -138015 -35662.1 14619.2 52818 -12992.3 -7.41328 
289 1 2.93 7.331 3 6.02546 -150931 -142897 -42980.3 -2273.25 44154.6 -18865 -7.41289 
290 1 2.206 6.112 3 6.02134 -138134 -153371 -47733.3 1712.75 46525.3 -15762.9 -7.41276 
291 1 2.899 4.875 3 6.02464 -140853 -127142 -51734.8 8149.35 36320.5 -22791.5 -7.41221 
292 1 2.174 3.656 3 6.0239 -129080 -135908 -56975.9 8801.61 31580 -17843.1 -7.41205 
293 1 2.867 2.419 3 6.02224 -150619 -179977 -58570.9 -24311.1 20698.2 -25093.1 -7.41235 
294 1 2.143 1.201 3 6.02154 -143067 -161068 -62103.3 -30828.9 11244.9 -18898.1 -7.41187 
423 1 5.073 8.532 3 6.0239 -142747 -127845 -32511.5 4333.3 39351.9 -27421.7 -7.41332 
424 1 4.348 7.313 3 6.02464 -132809 -138085 -39313.2 15388.7 46850.8 -24415.5 -7.41285 
425 1 5.041 6.076 3 6.02134 -148135 -144844 -41275.7 -3543 36865.1 -33875.8 -7.41309 
426 1 4.317 4.857 3 6.02546 -138806 -153585 -49075.5 4235.3 36894.1 -29695.6 -7.41257 
427 1 5.01 3.62 3 6.02464 -137358 -129208 -48688.1 8514.19 26589.2 -38705.3 -7.41261 
428 1 4.285 2.401 3 6.02471 -130386 -134066 -55200.4 15951.5 19953 -33323.5 -7.41235 
429 1 4.978 1.164 3 6.02331 -144467 -161754 -53538.9 -11835.7 9984.94 -41058.4 -7.41236 
558 1 6.491 8.513 3 6.01969 -136877 -159716 -30747.2 1648.5 41934.5 -26192.3 -7.41339 
559 1 7.184 7.276 3 6.02431 -149028 -163008 -28312.2 -12955.9 32836.7 -38432 -7.41386 
560 1 6.459 6.058 3 6.02431 -137415 -172673 -40104.4 -2093.87 36810.6 -34237.2 -7.41326 
561 1 7.152 4.821 3 6.01969 -144932 -150532 -36158.6 -10171.5 27901.5 -45359 -7.4131 
562 1 6.428 3.602 3 6.02362 -140781 -154463 -46243.3 4187.56 24886.9 -40690.4 -7.41248 
563 1 7.121 2.365 3 6.02418 -134571 -132749 -42332 6357.6 16710.2 -49722.3 -7.41301 
564 1 6.396 1.146 3 6.02468 -133287 -146627 -48924.9 22373.5 7451.53 -44609.8 -7.41287 
693 1 9.326 8.477 3 6.02546 -151639 -146887 -15084 -5160.11 25579.3 -36808.9 -7.4143 
694 1 8.602 7.258 3 6.02134 -137949 -157053 -31443.9 8431.68 31875.5 -31451.4 -7.41362 
695 1 9.295 6.021 3 6.02464 -142434 -131494 -21893.2 4997.9 25329.1 -44762.1 -7.41372 
696 1 8.57 4.802 3 6.0239 -129264 -140635 -36810.6 15422.1 24808.1 -39932.8 -7.41312 
697 1 9.263 3.565 3 6.0231 -151602 -186124 -29084.5 -28161.7 19314.1 -50636 -7.41377 
698 1 8.539 2.347 3 6.02311 -147183 -188076 -39784.4 -14352.1 12363 -46100.7 -7.41333 
699 1 9.232 1.11 3 6.02182 -127533 -117603 -34433.3 9825.68 8867.55 -53177.6 -7.41292 
6096 2 0.599 8.604 6.4 6.02334 -120462 -126210 -36183.7 7129.91 53249.8 -1463.4 -7.41293 
6097 2 0.63 6.149 6.4 6.02313 -135271 -174162 -48727.5 10119 46844.6 -3681.17 -7.41259 
6098 2 0.662 3.693 6.4 6.02461 -123577 -119615 -58233.6 3663.71 31926.4 -5251.43 -7.41168 
6099 2 0.693 1.237 6.4 6.02628 -128321 -135249 -63536.5 -10273.4 11549.5 -6411.39 -7.41174 
6100 2 0 0 6.4 6.02658 -132958 -145024 -64367.4 -3138.63 15.4596 64.2555 -7.4117 
6228 2 2.017 8.623 6.4 6.01968 -148614 -144531 -39922.2 7872.12 48128.8 -14895.9 -7.41314 
6229 2 2.741 7.404 6.4 6.02495 -140453 -155702 -41053.8 6541.08 47796.8 -15037.9 -7.41273 
6230 2 2.048 6.167 6.4 6.02385 -138353 -125510 -48935.2 -13531.6 44217.2 -17143.3 -7.41294 
6231 2 2.773 4.948 6.4 6.02464 -130807 -135112 -51889.1 -8015.09 37773 -20220.3 -7.41245 
6232 2 2.08 3.711 6.4 6.02511 -142874 -145560 -57189.9 1830.82 31110.9 -18765.1 -7.41237 
6233 2 2.804 2.492 6.4 6.02273 -138329 -150499 -58485 4326.15 20741.9 -23856.4 -7.41219 
6234 2 2.111 1.255 6.4 6.02555 -132915 -131035 -61584.1 -12819.7 11632.9 -19095.9 -7.41186 
6235 2 2.836 0.036 6.4 6.02352 -135257 -143894 -61271.4 -10391.1 -218.883 -25614.3 -7.41188 
6363 2 4.852 8.659 6.4 6.02546 -138739 -157136 -32404.9 7227.89 43519.2 -20272.6 -7.41343 
6364 2 4.159 7.422 6.4 6.02464 -143281 -125537 -39460.4 -12632.2 44614.4 -28260 -7.4131 
6365 2 4.884 6.203 6.4 6.02417 -130080 -136959 -43144.1 -5237.48 38345.6 -28841.7 -7.41303 
6366 2 4.191 4.966 6.4 6.02362 -148864 -145767 -47784.8 1109.8 36798 -32352 -7.41238 
6367 2 4.915 3.747 6.4 6.01968 -136711 -155721 -50808.6 11962.4 26271.4 -35617.6 -7.41236 
6368 2 4.222 2.51 6.4 6.02431 -142220 -164201 -54416.5 7218.08 21239.7 -34743.3 -7.41252 
6369 2 4.947 1.292 6.4 6.02432 -139266 -166613 -54295.7 14800.5 8604.84 -40087 -7.4126 
6370 2 4.254 0.055 6.4 6.01897 -135304 -129302 -56743.4 -8051.92 856.597 -35278.2 -7.41186 
6498 2 6.27 8.677 6.4 6.02464 -146450 -126634 -27475.8 -11536.6 40083.1 -33075.1 -7.41345 
6499 2 6.995 7.458 6.4 6.0239 -128627 -141779 -34004.4 2080.39 33982.2 -30187.6 -7.41326 
6500 2 6.302 6.221 6.4 6.02311 -155497 -181007 -35724.1 19979.1 37651.1 -39269.4 -7.41344 
6501 2 7.026 5.003 6.4 6.0231 -144871 -190786 -41188.6 30411.5 26764.7 -39877.5 -7.41317 
6502 2 6.333 3.766 6.4 6.0239 -135834 -132509 -42557.1 -9685.27 27468.8 -43751.4 -7.41279 
6503 2 7.058 2.547 6.4 6.02464 -133082 -136606 -45584.7 -2549.73 14132 -46971.8 -7.41254 
6504 2 6.365 1.31 6.4 6.02134 -141223 -150633 -47798.3 -3377.42 10979.6 -45679.1 -7.41272 
6505 2 7.089 0.091 6.4 6.02446 -141637 -164651 -45870.1 2199.43 -1553.82 -50262.2 -7.413 
6633 2 9.106 8.714 6.4 6.02431 -136497 -175519 -26729.1 19623.7 26030.3 -25160.8 -7.41396 
6634 2 8.413 7.477 6.4 6.01968 -148769 -149219 -21798.3 3022.38 33838.7 -39364.1 -7.41382 
6635 2 9.137 6.258 6.4 6.02362 -139844 -158114 -32557.1 12646.7 23150.7 -36276 -7.41319 
6636 2 8.444 5.021 6.4 6.02417 -138980 -130598 -29141.3 -15559.7 29105 -45277.9 -7.41374 
6637 2 9.169 3.802 6.4 6.02464 -131103 -138532 -36134.8 -2336.95 15088 -45616.9 -7.41327 
6638 2 8.476 2.565 6.4 6.02546 -144205 -151025 -35476.6 -4461.23 18094.8 -48739.8 -7.41326 
6639 2 9.2 1.346 6.4 6.02287 -138939 -155441 -37158.3 9333.8 3809.99 -51442.9 -7.41328 
6640 2 8.507 0.109 6.4 6.0246 -136410 -147471 -39046.4 -11550.3 3077.91 -49119.2 -7.41314 
828 1 10.744 8.459 3 6.02464 -131998 -140600 -25396.7 20405.8 23602.5 -23253.5 -7.41358 
829 1 11.437 7.222 3 6.02134 -149219 -149051 -8802.01 -6995.24 20213.9 -38607.2 -7.41474 
830 1 10.713 6.003 3 6.02546 -138687 -157470 -29145.8 9613.35 20752.9 -32436.7 -7.41361 
831 1 11.406 4.766 3 6.02464 -139130 -133669 -15294.8 4972.41 18622.1 -45002.2 -7.4143 
832 1 10.681 3.547 3 6.02417 -131109 -138225 -31139 21348.2 12809.2 -40054.6 -7.41365 
833 1 11.374 2.31 3 6.02362 -145042 -154974 -21810.1 -10587.2 12704.6 -48747.7 -7.41367 
834 1 10.65 1.091 3 6.0209 -143468 -168462 -30725.5 9350.55 1600.8 -44876.2 -7.41342 
963 1 13.58 8.422 3 6.02431 -149516 -166303 3213.86 -16836.4 14337 -29879.7 -7.41543 
964 1 12.855 7.204 3 6.02431 -136715 -174453 -24327.9 1419.51 13961.1 -21262.1 -7.41407 
965 1 13.548 5.967 3 6.01969 -146308 -153916 -3163.67 -13855.8 15922.6 -35435.1 -7.41478 
966 1 12.824 4.748 3 6.02362 -140730 -157648 -25386.1 8232.04 9912.8 -28907.7 -7.41356 
967 1 13.517 3.511 3 6.02417 -137091 -135211 -9451.47 2999.91 13850 -39225.3 -7.41474 
968 1 12.792 2.292 3 6.02467 -132191 -139383 -23622.3 21995.3 2570.58 -34707.4 -7.41387 
969 1 13.485 1.055 3 6.02547 -145415 -167783 -15621.6 -17234.8 8708.75 -40356.9 -7.4143 
1098 1 14.998 8.404 3 6.02134 -136598 -156041 -22884.1 9814.59 6490.75 -9676.68 -7.41404 
1099 1 15.691 7.167 3 6.02464 -143362 -133463 7631.92 1138.61 13128.2 -25137.2 -7.41521 
1100 1 14.966 5.948 3 6.0239 -128668 -141036 -22280.8 17558.6 4852.8 -16028.5 -7.41386 
1101 1 15.659 4.711 3 6.02067 -153322 -187791 1372.13 -31562.4 13456.3 -27702.6 -7.41531 
1102 1 14.935 3.493 3 6.0231 -147712 -191909 -19578.9 -9429 919.628 -21705.2 -7.41403 
1103 1 15.628 2.256 3 6.02419 -133906 -139543 -5578.81 1636.52 11327.1 -29169.4 -7.41475 
1104 1 14.903 1.037 3 6.02468 -134634 -150242 -15600.2 26961.4 -5171.31 -25899 -7.41458 
1233 1 17.833 8.368 3 6.02512 -148131 -150740 16120.1 -12308.3 11729.8 -17645.1 -7.41608 
1234 1 17.109 7.149 3 6.02628 -137450 -155010 -22415.2 9801.38 49.9084 -5154.51 -7.41393 
1235 1 17.802 5.912 3 6.02656 -138088 -134435 10198.2 3359.47 13338.7 -18056.5 -7.4158 
1236 1 17.077 4.693 3 6.0242 -129055 -139450 -18881.9 22630.3 -2226.05 -9336.83 -7.41414 
1237 1 17.77 3.456 3 6.0231 -153586 -188768 3019.78 -30833.3 12972.6 -18182 -7.41514 
1238 1 17.046 2.238 3 6.02067 -148055 -188509 -14027.2 -11540 -5859.68 -13200.9 -7.41462 
1239 1 17.739 1.001 3 6.02182 -129821 -116456 -4537.09 6354.65 10769 -17576.5 -7.41455 
6768 2 10.524 8.732 6.4 6.02134 -151246 -146892 -9162.29 -3133.8 26871.2 -34305.1 -7.41472 
6769 2 11.248 7.513 6.4 6.02546 -137707 -158429 -26240.4 11805.2 16719.6 -27037.4 -7.41376 
6770 2 10.555 6.276 6.4 6.02464 -141346 -131499 -15305.7 -16619 26845.1 -40459.2 -7.41431 
6771 2 11.28 5.057 6.4 6.02417 -129982 -139483 -28863.2 -738.596 12690.3 -37230.3 -7.41378 
6772 2 10.587 3.82 6.4 6.02362 -147593 -152040 -21993.2 -3341.74 20953.5 -44945.7 -7.41371 
6773 2 11.311 2.601 6.4 6.01969 -137612 -159214 -28879.8 16225.7 5281.11 -44833.3 -7.41349 
6774 2 10.618 1.364 6.4 6.02433 -142717 -168898 -27060.3 2114.09 10852.5 -46519.1 -7.41399 
6775 2 11.343 0.146 6.4 6.02372 -136731 -149091 -26462.9 29169.8 -4025.76 -48776.9 -7.41378 
6903 2 13.359 8.768 6.4 6.02299 -136936 -157929 -23277.5 11951.8 9343.85 -15110.2 -7.41391 
6904 2 12.666 7.531 6.4 6.02464 -144315 -131973 -2867.42 -15865.9 21955.2 -32199.5 -7.4147 
6905 2 13.391 6.312 6.4 6.0239 -127460 -141940 -24080.6 4741.53 8023.62 -24837.3 -7.41389 
6906 2 12.698 5.075 6.4 6.0231 -154027 -186595 -8682.86 15441.2 20519.7 -36308.1 -7.4148 
6907 2 13.422 3.857 6.4 6.02311 -145350 -192445 -23208.1 33399.3 3927.58 -32720.4 -7.4141 
6908 2 12.729 2.62 6.4 6.0239 -135109 -138020 -14905.1 -14354.3 14920.5 -38449.5 -7.41421 
6909 2 13.454 1.401 6.4 6.02467 -134005 -140013 -20334.8 476.092 -2312.04 -38291.7 -7.41378 
6910 2 12.761 0.164 6.4 6.02222 -144911 -167738 -20283.2 -1042.02 6441.8 -38044.8 -7.41407 
7038 2 14.777 8.786 6.4 6.02461 -143901 -134057 8077.63 -16772.3 16119.3 -23595 -7.41512 
7039 2 15.502 7.567 6.4 6.02236 -134332 -174997 -22748.5 -12376.7 3116.36 -11737.6 -7.41414 
7040 2 14.809 6.331 6.4 6.01968 -154196 -187290 2996.72 -18748.3 17926.3 -26067.7 -7.41539 
7041 2 15.533 5.112 6.4 6.0231 -138422 -159734 -20821.7 14338.6 903.813 -18743.3 -7.41366 
7042 2 14.84 3.875 6.4 6.02417 -138043 -134663 -3854.49 -20078.2 16277.7 -27860.6 -7.41502 
7043 2 15.565 2.656 6.4 6.02464 -132077 -138609 -17277.2 -512.565 -2741.79 -24668 -7.41423 
7044 2 14.872 1.419 6.4 6.02546 -143340 -155451 -10236.2 -8541.79 11358.7 -27977.7 -7.41451 
7045 2 15.596 0.2 6.4 6.02446 -144180 -168731 -12099.7 4760.25 -7305.66 -28201.9 -7.41448 
7173 2 17.613 8.823 6.4 6.02431 -134579 -171704 -23970.4 20040.5 -366.719 -1912.43 -7.41405 
7174 2 16.92 7.586 6.4 6.01968 -147670 -152284 12246.6 -2725.35 15046.7 -17908.5 -7.41566 
7175 2 17.644 6.367 6.4 6.02413 -138890 -155682 -21346.3 13620.5 -1676.13 -6630.48 -7.41373 
7176 2 16.951 5.13 6.4 6.02413 -140129 -133980 5951.89 -20887.5 15872 -18014.3 -7.41538 
7177 2 17.676 3.911 6.4 6.02464 -131137 -137474 -17100.3 -524.863 -4258.72 -11416.9 -7.41422 
7178 2 16.983 2.674 6.4 6.02546 -145363 -153422 -1321.03 -8966.45 14123.8 -17595.2 -7.41499 
7179 2 17.707 1.455 6.4 6.02287 -139641 -155683 -11309.7 12095.6 -7438.24 -15183.1 -7.41456 
7180 2 17.014 0.218 6.4 6.0246 -137738 -148996 -7760.71 -15265.1 10266.3 -15935.7 -7.41472 
7308 2 19.031 8.841 6.4 6.02134 -150541 -149159 19923.2 -8313.96 13346.6 -14115.2 -7.41618 
7310 2 19.062 6.385 6.4 6.02464 -141395 -132886 13968.6 -21425.5 15518.4 -11920.7 -7.41578 
7312 2 19.094 3.929 6.4 6.02362 -148346 -152505 6592.82 -7416.11 15591.6 -9889.66 -7.41513 
7314 2 19.125 1.473 6.4 6.02433 -143772 -168357 -1073.27 -955.114 13747.3 -7820.34 -7.41529 
1368 1 19.251 8.35 3 6.02464 -121365 -121544 -24610.1 7021.39 -3214.67 1058.54 -7.41339 
1369 1 19.945 7.113 3 6.02413 -179579 -117885 17460.8 -12092.1 14577 -12643.1 -7.41626 
1370 1 19.22 5.894 3 6.02931 -128153 -139327 -20674.9 22547.8 -4790.96 -793.438 -7.41381 
1371 1 19.913 4.657 3 6.02877 -136712 -136551 10189.1 2963.91 15065.3 -10833.9 -7.41557 
1372 1 19.188 3.438 3 6.02417 -131257 -135421 -15324.3 22094.9 -7423.73 -3170.46 -7.41442 
1373 1 19.881 2.201 3 6.02217 -143250 -154771 2070.9 -15459.1 13760.3 -9146.69 -7.41507 
1374 1 19.157 0.982 3 6.02337 -144307 -166790 -8833.57 11216.1 -10696.1 -5570.02 -7.4145 
1503 1 22.087 8.313 3 6.02335 -146863 -171258 24181.5 -19835.9 17908.3 -12563.4 -7.41628 
1504 1 21.362 7.095 3 6.02292 -174530 -153340 -23504 -12402.5 -5641.85 2308.9 -7.41422 
1505 1 22.056 5.858 3 6.02221 -177563 -120432 16564.3 -16441.1 18341.9 -8614.31 -7.41595 
1506 1 21.331 4.639 3 6.02699 -130346 -138374 -18503.1 20254.6 -8152.85 1888.11 -7.41365 
1507 1 22.024 3.402 3 6.02498 -134588 -137925 7869.16 2225.72 17332 -5401.25 -7.41537 
1508 1 21.299 2.183 3 6.02465 -123411 -121285 -11404.8 9362.29 -11216 703.476 -7.41425 
1509 1 21.993 0.946 3 6.02451 -177223 -132488 -841.934 -19193.7 14799.6 -2764.13 -7.41509 
1638 1 23.505 8.295 3 6.02359 -125173 -135785 -26535.4 20311.5 -4109.39 -310.762 -7.41358 
1639 1 24.198 7.058 3 6.02699 -140993 -137468 22986.2 -175.873 23253.6 -11710.8 -7.41577 
1640 1 23.473 5.839 3 6.02221 -166628 -119980 -21438.8 3211.97 -7226.32 1288.24 -7.41399 
1641 1 24.167 4.602 3 6.02292 -184554 -153116 13923.9 -32313.2 21974.9 -7011.76 -7.41613 
1642 1 23.442 3.384 3 6.02335 -135721 -171851 -15168.9 210.84 -10680.3 1702.6 -7.41424 
1643 1 24.135 2.147 3 6.0236 -133322 -138279 4266.27 -3269.69 19147.7 -3330.61 -7.41499 
1644 1 23.41 0.928 3 6.02386 -168363 -97352 -7055.52 -4517.65 -14341.1 710.291 -7.41455 
1773 1 26.341 8.259 3 6.02413 -180880 -118415 30651.2 -10451.6 28890.9 -18937.3 -7.41695 
1774 1 25.616 7.04 3 6.03041 -126178 -136099 -23925.9 20101 -4244.14 -4152.61 -7.41357 
1775 1 26.309 5.803 3 6.03041 -138017 -137755 20737.4 2229.89 27666.7 -13174.8 -7.41589 
1776 1 25.584 4.584 3 6.02413 -168456 -117001 -18234.7 7767.65 -8524.1 -2388.94 -7.41439 
1777 1 26.278 3.347 3 6.02464 -178245 -119080 10405 -11989.4 24551.2 -8610.06 -7.4155 
1778 1 25.553 2.128 3 6.02504 -129079 -137500 -10849.6 15654.5 -13220.5 -2087.35 -7.4142 
1779 1 26.246 0.891 3 6.02584 -133717 -149449 468.553 -5952.88 19784.2 -5356.91 -7.4151 
1908 1 27.758 8.241 3 6.02292 -172821 -152438 -24276.5 -14406.6 70.7901 -12346.2 -7.41413 
1909 1 28.452 7.004 3 6.02221 -178236 -122442 29397.5 -14626.7 33625.7 -21952.9 -7.41662 
1910 1 27.727 5.785 3 6.02699 -128192 -137213 -19867.2 17870.3 -4778.61 -9860.02 -7.41352 
1911 1 28.42 4.548 3 6.02359 -135686 -138394 17996.8 3063.27 30611.3 -16928.5 -7.41587 
1912 1 27.695 3.329 3 6.02464 -169721 -117980 -13334.6 7410.87 -10465.4 -8630.9 -7.41449 
1913 1 28.389 2.092 3 6.02456 -174318 -120320 7368.51 -9175.43 25359.3 -13262 -7.41553 
1914 1 27.664 0.873 3 6.02835 -133197 -150310 -5397.74 27176.4 -16392 -8982.24 -7.41454 
7309 2 19.755 7.622 6.4 6.02546 -136187 -153227 -23716.6 10873.4 -2724.4 824.921 -7.41383 
7311 2 19.787 5.166 6.4 6.02417 -129317 -135356 -19236.7 -966.825 -5073.09 -1835.17 -7.41421 
7313 2 19.818 2.71 6.4 6.01968 -137722 -156222 -13233 17028 -8025.54 -4599.91 -7.41424 
7315 2 19.85 0.255 6.4 6.02372 -133453 -150320 -6004.88 29271.5 -11212.4 -7045.94 -7.41487 
7443 2 21.866 8.877 6.4 6.02134 -132140 -151505 -26849.7 11731.9 -1588.39 2338.46 -7.41398 
7444 2 21.173 7.64 6.4 6.02464 -144132 -132640 20782.4 -19942.5 16378.3 -10970.3 -7.41587 
7445 2 21.898 6.421 6.4 6.02359 -124438 -136972 -22414.9 1451.91 -4345.62 2161.51 -7.41399 
7446 2 21.205 5.184 6.4 6.02311 -154348 -185955 13357.5 12006 17282 -7045.48 -7.4159 
7447 2 21.929 3.966 6.4 6.02166 -142441 -187748 -16615.5 34093.4 -7692.67 1117.62 -7.41457 
7448 2 21.236 2.729 6.4 6.0239 -135755 -136133 5023.5 -16784.9 16512 -3825.03 -7.41518 
7449 2 21.961 1.51 6.4 6.02653 -131484 -138306 -9182.98 -1479.22 -11406.9 -610.792 -7.41428 
7450 2 21.268 0.273 6.4 6.02466 -135778 -150455 -3502.68 -15393.8 14231.5 -1272.37 -7.41469 
7578 2 23.284 8.895 6.4 6.02431 -140881 -153131 27799.2 12315.4 19115.9 -15200.8 -7.41651 
7579 2 24.009 7.677 6.4 6.0248 -131346 -172066 -25460.5 16555.4 -1699.77 240.636 -7.4137 
7580 2 23.316 6.44 6.4 6.02246 -137400 -138823 19788.6 -17161.7 20172.6 -9556.43 -7.41572 
7581 2 24.041 5.221 6.4 6.02464 -169596 -118962 -20043.8 12196.6 -5892.66 994.885 -7.41393 
7582 2 23.347 3.984 6.4 6.02413 -129366 -118695 11004.9 -9113.44 19655.7 -5008.52 -7.41555 
7583 2 24.072 2.765 6.4 6.03069 -128711 -137938 -13229.6 -3725.84 -10476.2 649.828 -7.41414 
7584 2 23.379 1.528 6.4 6.02784 -133831 -137973 1649.05 -22235.7 17485.1 -1477.19 -7.41486 
7585 2 24.104 0.309 6.4 6.02428 -175314 -131390 -4727.95 3677.4 -15127.9 -806.887 -7.415 
7713 2 26.12 8.932 6.4 6.02699 -126407 -136819 -26624.8 -2648.62 2475.46 -6115.97 -7.41318 
7714 2 25.427 7.695 6.4 6.02359 -139703 -136494 27152.3 -21711.4 24464 -16479 -7.41636 
7715 2 26.152 6.476 6.4 6.02464 -167235 -117579 -22560.6 8403.73 -2361.35 -4084.82 -7.41403 
7716 2 25.458 5.239 6.4 6.02464 -179262 -117906 17475.7 -9397.78 23734.9 -10799 -7.41612 
7717 2 26.183 4.02 6.4 6.02359 -127145 -136589 -16414.5 -3547.64 -7943.56 -3143.31 -7.41407 
7718 2 25.49 2.783 6.4 6.02699 -137031 -137432 7586.31 -20026.7 21435 -6346.13 -7.41496 
7719 2 26.215 1.564 6.4 6.02271 -170265 -119022 -8797.58 14702 -14003.4 -3552.82 -7.4147 
7720 2 25.521 0.327 6.4 6.02451 -174962 -129792 -2184.86 -215.889 17676.2 -3382.51 -7.41536 
7848 2 27.538 8.95 6.4 6.03041 -141346 -138178 35777.3 -20990.5 29583.4 -25607.7 -7.41669 
7849 2 28.263 7.731 6.4 6.02413 -165602 -117845 -22859.5 7976.94 2134.18 -12130.6 -7.41414 
7850 2 27.569 6.494 6.4 6.02464 -181900 -119365 25540.9 -6776.55 28870.2 -19619.8 -7.4163 
7851 2 28.294 5.275 6.4 6.0236 -124419 -139867 -18140.1 603.564 -4021.67 -10521.7 -7.41373 
7852 2 27.601 4.038 6.4 6.02335 -142741 -172670 14549.6 241.111 26250.4 -14579.4 -7.41576 
7853 2 28.326 2.82 6.4 6.02292 -175957 -153649 -11259.1 29608.6 -11221.2 -10088.7 -7.41481 
7854 2 27.632 1.583 6.4 6.02221 -173772 -119396 4375.29 -3171.42 21952.9 -11000.1 -7.41537 
7855 2 28.357 0.364 6.4 6.0251 -126179 -117309 -2797.87 10062.1 -18587.1 -10928.9 -7.41434 
2043 1 30.594 8.204 3 6.02699 -141566 -141461 39995.6 2700.7 38869.2 -30845.9 -7.41668 
2044 1 29.869 6.985 3 6.02221 -164252 -121991 -19013.6 299.058 -165.705 -18613.8 -7.41406 
2045 1 30.563 5.748 3 6.02431 -136776 -157778 27841.5 -30100.1 36627.5 -26380.6 -7.41649 
2046 1 29.838 4.53 3 6.0248 -132712 -173694 -14016.5 -1154.53 -6423.45 -17056.5 -7.41427 
2047 1 30.531 3.293 3 6.02245 -132522 -142599 15939.1 -794.407 31465 -22562 -7.4155 
2048 1 29.806 2.074 3 6.02466 -170879 -121348 -6864.23 4019.78 -13489.2 -16574.8 -7.41454 
2049 1 30.5 0.837 3 6.02471 -127242 -134524 5026.09 -15657.1 24247.2 -19921.1 -7.41512 
2178 1 32.012 8.186 3 6.02656 -124712 -136822 -16456.5 20184 4136.77 -25970.6 -7.41437 
2179 1 32.705 6.949 3 6.02628 -148045 -156947 39402 -7407.77 41356.1 -34171.5 -7.41707 
2180 1 31.981 5.73 3 6.02134 -132682 -154317 -12315.2 3568.43 -1799.98 -24931.3 -7.41468 
2181 1 32.674 4.493 3 6.02464 -139060 -139064 26765 3286.8 37279.3 -31153.7 -7.41617 
2182 1 31.949 3.274 3 6.02359 -125117 -139442 -6318.65 14346.2 -9385.11 -24362 -7.41476 
2183 1 32.642 2.037 3 6.02279 -149491 -189549 14646.2 -28592.2 30242.1 -28702.4 -7.41602 
2184 1 31.918 0.819 3 6.02009 -140294 -166846 1369.75 -28176.7 -17783.7 -24759.2 -7.41528 
2313 1 34.848 8.15 3 6.0239 -139311 -143522 53046.3 1258.7 43978.1 -38534.8 -7.4177 
2314 1 34.123 6.931 3 6.02464 -129019 -138897 -9046.59 16094.2 2083.52 -30172.5 -7.41431 
2315 1 34.816 5.694 3 6.02134 -145487 -158440 38997.8 -6378.04 41699.9 -36772.6 -7.41717 
2316 1 34.092 4.475 3 6.02546 -136076 -156533 -4143.09 4820.18 -4970.48 -30129.2 -7.41478 
2317 1 34.785 3.238 3 6.02464 -135402 -140589 26367.5 6331.46 35880 -35064.9 -7.4164 
2318 1 34.06 2.019 3 6.02471 -128884 -139359 2940.73 17019.7 -13858.1 -30516.6 -7.41524 
2319 1 34.753 0.782 3 6.02331 -142759 -170678 15142.7 -13061.1 27123 -33811.1 -7.4158 
2448 1 36.266 8.131 3 6.01969 -133279 -160931 -5050.48 74.1607 4444.91 -31608.8 -7.41463 
2449 1 36.959 6.894 3 6.02431 -145808 -177812 52975 -13689.6 44173.6 -38319.7 -7.41802 
2450 1 36.234 5.676 3 6.02431 -134089 -175649 -420.403 -4286.13 -1385.18 -32586.1 -7.41521 
2451 1 36.927 4.439 3 6.01968 -142195 -163139 39242.7 -10346.9 40211.1 -37805.8 -7.41692 
2452 1 36.203 3.22 3 6.02362 -138216 -159446 5646.61 2144.11 -9555.41 -33350.8 -7.41505 
2453 1 36.896 1.983 3 6.02418 -132160 -143098 26950.9 7143.11 32755.3 -37213.4 -7.41651 
2454 1 36.171 0.764 3 6.02468 -131525 -153786 13506.7 21121.4 -19394.5 -34313.9 -7.41599 
7983 2 30.374 8.986 6.4 6.02221 -163771 -122193 -21329.7 12862.8 6519.68 -20776.3 -7.41397 
7984 2 29.68 7.749 6.4 6.02292 -187591 -155581 35230.1 13900.5 34365.4 -29283.8 -7.41727 
7985 2 30.405 6.531 6.4 6.02335 -131714 -173768 -17301.1 16100.9 521.381 -19366.7 -7.41409 
7986 2 29.712 5.294 6.4 6.0236 -135422 -141799 23821.6 -14821.5 31846.2 -24272.7 -7.41592 
7987 2 30.437 4.075 6.4 6.02464 -169722 -120487 -11828.8 9121.14 -7163.21 -18442.8 -7.41433 
7988 2 29.743 2.838 6.4 6.02413 -175104 -119669 12417.3 -7202.9 27060.2 -20259.4 -7.41597 
7989 2 30.468 1.619 6.4 6.02783 -128497 -140303 -4186.8 -5111.36 -15724.8 -18550.9 -7.41452 
7990 2 29.775 0.382 6.4 6.02835 -134260 -152211 2053.79 -13661 20735.6 -17636.5 -7.4148 
8118 2 31.791 9.005 6.4 6.02221 -179592 -125858 47653.4 234.161 39255.1 -37026.2 -7.41761 
8119 2 32.516 7.786 6.4 6.02699 -126495 -141314 -14749.7 -3622.21 4523.69 -26915.7 -7.41379 
8120 2 31.823 6.549 6.4 6.02498 -137068 -141789 34885.9 -19722.5 37408.2 -33037.1 -7.41677 
8121 2 32.548 5.33 6.4 6.02464 -118835 -123248 -10109.9 7289.6 -2745.24 -26494.1 -7.4143 
8122 2 31.854 4.093 6.4 6.02464 -176217 -122730 22704.6 -5287.39 32800.3 -29394.6 -7.41639 
8123 2 32.579 2.874 6.4 6.02366 -126719 -140859 -3730.74 -5821.07 -11594.7 -26397.6 -7.41472 
8124 2 31.886 1.637 6.4 6.0265 -133142 -140829 11143.4 -18329.8 25972.1 -26458.2 -7.4153 
8125 2 32.611 0.418 6.4 6.02352 -134131 -151024 4521.13 -6785.34 -21318.1 -27083.9 -7.41515 
8253 2 34.627 9.041 6.4 6.02628 -134670 -157225 -11166.7 7865.71 6948.48 -31224.5 -7.41443 
8254 2 33.934 7.804 6.4 6.02656 -138950 -140572 47977.1 -18621.1 41802.3 -38767.9 -7.41777 
8255 2 34.659 6.585 6.4 6.02417 -126498 -138964 -6958.63 -5354.84 1029.38 -31992.5 -7.41479 
8256 2 33.966 5.348 6.4 6.02217 -145552 -158591 34571.6 -975.733 38208.5 -36091.1 -7.41678 
8257 2 34.69 4.129 6.4 6.02107 -133941 -159894 -1555.33 11800.8 -7207.52 -32377.6 -7.41479 
8258 2 33.997 2.892 6.4 6.02434 -139422 -174869 22407.5 2522.8 31763.1 -33596.6 -7.4166 
8259 2 34.722 1.674 6.4 6.02432 -137248 -173163 5874.33 15152.8 -17151.6 -32966.3 -7.4156 
8260 2 34.029 0.437 6.4 6.01897 -134643 -136993 11647.8 -9991.91 23156.2 -31646.6 -7.41529 
8388 2 36.045 9.059 6.4 6.02464 -143871 -142496 62572.7 -13761.7 44210.3 -40453.3 -7.41809 
8389 2 36.77 7.84 6.4 6.0239 -125276 -143794 -3133.57 -294.235 3215.05 -33725 -7.41476 
8390 2 36.077 6.603 6.4 6.02311 -153640 -194822 48166.2 18106.8 42348.5 -39187.2 -7.41772 
8391 2 36.801 5.385 6.4 6.02311 -141695 -194621 1871.66 27504.7 -3456.16 -35057.2 -7.41531 
8392 2 36.108 4.148 6.4 6.0239 -134478 -144170 35104.9 -10705.3 37153.8 -37407.2 -7.41673 
8393 2 36.833 2.929 6.4 6.02464 -130309 -142457 8473.89 -5205.88 -12675 -35949 -7.41522 
8394 2 36.14 1.692 6.4 6.02134 -139967 -160018 23277.5 -3264.07 28967.7 -35701.4 -7.41629 
8395 2 36.864 0.473 6.4 6.02446 -139198 -172686 16508.4 363.534 -22913.5 -36562.5 -7.41613 
8524 2 38.188 7.859 6.4 6.01968 -146307 -164072 62956.2 3229.54 44503.9 -37937.8 -7.41819 
8526 2 38.219 5.403 6.4 6.02417 -136889 -143429 48878.1 -14696.2 41276.7 -37270.5 -7.41771 
8528 2 38.251 2.947 6.4 6.02546 -142167 -161713 35671.2 -2497.83 34450.4 -36090.8 -7.41686 
8530 2 38.282 0.491 6.4 6.0246 -134181 -156055 25032.9 -8415.58 25257.2 -34772.8 -7.41636 
2583 1 39.101 8.095 3 6.02546 -148245 -162430 67392.9 -3718.76 44219.6 -35408.4 -7.41855 
2584 1 38.377 6.876 3 6.02134 -134827 -160276 3451.2 4116.27 809.53 -31007 -7.41534 
2585 1 39.07 5.639 3 6.02464 -139163 -145074 52970.3 6839.84 42873.6 -36156.8 -7.41756 
2586 1 38.345 4.42 3 6.0239 -126147 -145462 9248.48 10772.7 -5985.44 -32386.4 -7.4154 
2587 1 39.038 3.183 3 6.0231 -148502 -197536 39440.7 -25468.3 37231.7 -36487.4 -7.41725 
2588 1 38.314 1.965 3 6.02311 -144456 -194668 15948.3 -18514.5 -15098.7 -33638.6 -7.41611 
2589 1 39.007 0.728 3 6.02182 -125938 -124443 28103.4 13785.8 28575.1 -36436.6 -7.41619 
2718 1 40.519 8.077 3 6.02464 -129874 -144444 6205.75 14697.6 1070.47 -25823 -7.41516 
2719 1 41.212 6.84 3 6.02134 -145773 -163395 66272.4 -3129.59 43527.2 -30411.4 -7.4186 
2720 1 40.488 5.621 3 6.02546 -135726 -162530 12153.7 3085.94 -3475.59 -27761 -7.41568 
2721 1 41.181 4.384 3 6.02464 -135562 -146086 52038.7 9467.86 40372.8 -31592.3 -7.41775 
2722 1 40.456 3.165 3 6.02417 -127861 -144681 18774.5 14800.1 -11397.6 -29164.9 -7.41616 
2723 1 41.149 1.928 3 6.02362 -141417 -165435 39525.8 -5168.15 33268.1 -32154.7 -7.41678 
2724 1 40.425 0.709 3 6.02337 -140341 -176522 26702.2 3446.82 -20960.4 -30453.2 -7.41631 
2853 1 43.355 8.04 3 6.02431 -146256 -181318 79151.9 -10928.6 42409.5 -21452.2 -7.41938 
2854 1 42.63 6.822 3 6.02431 -134632 -180332 13954.7 -6346.22 -2488.04 -20127.4 -7.41602 
2855 1 43.323 5.585 3 6.01968 -142601 -167326 63587.7 -7564.42 41928.4 -23193.7 -7.41821 
2856 1 42.599 4.366 3 6.02362 -137589 -164587 20407.2 -20.1676 -8361.11 -21664.7 -7.41587 
2857 1 43.292 3.129 3 6.02417 -133051 -146876 50604.6 10010.6 36993.6 -24327.7 -7.41781 
2858 1 42.567 1.91 3 6.02467 -128580 -147537 28128.7 13973 -17028.6 -22800 -7.41648 
2859 1 43.26 0.673 3 6.02547 -141291 -177754 39061.6 -9391.89 28648.3 -25020.8 -7.41708 
2988 1 44.773 8.022 3 6.02134 -135979 -163315 13485.7 1219.67 -2713.78 -10758.8 -7.41592 
2989 1 45.466 6.785 3 6.02464 -139824 -147726 74461.4 9179.76 42208.2 -12386.5 -7.41869 
2990 1 44.741 5.566 3 6.0239 -126288 -149088 20897 8214.67 -6427.94 -11822.2 -7.41606 
2991 1 45.434 4.329 3 6.0231 -149184 -200696 60333.4 -23026.9 39490.3 -13774.6 -7.41835 
2992 1 44.71 3.111 3 6.02311 -142634 -200264 28104.5 -20774.1 -13354.2 -13025.1 -7.4167 
2993 1 45.403 1.874 3 6.02389 -129604 -151272 47819.6 5463.09 32871.9 -15049.3 -7.41737 
2994 1 44.678 0.655 3 6.02468 -132189 -160619 36438 16014.5 -22667.4 -14015.2 -7.41698 
3123 1 47.608 7.986 3 6.02299 -147349 -165061 83163.5 -1054.11 41689.6 -1083.24 -7.41937 
3124 1 46.884 6.767 3 6.02546 -136337 -164571 18982.5 -211.627 -5106.56 -1580.68 -7.41608 
3125 1 47.577 5.53 3 6.02464 -136563 -147774 68467.5 11538.2 41218.8 -2085.55 -7.41861 
3126 1 46.852 4.311 3 6.02417 -127595 -147137 26433.3 12058.7 -10367.4 -1956.19 -7.41659 
3127 1 47.545 3.074 3 6.02362 -142802 -166577 54912.3 -2830.79 36251.4 -3233.93 -7.41764 
3128 1 46.821 1.855 3 6.02019 -135694 -166761 34073.1 -5827.17 -18547.5 -2592.07 -7.41678 
3129 1 47.514 0.618 3 6.02461 -133439 -160690 43815.4 1072.96 28189.4 -4184.48 -7.41737 
8523 2 38.881 9.096 6.4 6.02431 -134209 -177844 -53.4719 15656.8 3277.12 -31427 -7.41527 
8525 2 38.912 6.64 6.4 6.02362 -136950 -161829 5408.21 7652.53 -1123.27 -33757.2 -7.41507 
8527 2 38.944 4.184 6.4 6.02464 -127982 -143867 11571.9 -7542.74 -8656.76 -35236.7 -7.41565 
8529 2 38.975 1.728 6.4 6.02287 -135855 -162682 18660.2 4650.52 -18299.5 -36022.8 -7.41607 
8658 2 40.299 9.114 6.4 6.02134 -148623 -162480 77525.6 -838.308 44082.1 -32865.4 -7.41922 
8659 2 41.023 7.895 6.4 6.02546 -135831 -162495 7665.74 5401.96 -478.566 -28813.5 -7.41546 
8660 2 40.33 6.658 6.4 6.02464 -138720 -145260 62615.4 -13845.6 43506.6 -33166.2 -7.41832 
8661 2 41.055 5.439 6.4 6.02417 -127148 -144826 14067.9 -7840.98 -5751.02 -30869.1 -7.41593 
8662 2 40.362 4.202 6.4 6.02362 -144969 -163834 48716.9 320.055 38826.8 -32623.9 -7.41731 
8663 2 41.086 2.983 6.4 6.01968 -134228 -166022 20871 9191.81 -13906.5 -31993.5 -7.416 
8664 2 40.393 1.746 6.4 6.02433 -139849 -178774 36806.6 6905.04 30881.1 -31609 -7.41722 
8665 2 41.118 0.528 6.4 6.02372 -133116 -157638 29403.9 22763.5 -23827 -32347.7 -7.4166 
8793 2 43.134 9.15 6.4 6.02134 -136016 -162522 7963.37 4806.24 -1552.23 -21102.8 -7.41563 
8794 2 42.441 7.913 6.4 6.02464 -141552 -146579 75956.9 -11167.5 43581.6 -25875.8 -7.41878 
8795 2 43.166 6.694 6.4 6.0239 -126196 -148316 15110.3 -3421.81 -4086.18 -23465.8 -7.41576 
8796 2 42.473 5.457 6.4 6.0231 -150970 -199463 61163.8 20781 41580.1 -25776.5 -7.4184 
8797 2 43.197 4.239 6.4 6.02311 -142240 -199543 22169.6 24627.1 -10251 -24718 -7.4164 
8798 2 42.504 3.002 6.4 6.0239 -131771 -149196 48308.4 -8069.47 35636.5 -24974 -7.41743 
8799 2 43.229 1.783 6.4 6.02467 -130141 -148440 29909.2 -8035.51 -19096.5 -25243.4 -7.41633 
8800 2 42.536 0.546 6.4 6.02222 -141280 -177292 36994 6242.66 26752 -24018.3 -7.41698 
8928 2 44.552 9.168 6.4 6.0243 -148979 -181785 88321.4 7230.48 41512 -16468.2 -7.41963 
8929 2 45.277 7.95 6.4 6.02261 -135157 -180833 14451.3 11570.9 -3654.96 -14143.4 -7.41606 
8930 2 44.584 6.713 6.4 6.01968 -143991 -167413 72959.8 5425.79 42591.5 -16359.5 -7.4187 