ITEM: TIMESTEP
352
ITEM: NUMBER OF ATOMS
23816
ITEM: BOX BOUNDS pp pp pp
0.0000000000000000e+00 1.3400400500000001e+02
0.0000000000000000e+00 2.3210174599999999e+02
0.0000000000000000e+00 1.5000000000000000e+01
ITEM: ATOMS id type x y z c_csym c_2[1] c_2[2] c_2[3] c_2[4] c_2[5] c_2[6] c_3 
215 1 0.875838 8.57941 2.88606 6.01813 -169896 -151497 -2833.41 -16661.8 11858.8 -2913.16 -7.41379 
216 1 0.143978 7.36526 2.88315 6.02418 -156560 -164983 2510.97 -11611.8 13456.5 -1260.64 -7.41394 
217 1 0.829117 6.12402 2.88077 6.02259 -166517 -154511 -718.66 -8133.04 8151.94 -2426.23 -7.4137 
218 1 0.0966335 4.91019 2.87877 6.02643 -157470 -163597 1097.18 -4854.02 7948.91 -849.499 -7.41371 
219 1 0.781349 3.66874 2.87735 6.02577 -163784 -157192 272.306 -3042.45 4691.08 -1834.09 -7.41362 
220 1 0.0484976 2.45512 2.87624 6.02828 -158773 -162165 606.848 -1205.54 3538.47 -433.643 -7.41359 
221 1 0.732997 1.21356 2.87568 6.02852 -161386 -159462 546.954 -626.128 1491.17 -1229.39 -7.41358 
222 1 -9.1688e-06 2.11063e-05 2.87541 6.02972 -160302 -160519 554.478 -12.9945 -1.19777 -0.319109 -7.41356 
405 1 2.29334 8.55151 2.8867 6.01996 -164227 -157577 2932.95 -13708.5 16247.2 -3865.61 -7.4141 
406 1 2.97852 7.31022 2.8843 6.02009 -174792 -146436 -625.172 -11569.6 10043 -7152.25 -7.41382 
407 1 2.2466 6.09608 2.88137 6.02309 -162275 -158972 1128.75 -5289.17 10193.6 -3539.26 -7.41381 
408 1 2.93134 4.8546 2.87991 6.02359 -169351 -151758 513.709 -4880.87 6426.33 -5999.73 -7.41372 
409 1 2.19881 3.64078 2.87791 6.0256 -161135 -159896 458.936 -260.303 5178.57 -3221.29 -7.41365 
410 1 2.88333 2.39921 2.87735 6.02671 -164514 -156434 748.77 -1267.9 3042.32 -4873.37 -7.41364 
411 1 2.15046 1.18558 2.87623 6.02735 -160478 -160355 451.355 1986.86 1197.89 -2975.97 -7.41359 
594 1 5.1271 8.49722 2.88967 6.01736 -186330 -135543 687.957 -13786.9 12333.4 -12592.7 -7.41407 
595 1 4.39598 7.28259 2.8858 6.01733 -169943 -151652 175.012 -4617.15 12730 -6291.52 -7.41393 
596 1 5.08076 6.04108 2.88433 6.02103 -177866 -143723 1714.21 -5477.56 8715.62 -11005.9 -7.41394 
597 1 4.34879 4.82691 2.88136 6.02154 -165973 -155194 -442.025 1880.09 7092.19 -6135.52 -7.41374 
598 1 5.03333 3.58533 2.8808 6.02447 -170287 -151008 1639.81 -569.892 5144.93 -9379.78 -7.41381 
599 1 4.30078 2.37148 2.87876 6.02432 -162783 -158194 -163.651 5349.56 2476.75 -6046.18 -7.41365 
600 1 4.98528 1.12992 2.87906 6.02539 -163418 -157690 899.003 1589.8 1662.82 -7912.94 -7.41371 
783 1 6.54452 8.47017 2.89204 6.01017 -180923 -141192 -2138.46 -2462.39 15364.8 -8967.84 -7.41405 
784 1 7.22934 7.22861 2.89061 6.01729 -189427 -132626 4300.4 -4389.36 11352.3 -16732.5 -7.41429 
785 1 6.49818 6.01394 2.88668 6.01569 -173872 -147628 -2494.85 5708.07 9260.46 -9172.28 -7.41383 
786 1 7.18275 4.77233 2.88613 6.02191 -179116 -142847 3690.38 1975.82 7757.37 -14788.8 -7.4141 
787 1 6.45076 3.55812 2.88312 6.02001 -167871 -153383 -1712.67 10455.4 3986.93 -9340.56 -7.41374 
788 1 7.13529 2.31654 2.88344 6.02288 -169270 -152207 2194.28 5297.65 4120.66 -12895.1 -7.41393 
789 1 6.40273 1.10265 2.88137 6.02212 -162587 -158497 -282.614 12474.7 -414.458 -9634.22 -7.41374 
972 1 9.37682 8.41767 2.89857 6.0106 -203806 -118503 8564.86 -1485.06 14002.3 -22734.4 -7.4148 
973 1 8.64671 7.20232 2.89378 6.00855 -184846 -136964 -6024.92 11312.2 11461 -12041.7 -7.41391 
974 1 9.33133 5.96068 2.89327 6.01679 -190749 -131645 7275.89 6601.38 10651.2 -20752.4 -7.41455 
975 1 8.60014 4.74593 2.88932 6.01495 -176027 -145561 -4564.27 17609 5675.83 -12664.4 -7.41382 
976 1 9.28471 3.50434 2.88968 6.0201 -178183 -143896 4842.36 11238.4 7029.72 -18642.5 -7.4143 
977 1 8.55271 2.29006 2.88666 6.01844 -167715 -153581 -2186.24 20829 645.6 -13284.6 -7.41384 
978 1 9.23743 1.04862 2.88789 6.01673 -166050 -155796 1749.69 12986.6 3235.99 -16620.2 -7.41408 
11937 2 0.541591 8.6066 6.51387 6.02195 -153697 -168273 3688.7 16761.2 16681.7 677.693 -7.4141 
11938 2 0.58833 6.15164 6.5192 6.02457 -155328 -166059 1638.96 8237.74 10693.2 234.099 -7.41381 
11939 2 0.636115 3.69664 6.52265 6.02679 -157176 -163818 746.592 3042.37 5740.5 -199.994 -7.41364 
11940 2 0.684472 1.24159 6.52432 6.02852 -159319 -161591 546.89 678.431 1811.41 -677.45 -7.41357 
11941 2 5.67354e-06 1.73015e-05 6.52459 6.02977 -160248 -160405 554.64 -25.3749 -0.0249959 -1.06396 -7.41357 
12123 2 1.95914 8.63456 6.51332 6.01572 -159275 -162352 -2493.39 14320.6 12572.7 -3436.98 -7.41383 
12124 2 2.69136 7.42061 6.51567 6.02106 -147437 -174028 1714.38 12187.8 13888.9 -2045.96 -7.41394 
12125 2 2.00585 6.17962 6.51864 6.02153 -159513 -161685 -441.526 5798.45 8859.63 -3073.76 -7.41374 
12126 2 2.73855 4.96592 6.52008 6.02367 -151844 -169306 513.159 5351.68 8411.43 -2565.96 -7.41372 
12127 2 2.0536 3.72463 6.52209 6.02556 -159790 -161183 459.055 591.846 5377.15 -2873.48 -7.41365 
12128 2 2.78656 2.51105 6.52265 6.02579 -156053 -164752 274.138 1585.79 3936.5 -3148.41 -7.41362 
12129 2 2.10194 1.26958 6.52377 6.02826 -160186 -160598 609.851 -1864.12 2145.1 -2847.64 -7.4136 
12130 2 2.83494 0.0560188 6.52349 6.02726 -160371 -160512 515.274 202.676 268.592 -3899.31 -7.4136 
12312 2 4.79526 8.68883 6.51032 6.01729 -136331 -185542 686.821 15085.4 17072.5 -4385.02 -7.41408 
12313 2 4.10893 7.44834 6.5142 6.01736 -152159 -169421 175.701 5680.27 11811.1 -7880.34 -7.41393 
12314 2 4.84159 6.23461 6.51569 6.02011 -143634 -177730 -627.148 6599.4 11214.1 -5123.89 -7.41383 
12315 2 4.15607 4.99367 6.51863 6.02306 -155136 -166069 1128.6 -1081.43 8159.47 -7057.04 -7.41381 
12316 2 4.88901 3.78007 6.51922 6.02265 -150479 -170576 -719.033 1279.46 6177.1 -5847.54 -7.4137 
12317 2 4.20404 2.53881 6.52123 6.02633 -157766 -163240 1099.13 -4905.54 4707.87 -6461.87 -7.41371 
12318 2 4.93704 1.32523 6.52095 6.0239 -157139 -163950 -47.5194 -1319.57 1978.41 -6736.62 -7.41367 
12319 2 4.2524 0.0837668 6.52209 6.02542 -160343 -160575 515.015 -6315.58 1307.43 -6128.07 -7.41365 
12501 2 6.21291 8.71607 6.50795 6.01285 -141408 -180744 2136.1 4546.08 15102.3 -13410 -7.41426 
12502 2 6.94551 7.50229 6.50948 6.01635 -131832 -189823 -3061.85 6575.9 13919.6 -7779.53 -7.41393 
12503 2 6.25917 6.26187 6.51329 6.01997 -147516 -174476 2932.9 -3974.65 11472.9 -12139 -7.4141 
12504 2 6.99208 5.04824 6.51393 6.018 -141777 -179668 -2833.66 -309.621 8451.57 -8816.12 -7.41379 
12505 2 6.30653 3.80735 6.51685 6.024 -152867 -168638 2511.66 -9386.37 7823.7 -11025.1 -7.41394 
12506 2 7.03953 2.59373 6.51658 6.01948 -151175 -170004 -1558.57 -4372.87 3714.73 -9909.67 -7.41376 
12507 2 6.35452 1.35251 6.51862 6.02316 -157918 -163363 1288.47 -12031.8 4218.37 -10180.8 -7.41381 
12508 2 7.08739 0.138807 6.51746 6.02075 -160269 -161179 282.422 -6041.99 -382.879 -11246.4 -7.41381 
12690 2 9.05063 8.76852 6.5017 6.01199 -116674 -205341 -7085.47 5089.32 16208.8 -10223.9 -7.41399 
12691 2 8.36317 7.52879 6.50618 6.01667 -136041 -186332 6261.76 -8283.89 15038.6 -17789.4 -7.41453 
12692 2 9.09607 6.31511 6.50685 6.01277 -129694 -192042 -6402.15 -3558.17 10535.3 -11774.2 -7.41386 
12693 2 8.40966 5.07476 6.51059 6.02054 -144657 -177443 5285.19 -15342 11393.9 -16355.3 -7.4143 
12694 2 9.14266 3.8611 6.51035 6.01316 -142191 -179396 -4382.8 -9175.68 5380.06 -13245.3 -7.41384 
12695 2 8.45704 2.62027 6.51327 6.02033 -152665 -169124 3242.58 -19565.8 7628.44 -15083.6 -7.4141 
12696 2 9.18992 1.40652 6.51212 6.01449 -154295 -167448 -1497.81 -12243 832.876 -14817.5 -7.41393 
12697 2 8.50485 0.165334 6.51419 6.01954 -160172 -161273 588.35 -21435.5 3699.47 -14062.1 -7.41394 
1161 1 10.7941 8.3925 2.90234 6.00041 -198741 -123285 -11229 18519.1 13365 -14351.1 -7.41394 
1162 1 11.4788 7.15084 2.9019 6.0102 -204927 -117556 12591.9 13283.1 13506.9 -26663.3 -7.41515 
1163 1 10.7487 5.93539 2.89718 6.00813 -187042 -134790 -8994.11 26767.9 7325.06 -15611.7 -7.41387 
1164 1 11.4333 4.6938 2.89757 6.01622 -189875 -132800 9144.77 19475.1 10156.7 -24611.7 -7.41482 
1165 1 10.7021 3.47896 2.8937 6.0139 -175989 -145823 -5541.31 31445.3 1803.52 -16723.7 -7.41391 
1166 1 11.3869 2.23754 2.89495 6.01266 -174893 -147466 4743.35 22564.7 6473.93 -22432.4 -7.4145 
1167 1 10.6549 1.02317 2.89201 6.0157 -165292 -156397 -1403.46 33207.2 -3074.11 -17834.3 -7.41406 
1350 1 13.625 8.34325 2.91144 6.00264 -220959 -101348 19577.3 21550 16028.7 -31862 -7.4159 
1351 1 12.8961 7.12694 2.90622 6.00051 -200692 -121340 -15115.7 37437.9 8660.55 -17785 -7.41385 
1352 1 13.5808 5.88537 2.90664 6.00989 -203831 -119002 15186.2 29779 13205 -30120.9 -7.4155 
1353 1 12.8506 4.66981 2.90213 6.0087 -187051 -135172 -10571.1 44035.9 2873.27 -19504.5 -7.41394 
1354 1 13.5355 3.42843 2.90338 6.00868 -186414 -136465 9483.38 34444.5 9860.26 -28040.5 -7.41508 
1355 1 12.8043 2.21348 2.89972 6.0123 -173504 -148627 -5006.81 47261.5 -2414.35 -21069.3 -7.41414 
1356 1 13.4895 0.972384 2.90179 6.00389 -168994 -153762 3027.69 35879.3 6119.09 -25784 -7.41468 
1539 1 15.0422 8.32094 2.91579 5.99288 -216026 -105756 -22805.7 48973.7 9478.65 -18965 -7.41375 
1540 1 15.7271 7.07942 2.9162 6.00282 -219000 -103293 22791.1 41429.2 15915.2 -34573.6 -7.4163 
1541 1 14.9981 5.86301 2.91136 6.00227 -200291 -122009 -17293.6 57856.1 3664.33 -21294.8 -7.4139 
1542 1 15.6831 4.62169 2.91254 6.00404 -199898 -123039 15952.9 48005.7 13118 -32803.7 -7.41579 
1543 1 14.9528 3.40602 2.90843 6.00886 -184374 -138138 -10377.5 62939.7 -1847.86 -23365.3 -7.41415 
1544 1 15.6382 2.16499 2.9104 5.99901 -180356 -142782 7967.56 51065.6 9796.45 -30661.4 -7.41528 
1545 1 14.9069 0.949932 2.90711 6.00682 -168401 -154230 -2662.92 64578.3 -6857.29 -25259.2 -7.41451 
1727 1 17.1869 9.51761 2.9252 5.98584 -231613 -89205.4 -31694.6 60453.9 9717.09 -19162 -7.41357 
1728 1 17.872 8.2762 2.92557 5.99559 -234146 -86708.1 31549.3 53471.4 18119 -37621.6 -7.41718 
1729 1 17.1443 7.05885 2.92066 5.99556 -214724 -107147 -25468.5 71857.8 4070.91 -21985.6 -7.41376 
1730 1 17.8295 5.81762 2.92172 5.99856 -214304 -107901 23878.3 62363.2 16018 -36275 -7.41661 
1731 1 17.1004 4.60111 2.91744 6.00462 -197135 -125434 -17430.1 79273.9 -1476.33 -24510.5 -7.41408 
1732 1 17.7859 3.36019 2.91925 5.99488 -193416 -129617 14630.8 67467.3 13269.5 -34421.1 -7.416 
1733 1 17.0555 2.14441 2.91571 6.0027 -179084 -143814 -8176.19 82826.1 -6636.6 -26775 -7.41451 
1734 1 17.7416 0.903896 2.91821 5.98891 -171952 -151586 4436.84 68864.8 9972.99 -32147.2 -7.41539 
12879 2 10.4684 8.79396 6.49766 6.01255 -121270 -201601 11326.9 -13739.4 18427.5 -23455.9 -7.41513 
12880 2 11.2012 7.58022 6.49835 6.00585 -114380 -207665 -11630.6 -8342.82 12167.4 -14302.7 -7.41388 
12881 2 10.5137 6.34057 6.50265 6.01485 -133087 -189531 9716.28 -22822.8 15107.9 -21953.8 -7.41483 
12882 2 11.2467 5.12685 6.50247 6.00565 -129852 -191895 -8795.5 -15785.6 6782.01 -16312.6 -7.4139 
12883 2 10.5602 3.88658 6.50611 6.01495 -144241 -178034 6746.38 -28849.8 11395.9 -20453.6 -7.41453 
12884 2 11.2931 2.67277 6.50502 6.0068 -145229 -176763 -4774.4 -20503.1 1887.77 -18266 -7.41402 
12885 2 10.6074 1.43201 6.50791 6.01577 -154966 -167041 2872.2 -32261.3 7414.48 -19066 -7.41427 
12886 2 11.34 0.217973 6.5059 6.00917 -160195 -162013 -82.0107 -22802.2 -2492.59 -20291.2 -7.41423 
13068 2 13.3078 8.84316 6.48901 5.99844 -96867.4 -225241 -18525.6 -14574.2 13177 -16036 -7.41382 
13069 2 12.619 7.60434 6.4935 6.00797 -118217 -204332 15878.8 -31464.4 18538.8 -27213.2 -7.41551 
13070 2 13.3519 6.39055 6.49338 5.99754 -115012 -206917 -14907.1 -23983.6 7747.06 -18658.7 -7.41388 
13071 2 12.6644 5.15098 6.49746 6.00783 -132478 -189852 11983.8 -39517.7 15192.2 -25704.7 -7.41513 
13072 2 13.3972 3.93709 6.49649 5.99822 -133345 -188819 -9755.28 -30521.3 2646.17 -21100.1 -7.41406 
13073 2 12.7107 2.6969 6.5 6.00901 -146586 -175693 6850.99 -44757.5 11375.5 -24142.6 -7.41476 
13074 2 13.4432 1.48278 6.49814 6.00042 -151414 -171146 -3587.56 -34510 -1972.06 -23457.6 -7.41433 
13075 2 12.7574 0.242083 6.50097 6.01123 -160218 -162029 996.6 -47433.7 7140.66 -22596 -7.41442 
13257 2 14.7257 8.86572 6.48381 6.00037 -101271 -220682 23586.6 -40607.7 21298.9 -31606.8 -7.41632 
13258 2 15.4585 7.65181 6.48375 5.98943 -98278 -223338 -22591.2 -33230.1 8208.81 -19988.4 -7.41378 
13259 2 14.7697 6.41306 6.4879 5.99977 -118346 -203684 18896.3 -51002.7 18616.1 -30263.2 -7.41587 
13260 2 15.5025 5.19906 6.48709 5.98943 -119165 -202949 -16442.2 -41891.5 3032.62 -22927.3 -7.41402 
13261 2 14.8149 3.95958 6.49091 6.00072 -135482 -186969 12599.1 -58380.9 15247.3 -28714.9 -7.41539 
13262 2 15.5474 2.74536 6.4893 5.99111 -140033 -182701 -8892.97 -47680.5 -1739.4 -25673.1 -7.41437 
13263 2 14.8607 1.50526 6.49262 6.0031 -152179 -170387 5212.74 -62908.9 11320 -27037.4 -7.41493 
13264 2 15.5928 0.290683 6.49018 5.99434 -160533 -162629 -541.053 -50837.2 -6009.42 -28256.6 -7.4148 
13446 2 17.5666 8.91042 6.47424 5.98192 -80821 -239884 -31474.5 -42926.3 8218 -20255.8 -7.4136 
13447 2 16.8764 7.67254 6.47809 5.99133 -102345 -218509 27180.3 -62531.4 21329.3 -33722.1 -7.41671 
13448 2 17.6091 6.45841 6.47747 5.98097 -103503 -217904 -24587.3 -53854.6 3075.75 -23588.4 -7.41389 
13449 2 16.9202 5.21972 6.48126 5.99179 -122125 -199693 19949.4 -72247.6 18658.1 -32318.1 -7.41615 
13450 2 17.6528 4.00538 6.47997 5.98187 -126765 -195768 -15892.6 -61738.1 -1779.1 -26685.9 -7.4143 
13451 2 16.965 2.76598 6.48349 5.99391 -141685 -180815 11222.9 -78943.1 15274.8 -30671.7 -7.41558 
13452 2 17.6971 1.55129 6.48147 5.98459 -149689 -173548 -5988.84 -66755.9 -6147.76 -29546.4 -7.41481 
13453 2 17.0103 0.311281 6.48456 5.99757 -160755 -162138 1613.6 -82543.5 11255.4 -28821.2 -7.41502 
13635 2 18.9846 8.92927 6.46864 5.98311 -85728.4 -232971 36350.5 -73346.1 23149 -35925.2 -7.41761 
13637 2 19.027 6.47711 6.47164 5.98284 -107362 -212737 28512 -85554.3 21332.9 -34706.2 -7.417 
13639 2 19.0704 4.02399 6.47413 5.98443 -129316 -192352 18768.6 -94640.3 18682.4 -33187.7 -7.41633 
13641 2 19.1146 1.56987 6.47581 5.98775 -150789 -171863 7713.75 -100310 15287.3 -31403.6 -7.41565 
1916 1 20.0154 9.47578 2.93417 5.98872 -248300 -70268 40925.4 65145.7 19752.6 -39202.5 -7.41809 
1917 1 19.2891 8.25746 2.9294 5.98945 -229034 -91707.1 -34630.9 85164.6 4094.79 -21687.5 -7.41354 
1918 1 19.9746 7.01638 2.93029 5.9936 -228413 -92271.4 32785.2 76516.3 18420.2 -38291.4 -7.41748 
1919 1 19.2467 5.79897 2.92608 5.99974 -210689 -111411 -25824.8 95153.5 -1331.75 -24528.1 -7.41392 
1920 1 19.9325 4.55819 2.92766 5.99033 -207137 -115214 22660.5 83860.8 16341.8 -36810.4 -7.4168 
1921 1 19.2032 3.34159 2.92412 5.99936 -191402 -131432 -15362.9 100890 -6512.46 -27083.5 -7.41441 
1922 1 19.8895 2.1012 2.92638 5.9846 -184789 -138453 11137.8 87216.7 13633.6 -34810.4 -7.41609 
1923 1 19.159 0.885326 2.92353 5.99271 -171533 -151557 -3930.68 102583 -11207.7 -29367.4 -7.415 
2105 1 21.4325 9.45885 2.93712 5.98425 -242356 -76658.7 -44208.9 96903.5 3815.76 -20642.7 -7.41327 
2106 1 22.1184 8.21798 2.93776 5.98729 -241407 -77101.3 42129.4 89447.3 20275.5 -38939.6 -7.41836 
2107 1 21.3918 6.99964 2.93378 5.99449 -223907 -96975 -35041.3 109422 -1383.43 -23627.1 -7.41367 
2108 1 22.0778 5.75904 2.9351 5.98525 -220536 -100237 31555.8 99294.2 18904.8 -37836.4 -7.41764 
2109 1 21.3497 4.54158 2.93174 5.99693 -204174 -117919 -23807.8 117737 -6479.93 -26338.6 -7.41422 
2110 1 22.0362 3.30135 2.93373 5.9814 -198082 -124277 19157.2 104902 16835.2 -36176.3 -7.41685 
2111 1 21.3068 2.08468 2.93103 5.98893 -183571 -139349 -11142.8 121694 -11184.3 -28773.9 -7.41487 
2112 1 21.9939 0.844926 2.93357 5.97478 -174522 -148752 5611.18 106490 14126.3 -34019.3 -7.41603 
2294 1 24.2608 9.4223 2.94389 5.98177 -252291 -63116.8 51418.5 100679 21599.2 -38462.2 -7.4192 
2295 1 23.5355 8.20306 2.94019 5.99008 -235880 -83117.4 -44512.3 121617 -1560.77 -22093.9 -7.41338 
2296 1 24.2219 6.96268 2.94118 5.98109 -232522 -85977.5 40789.8 112941 20923.1 -37687 -7.41847 
2297 1 23.495 5.74435 2.93814 5.99362 -216592 -104385 -32967 132525 -6500.61 -24821.3 -7.41395 
2298 1 24.1819 4.50431 2.93982 5.97759 -210956 -109981 27984.8 121012 19496.2 -36370.9 -7.41763 
2299 1 23.4535 3.28683 2.93743 5.9862 -195913 -126191 -19559.2 138878 -11159.7 -27293.8 -7.41465 
2300 1 24.1409 2.04723 2.93971 5.97176 -187768 -134625 13593.9 124766 17387.6 -34541.9 -7.41674 
2301 1 23.4113 0.8305 2.93791 5.97859 -174230 -148432 -5021.27 140790 -15283.6 -29517.1 -7.41544 
2483 1 25.6778 9.40907 2.94516 5.98572 -245851 -70462.7 -53753 131357 -1783.26 -20204.7 -7.41306 
2484 1 26.3648 8.16896 2.94575 5.97789 -242705 -73014.3 49906.7 124288 22411.1 -36634.7 -7.41926 
2485 1 25.639 6.94978 2.94306 5.99014 -227600 -91568.9 -42291.7 144632 -6516.4 -22833.6 -7.41363 
2486 1 26.3263 5.70998 2.94439 5.9736 -222433 -96425.1 37118.3 134830 21596.4 -35626.4 -7.41841 
2487 1 25.599 4.49166 2.9424 5.98452 -207743 -113323 -28624.6 153541 -11090.5 -25237.7 -7.41435 
2488 1 26.2868 3.25226 2.9444 5.96998 -200332 -120792 22373.8 140949 20067.9 -34125.3 -7.41747 
2489 1 25.5582 2.03475 2.94302 5.97584 -186560 -135635 -13384.6 157846 -15216.1 -27419.5 -7.41518 
2490 1 26.2466 0.79583 2.94554 5.96328 -176719 -145592 6365.46 142787 17846 -32169.8 -7.4165 
2672 1 28.5065 9.37768 2.94878 5.97558 -250510 -61689.5 58568.3 133327 23417.5 -34959 -7.41999 
2673 1 27.7819 8.15768 2.94639 5.98691 -236730 -79864.2 -51341.3 154025 -6478.83 -20629.5 -7.4133 
2674 1 28.4696 6.91815 2.94734 5.97062 -232139 -84188.5 46129.5 145988 23162.5 -34204.3 -7.41915 
2675 1 27.7434 5.69904 2.94575 5.98255 -218126 -101241 -37821.1 165268 -10933.5 -22891 -7.414 
2676 1 28.4315 4.45986 2.94748 5.9671 -211661 -107677 31463 154522 22171.6 -33003.4 -7.4182 
2677 1 27.704 3.24157 2.94657 5.97417 -197968 -122966 -22363.8 171976 -15047.4 -24955.2 -7.41484 
2678 1 28.3926 2.00282 2.94893 5.96176 -189462 -131727 15142.8 158606 20479.1 -31367.4 -7.41718 
2679 1 27.6639 0.785278 2.94853 5.96625 -176479 -145074 -5699.44 174012 -18579.6 -26829.4 -7.41579 
13636 2 19.7172 7.71496 6.46817 5.97346 -87345 -232431 -33735.2 -65589.4 2880.35 -23174.3 -7.41367 
13638 2 19.7594 5.26261 6.47068 5.97343 -112199 -209228 -24251.6 -75807.2 -1997.63 -26504.1 -7.41414 
13640 2 19.8025 2.80917 6.47259 5.97532 -137048 -185584 -13125.8 -82863.7 -6452.99 -29582.5 -7.41471 
13642 2 19.846 0.354582 6.47365 5.97904 -161437 -161921 -1065.62 -86723.4 -10339.7 -32373.5 -7.41538 
13824 2 21.8267 8.96873 6.45955 5.96728 -71860.2 -245600 -43326.6 -76328 2569.55 -21934.6 -7.41339 
13825 2 21.1351 7.73171 6.46251 5.97449 -92189 -225200 37776.6 -97390.4 23155.7 -35870.4 -7.41787 
13826 2 21.8673 6.51702 6.46183 5.9662 -97512.8 -222028 -33469 -88876.7 -2267.03 -25343.3 -7.41388 
13827 2 21.1771 5.2792 6.46499 5.97529 -115808 -203933 27415.9 -108914 21343.3 -34504.9 -7.41715 
13828 2 21.9091 4.06422 6.46393 5.96712 -123708 -197738 -21553.4 -98126.6 -6794.98 -28527.3 -7.41451 
13829 2 21.22 2.82567 6.46709 5.97801 -139215 -182367 15314.1 -116871 18702.1 -32857.2 -7.41638 
13830 2 21.9514 1.61026 6.46556 5.97004 -149659 -173325 -8256.56 -104054 -10778.4 -31440.4 -7.41524 
13831 2 21.2634 0.371063 6.46851 5.98259 -161953 -160799 2182.18 -121309 15294 -30948 -7.41561 
14013 2 23.2447 8.9836 6.45408 5.96719 -77728.2 -236138 47225.6 -107273 24161.5 -35966.8 -7.41874 
14014 2 23.9767 7.76868 6.45358 5.9604 -83388.6 -233382 -42995.2 -100343 -2482.37 -23512.9 -7.41357 
14015 2 23.2852 6.53165 6.45635 5.96703 -102229 -214798 36656 -121141 23203.6 -34729 -7.41799 
14016 2 24.0169 5.31648 6.45569 5.96023 -110235 -209333 -30750 -111901 -7040.52 -26672.4 -7.41421 
14017 2 23.3267 4.07869 6.45867 5.96894 -127007 -192846 23960.1 -131550 21373.2 -33233.6 -7.41716 
14018 2 24.058 2.86313 6.45774 5.96213 -137069 -184558 -16690.5 -119918 -11142.3 -29610.8 -7.41499 
14019 2 23.3689 1.62466 6.4607 5.97281 -151209 -170643 9791.52 -138115 18716.1 -31494 -7.4163 
14020 2 24.0995 0.408579 6.45939 5.96598 -163147 -159657 -1608.29 -124277 -14606.2 -32260.3 -7.41584 
14202 2 26.0873 9.01776 6.44594 5.95605 -70520 -242736 -52349.8 -109832 -2583.15 -21310.9 -7.41323 
14203 2 25.3946 7.78148 6.44826 5.96002 -89216.9 -224148 46005.2 -130946 24317.7 -34077.7 -7.41882 
14204 2 26.1261 6.56607 6.44789 5.95485 -97417.5 -219453 -40184.9 -123580 -7104.77 -24340 -7.41387 
14205 2 25.4347 5.32903 6.45063 5.96093 -114686 -202458 33153.9 -143775 23289 -32705.4 -7.41796 
14206 2 26.1658 4.11329 6.45022 5.95567 -124557 -195125 -25839.7 -133808 -11300.4 -27197.7 -7.41465 
14207 2 25.4756 2.87555 6.45313 5.96391 -139794 -180349 18431.9 -152594 21400.2 -31141.4 -7.41703 
14208 2 26.2061 1.65934 6.45255 5.95848 -151232 -170476 -10027.4 -140206 -14921.6 -29835.5 -7.41554 
14209 2 25.5169 0.420983 6.45538 5.96888 -163909 -157974 2611.45 -157388 18690.7 -29380.8 -7.4161 
14391 2 27.5054 9.0289 6.44068 5.95443 -77421.5 -231693 55066.8 -138390 24804.4 -32797.2 -7.41959 
14392 2 28.2365 7.81322 6.44044 5.95094 -85517.3 -227678 -49425.4 -132889 -6964.52 -21794.6 -7.4135 
14393 2 27.5439 6.57688 6.44292 5.95427 -102925 -210671 42440.6 -153255 24516.8 -31514.3 -7.41873 
14394 2 28.2748 5.36092 6.44291 5.95068 -112517 -204392 -35208.5 -145289 -11195.4 -24497.8 -7.41427 
14395 2 27.5835 4.12389 6.44577 5.95621 -128458 -189201 27616.7 -164346 23370 -30088.9 -7.41778 
14396 2 28.3139 2.90753 6.44582 5.95241 -139357 -180501 -19138.4 -153769 -14963.5 -27037.6 -7.41517 
14397 2 27.6236 1.66986 6.44878 5.96022 -153134 -167242 11279.6 -171338 21377.3 -28533.8 -7.41678 
14398 2 28.3533 0.452967 6.4487 5.95612 -165310 -156182 -2038.93 -158289 -18080.3 -29356.6 -7.41615 
2861 1 29.9235 9.36785 2.94822 5.98354 -243646 -69841.5 -59831 160721 -6360.86 -18391.4 -7.41297 
2862 1 30.6117 8.12861 2.94871 5.96862 -239759 -73383.6 54704.4 154643 24251.3 -32341.5 -7.41983 
2863 1 29.8866 6.90874 2.94747 5.97997 -226721 -90093.1 -46754 174118 -10670.9 -20470.1 -7.41365 
2864 1 30.5752 5.6698 2.94889 5.96443 -221258 -95711 40453.7 165279 23747.5 -31399.5 -7.41889 
2865 1 29.8487 4.45076 2.94845 5.97345 -208111 -111188 -31483.6 183125 -14756 -22372.3 -7.41447 
2866 1 30.5377 3.21221 2.95066 5.96036 -200713 -118842 24245.9 171642 22539.6 -30060 -7.41785 
2867 1 29.8099 1.99394 2.95082 5.96477 -188099 -132634 -14621.9 187550 -18350.1 -24107.5 -7.41542 
2868 1 30.4995 0.755835 2.95361 5.95452 -178500 -142300 6757.43 173650 20632 -28356 -7.41679 
3050 1 32.7528 9.3411 2.94867 5.96743 -245034 -64557.8 62651 160558 24917.6 -30218.5 -7.42046 
3051 1 32.0288 8.12054 2.94767 5.97815 -233368 -80602.5 -55166.1 180081 -10301.8 -18118.8 -7.41329 
3052 1 32.7178 6.88187 2.94873 5.96269 -228851 -85355.2 49043.3 173172 24856.8 -29494.4 -7.41953 
3053 1 31.9923 5.66212 2.94869 5.9732 -216644 -100591 -40387.7 191188 -14340.1 -19844.8 -7.41409 
3054 1 32.6816 4.42378 2.95074 5.95928 -210462 -107050 33282.9 181807 24089.1 -28419.9 -7.41851 
3055 1 31.9548 3.2048 2.95145 5.96423 -198147 -121000 -23725.9 197982 -17992.2 -21418.8 -7.41501 
3056 1 32.6447 1.96685 2.95426 5.95311 -190124 -129494 15903 186015 22636.6 -27002.4 -7.41743 
3057 1 31.9168 0.748586 2.95544 5.95655 -178272 -141899 -5879.49 200119 -21037.1 -22863.5 -7.41603 
3239 1 34.1699 9.33419 2.94657 5.97708 -237796 -72870.7 -62898.8 183595 -9833.02 -15913.4 -7.41296 
3240 1 34.8594 8.09581 2.94722 5.96172 -234210 -76679.4 57044.4 178724 25550.8 -27409.5 -7.42013 
3241 1 34.1348 6.87541 2.94745 5.97161 -223084 -91325.2 -48822.3 196646 -13804.9 -17472.5 -7.4137 
3242 1 34.8246 5.63729 2.94929 5.95772 -218257 -96938.4 41960.3 189158 25187.9 -26567.5 -7.41913 
3243 1 34.0988 4.41765 2.95045 5.9645 -206768 -110764 -32668.9 205513 -17501.8 -18890 -7.41459 
3244 1 34.789 3.17988 2.95327 5.95276 -200022 -117951 25018.5 195665 24152.2 -25413.6 -7.41805 
3245 1 34.062 1.96095 2.95508 5.9562 -188665 -130373 -15003.2 209959 -20682.3 -20181.2 -7.41559 
3246 1 34.7527 0.723586 2.95859 5.94719 -179838 -139406 6846.47 197732 22448.9 -23974 -7.41694 
3428 1 37.0001 9.31137 2.94472 5.96137 -237473 -69781.4 64348 181811 25878.3 -25227.7 -7.42068 
3429 1 36.2764 8.09039 2.94501 5.97068 -227507 -83789.3 -56624.6 199629 -13161 -15293.3 -7.41334 
3430 1 36.9667 6.85252 2.94659 5.95688 -223839 -88376.9 50085.2 194134 25887.6 -24581.5 -7.41971 
3431 1 36.2417 5.63228 2.94804 5.96525 -213356 -101724 -41195.3 210397 -16880.1 -16575.8 -7.41418 
3432 1 36.9323 4.3947 2.95082 5.95307 -208056 -107775 33818 202592 25235.7 -23664.6 -7.41865 
3433 1 36.2061 3.17515 2.95312 5.9566 -197307 -120141 -24016.9 217077 -20183.8 -17731.6 -7.41513 
3434 1 36.8971 1.93792 2.95681 5.9469 -190161 -127837 16039 206910 23941.7 -22482.7 -7.41755 
3435 1 36.17 0.719006 2.95962 5.94941 -179546 -138876 -5730.8 219250 -22874.3 -18794.4 -7.41619 
14580 2 30.348 9.05817 6.43321 5.94833 -75092 -234032 -58176.7 -139875 -6660.49 -19236.7 -7.41314 
14581 2 29.6544 7.82247 6.43543 5.94907 -92126.5 -217392 51448.9 -160029 25173.9 -29889 -7.41946 
14582 2 30.385 6.60627 6.43565 5.94711 -101508 -212121 -44411 -154131 -10841.5 -21726.9 -7.41388 
14583 2 29.6926 5.36989 6.43846 5.94991 -117591 -196807 36907.2 -173247 24707.6 -28569.4 -7.41851 
14584 2 30.4228 4.15335 6.43901 5.94778 -128143 -189316 -28492.5 -164695 -14708.5 -24117.4 -7.41475 
14585 2 29.7315 2.91634 6.44212 5.95284 -142492 -175771 20499.8 -182354 23398.5 -27175.3 -7.41748 
14586 2 30.4611 1.69933 6.44278 5.9504 -154105 -165979 -11137 -171145 -18014.9 -26349.2 -7.41573 
14587 2 29.7707 0.461753 6.44588 5.95779 -166229 -154284 3014.7 -187117 21263.2 -25699.4 -7.41644 
14769 2 31.766 9.06607 6.42803 5.9453 -82711.3 -222534 59920 -164405 25380.7 -28033.1 -7.42014 
14770 2 32.4962 7.84959 6.42831 5.94486 -91644.9 -218251 -53172.9 -160500 -10306.3 -19043.2 -7.41349 
14771 2 31.8028 6.61381 6.43105 5.94506 -107668 -203196 45948 -179396 25529.5 -26780 -7.4192 
14772 2 32.5327 5.39706 6.43193 5.94446 -117630 -196836 -37731.9 -172920 -14198 -21240.3 -7.41433 
14773 2 31.8404 4.16067 6.4352 5.94686 -132462 -183134 29846.4 -190521 24848.5 -25510.4 -7.41817 
14774 2 32.5699 2.94352 6.43646 5.94579 -143321 -174722 -20516.8 -181433 -17655.4 -23342.6 -7.41528 
14775 2 31.8785 1.70655 6.43992 5.95071 -156258 -162607 12283.8 -197479 23343.3 -24214.6 -7.4171 
14776 2 32.6074 0.488892 6.44129 5.94849 -167856 -152207 -2332.4 -185864 -20492.8 -25287.2 -7.41633 
14958 2 34.6084 9.09113 6.4209 5.94378 -83368.1 -222589 -61313.1 -164528 -9664.2 -16540.4 -7.41313 
14959 2 33.9141 7.8559 6.42347 5.94157 -98787.1 -207990 54489.7 -183053 25936.7 -24877.1 -7.41985 
14960 2 34.6437 6.63891 6.42452 5.94239 -108261 -202890 -46582.7 -178745 -13502.1 -18522.3 -7.41391 
14961 2 33.9504 5.40308 6.42789 5.94225 -123088 -189285 38974.7 -196148 25828 -23699 -7.41884 
14962 2 34.6797 4.18576 6.42961 5.94217 -133362 -182102 -29829.4 -189159 -17047.2 -20459.2 -7.41483 
14963 2 33.9874 2.94936 6.43341 5.94497 -146665 -169952 21698 -205032 24905.1 -22543.1 -7.41776 
14964 2 34.7162 1.73161 6.43548 5.94374 -157460 -160851 -11738.1 -195428 -20071.7 -22298.9 -7.41585 
14965 2 34.0247 0.494701 6.43933 5.94964 -168800 -150226 3410.91 -209629 23177.9 -21386.9 -7.41666 
15147 2 36.0263 9.0964 6.41583 5.93937 -91412.6 -211134 62374.7 -184624 26016.5 -22960 -7.42045 
15148 2 36.7555 7.87914 6.41691 5.94135 -100180 -207079 -54856.3 -182281 -12699 -16028.9 -7.41352 
15149 2 36.0614 6.64381 6.42023 5.93894 -114728 -193865 47638.8 -199306 26415 -21856.7 -7.41947 
15150 2 36.7904 5.42629 6.42224 5.93983 -124263 -188096 -38802.5 -194512 -16256.1 -17775.4 -7.41438 
15151 2 36.0973 4.19041 6.42628 5.94052 -137893 -176019 30927.3 -210188 26024.2 -20811.5 -7.4184 
15152 2 36.8259 2.97253 6.42892 5.94023 -147814 -168339 -21118.4 -202716 -19413.6 -19475.1 -7.41536 
15153 2 36.1336 1.73616 6.43327 5.94404 -159627 -157542 12871.6 -216843 24838.8 -19803.9 -7.41729 
15154 2 36.8616 0.51781 6.43618 5.94261 -170168 -148136 -2556.15 -206907 -21999.4 -21065.5 -7.41643 
15337 2 38.1733 7.8831 6.41242 5.93688 -107633 -196928 55682.4 -200518 26679.4 -20058.4 -7.42005 
15339 2 38.208 5.42994 6.41866 5.93732 -129870 -180633 39731.9 -213159 26764.7 -19102.9 -7.41901 
15341 2 38.2433 2.97601 6.4264 5.93969 -151235 -163739 22184.6 -221663 26076.6 -18214 -7.41791 
15343 2 38.2789 0.521242 6.43483 5.94392 -171082 -146193 3734.77 -226019 24619.2 -17355.7 -7.4168 
3617 1 38.4172 9.30686 2.94182 5.97033 -229976 -77907.4 -63718.9 200617 -12435 -13302.9 -7.41302 
3618 1 39.1079 8.06925 2.9431 5.95665 -227365 -81496.1 57546 197084 26245.1 -22519.3 -7.42024 
3619 1 38.3838 6.84845 2.94457 5.96508 -217866 -94246.7 -49142.5 213164 -16145.5 -14476.2 -7.41379 
3620 1 39.0747 5.61108 2.94725 5.95292 -214034 -99300.1 42102.2 207267 25946.1 -21806 -7.41922 
3621 1 38.3494 4.39096 2.94984 5.95746 -204146 -111305 -32669.6 221736 -19545.1 -15527.6 -7.41469 
3622 1 39.0407 3.15388 2.95364 5.94727 -198451 -117730 24957.8 213624 25028 -20858.1 -7.41813 
3623 1 38.3143 1.9344 2.95698 5.94989 -188569 -128654 -14816.2 226141 -22417.2 -16476.5 -7.41571 
3624 1 39.0061 0.697666 2.96153 5.94226 -180797 -136655 6684.55 215821 23492 -19686.5 -7.41701 
3806 1 41.2483 9.28727 2.93939 5.95693 -228914 -76225.7 64306.2 198010 26315.8 -20430.6 -7.42074 
3807 1 40.525 8.06598 2.94058 5.96482 -220441 -88329.1 -56438.7 213973 -15330.5 -12566.4 -7.41343 
3808 1 41.2163 6.82883 2.94311 5.95275 -217964 -92392 49760.1 209908 26346.2 -19878.6 -7.41975 
3809 1 40.4918 5.6082 2.94567 5.95866 -208980 -103877 -40808.2 224245 -18791.9 -13543.2 -7.41428 
3810 1 41.1834 4.37129 2.9495 5.94809 -204855 -109169 33404.7 218069 25776.2 -19133.4 -7.41869 
3811 1 40.4579 3.15127 2.95311 5.95082 -195634 -119877 -23607.2 230695 -21818.1 -14414.3 -7.41524 
3812 1 41.1498 1.91465 2.95789 5.94258 -189681 -126608 15692.1 222362 24619.1 -18187.9 -7.41759 
3813 1 40.4233 0.695198 2.96211 5.94436 -180459 -136212 -5411.39 232921 -24242 -15198.5 -7.41629 
3995 1 42.6654 9.28466 2.9367 5.96504 -221207 -84011.9 -63062.5 212978 -14462.6 -10813.9 -7.41311 
3996 1 43.3573 8.04775 2.93902 5.95301 -219808 -86956.6 56759.7 210824 26487.5 -17916.6 -7.42024 
3997 1 42.6335 6.82666 2.94122 5.96006 -211812 -97924.5 -48353.8 225064 -17954 -11739.3 -7.41389 
3998 1 43.3254 5.58993 2.94501 5.94891 -209194 -102220 41273.4 220691 26245.6 -17336.3 -7.41921 