ITEM: TIMESTEP
0
ITEM: NUMBER OF ATOMS
23816
ITEM: BOX BOUNDS pp pp pp
0.0000000000000000e+00 1.3400400500000001e+02
0.0000000000000000e+00 2.3210174599999999e+02
0.0000000000000000e+00 1.5000000000000000e+01
ITEM: ATOMS id type x y z c_csym c_2[1] c_2[2] c_2[3] c_2[4] c_2[5] c_2[6] c_3 
215 1 0.788 8.589 3 6.02415 -139638 -125389 -154482 -25558.1 12378.5 -1827.63 -7.41073 
216 1 0.068 7.368 3 6.0234 -135433 -151571 -154305 -11514.1 12353.5 -403.742 -7.41093 
217 1 0.765 6.133 3 6.0237 -144455 -144093 -156084 -13665.5 8797.11 -1612.82 -7.41064 
218 1 0.045 4.912 3 6.02472 -128938 -132418 -156342 -26879.6 7840.74 -290.642 -7.41086 
219 1 0.743 3.677 3 6.02415 -135631 -127491 -157070 -25560.8 5378.15 -1352.36 -7.41061 
220 1 0.023 2.456 3 6.0234 -136695 -148844 -157391 -11582.2 3898.94 -174.223 -7.41078 
221 1 0.72 1.221 3 6.02246 -140519 -146895 -157707 -13677.3 1739.99 -1148.06 -7.41056 
222 1 0 0 3 6.02651 -132369 -140872 -157764 -21774.3 1.74796 -6.25033 -7.4106 
405 1 2.206 8.576 3 6.02466 -137425 -152791 -152981 26036.7 14449.1 -3120.94 -7.41079 
406 1 2.903 7.342 3 6.02466 -144967 -144818 -154662 23352.5 10667.5 -5532.43 -7.4107 
407 1 2.183 6.12 3 6.0242 -130737 -133559 -155384 13979.5 9732.56 -3165.77 -7.4107 
408 1 2.881 4.886 3 6.02421 -135954 -128035 -156048 11324.9 7137.92 -5068.35 -7.41067 
409 1 2.161 3.664 3 6.02466 -138375 -150027 -156830 25785.6 5627.64 -3130.57 -7.4106 
410 1 2.858 2.43 3 6.02466 -140901 -147635 -156943 23080.5 3602.07 -4662.99 -7.41056 
411 1 2.138 1.208 3 6.02423 -134172 -140173 -157459 18598.5 1609.03 -3179.63 -7.41059 
594 1 5.041 8.55 3 6.02341 -144259 -144330 -152537 -13401.6 12675.5 -9680.22 -7.41102 
595 1 4.321 7.329 3 6.02415 -131208 -133696 -153903 -22347.7 11787.9 -6121.35 -7.41076 
596 1 5.019 6.094 3 6.02468 -135226 -127577 -154168 -28947.9 9193.57 -8984.86 -7.41096 
597 1 4.299 4.873 3 6.02369 -138695 -150006 -155692 -10669.4 7356.38 -6223.69 -7.41065 
598 1 4.996 3.638 3 6.02341 -140312 -146432 -155549 -13823.7 5537.89 -8358.98 -7.41088 
599 1 4.276 2.417 3 6.02417 -132102 -131596 -156612 -22747 3290.52 -6342.7 -7.4106 
600 1 4.974 1.182 3 6.02405 -133666 -138818 -156308 -34271.5 2009.46 -7750.7 -7.41088 
783 1 6.459 8.537 3 6.02392 -120485 -122388 -152229 31002.6 13696.4 -8955.32 -7.41066 
784 1 7.157 7.303 3 6.02637 -135490 -132430 -151232 8134.16 11371.3 -13273.1 -7.4107 
785 1 6.437 6.081 3 6.0257 -129053 -138167 -154213 15874.6 9211.48 -9158.9 -7.41055 
786 1 7.135 4.847 3 6.02367 -174047 -114401 -153055 24067.8 7705.16 -12451.3 -7.41099 
787 1 6.414 3.625 3 6.02392 -122076 -118996 -155421 29336.6 4801.52 -9401.55 -7.4105 
788 1 7.112 2.391 3 6.02705 -131499 -135240 -154296 7433.28 4109.18 -11649.2 -7.41052 
789 1 6.392 1.169 3 6.02382 -132276 -144677 -155736 20049.8 951.144 -9681.59 -7.4105 
972 1 9.295 8.511 3 6.02369 -146737 -145327 -147482 -16450.5 13796.9 -17816.9 -7.41107 
973 1 8.575 7.29 3 6.02587 -129197 -137416 -152245 -21008.7 11009.4 -12250.5 -7.41083 
974 1 9.273 6.055 3 6.02413 -128102 -114453 -149591 -15686 10209.3 -16794 -7.4108 
975 1 8.552 4.834 3 6.02324 -170037 -118727 -153595 -5509.48 6538.41 -12615.9 -7.41095 
976 1 9.25 3.599 3 6.02629 -133920 -133468 -151596 -29963.2 6452.61 -15750.6 -7.41068 
977 1 8.53 2.378 3 6.02705 -129953 -137227 -154073 -22201.8 2345.02 -12986 -7.4105 
978 1 9.228 1.143 3 6.02391 -126621 -125669 -152824 -21434.5 2768.47 -14871.4 -7.41065 
11937 2 0.63 8.602 6.4 6.02572 -128267 -138507 -153037 -11455.1 14678.7 -585.111 -7.41061 
11938 2 0.653 6.146 6.4 6.02391 -120978 -119313 -155501 -25234.4 9955.24 -682.52 -7.4105 
11939 2 0.675 3.69 6.4 6.02572 -129218 -135748 -156961 -11448.9 5853.4 -832.89 -7.41042 
11940 2 0.698 1.234 6.4 6.02331 -122637 -117470 -157647 -25808.4 1832.87 -994.081 -7.4103 
11941 2 0 0 6.4 6.02712 -132043 -141540 -157753 -7581.02 1.79135 37.3702 -7.41061 
12123 2 2.048 8.615 6.4 6.02468 -137367 -125964 -154112 26342.4 12567.9 -3373.48 -7.41096 
12124 2 2.768 7.394 6.4 6.02369 -138054 -151235 -154198 15039 12372.7 -3368.58 -7.41073 
12125 2 2.071 6.159 6.4 6.0234 -142140 -144735 -155757 10865 9000.41 -3277.47 -7.41087 
12126 2 2.791 4.938 6.4 6.02415 -131524 -132146 -156093 26845.5 7952.43 -3615.89 -7.41066 
12127 2 2.093 3.703 6.4 6.02468 -133365 -128065 -156761 26069.1 5588.7 -3272.83 -7.41084 
12128 2 2.813 2.482 6.4 6.02369 -139322 -148505 -157092 14854.4 3857.08 -3891.25 -7.41059 
12129 2 2.116 1.247 6.4 6.02217 -138383 -147638 -157443 10649.2 1963.05 -3214.17 -7.41075 
12130 2 2.836 0.026 6.4 6.02417 -135069 -138683 -157381 21837.9 42.4508 -4206.21 -7.41062 
12312 2 4.884 8.641 6.4 6.02536 -128130 -136080 -152449 -7623.58 14677.1 -6203.79 -7.41106 
12313 2 4.186 7.407 6.4 6.0242 -138087 -127145 -153949 -14004.2 11172.8 -7160.74 -7.41077 
12314 2 4.906 6.185 6.4 6.02327 -135418 -152576 -154631 -23166.7 10168.4 -6526.67 -7.41092 
12315 2 4.209 4.951 6.4 6.02517 -143117 -146025 -155376 -26172.8 7673.12 -6865.61 -7.41067 
12316 2 4.929 3.729 6.4 6.02536 -129087 -133310 -155967 -7983.99 5752.13 -6864.63 -7.41088 
12317 2 4.231 2.495 6.4 6.0242 -134405 -129331 -156380 -14490.9 4148.51 -6642.75 -7.41066 
12318 2 4.951 1.273 6.4 6.02305 -136611 -150522 -156447 -23604.4 1874.87 -7320.29 -7.4108 
12319 2 4.254 0.039 6.4 6.0258 -141830 -157317 -156839 -21787.7 535.822 -6411.37 -7.41062 
12501 2 6.302 8.654 6.4 6.02629 -137831 -130055 -151170 23935.4 13440.4 -11381.4 -7.41069 
12502 2 7.022 7.433 6.4 6.02705 -128729 -138997 -153003 31460.3 12280.7 -9277.54 -7.41059 
12503 2 6.324 6.198 6.4 6.02413 -128134 -113139 -152929 9756.85 10008 -10891.9 -7.41063 
12504 2 7.045 4.977 6.4 6.02324 -169684 -118401 -154502 14874.8 7794.62 -9734.22 -7.41091 
12505 2 6.347 3.742 6.4 6.02629 -133912 -132144 -154405 23241.5 6380.07 -10456.1 -7.41054 
12506 2 7.067 2.521 6.4 6.02705 -129980 -136252 -155231 30889.4 3578.26 -10266.1 -7.41049 
12507 2 6.369 1.286 6.4 6.02401 -124405 -116041 -155302 9126.49 2883.81 -10070.7 -7.41048 
12508 2 7.09 0.065 6.4 6.02325 -173199 -124928 -155155 9465.61 -320.959 -10872.9 -7.4109 
12690 2 9.138 8.68 6.4 6.02392 -121182 -123110 -150850 -19603.7 14403.6 -12220.9 -7.41071 
12691 2 8.44 7.446 6.4 6.02705 -135792 -132781 -149624 -13693.7 12457.4 -15159.7 -7.41078 
12692 2 9.16 6.224 6.4 6.0257 -129116 -139490 -152648 -6163.29 9802.16 -12758.3 -7.41062 
12693 2 8.462 4.99 6.4 6.02367 -174367 -114736 -151576 -30407.2 8830.81 -14527 -7.41107 
12694 2 9.183 3.768 6.4 6.02392 -122132 -120307 -153437 -20343.5 5284.56 -13400.3 -7.41059 
12695 2 8.485 2.534 6.4 6.02705 -132203 -134957 -152971 -14612.5 5293.98 -13919.7 -7.41061 
12696 2 9.205 1.312 6.4 6.02445 -130272 -137431 -153492 -6999.71 1253.44 -14073.8 -7.41055 
12697 2 8.507 0.078 6.4 6.02391 -173138 -125999 -153947 -26462.9 1532.44 -13373.4 -7.41097 
1161 1 10.713 8.498 3 6.0242 -131236 -137569 -150283 19702.7 12784.2 -15216.1 -7.41093 
1162 1 11.411 7.264 3 6.0242 -138251 -130101 -144951 8521.27 12747.1 -21421.7 -7.41123 
1163 1 10.691 6.042 3 6.02327 -136217 -154577 -151812 32852.6 8194.04 -15637.3 -7.41104 
1164 1 11.388 4.808 3 6.02517 -143386 -148983 -147398 19900.4 9047.63 -20268.6 -7.41107 
1165 1 10.668 3.586 3 6.02536 -129874 -135292 -152317 16952.4 3702.71 -16212.5 -7.41105 
1166 1 11.366 2.352 3 6.02416 -133750 -132520 -149396 7584.84 5235.76 -19167.2 -7.41109 
1167 1 10.646 1.13 3 6.01996 -139417 -161106 -152162 36639.6 -300.383 -16730.3 -7.41106 
1350 1 13.549 8.472 3 6.02468 -137716 -130564 -139173 -31310.2 15532.4 -26292.8 -7.41173 
1351 1 12.829 7.251 3 6.02369 -139263 -154834 -149452 -5091.68 9813.4 -18892.8 -7.41093 
1352 1 13.526 6.016 3 6.02341 -142670 -149302 -142395 -16630.8 11723.7 -24984.7 -7.41154 
1353 1 12.806 4.795 3 6.02415 -132725 -135754 -150066 -17582.5 5240.84 -19539.3 -7.41093 
1354 1 13.504 3.56 3 6.02217 -132602 -135090 -145015 -32875.4 8019.22 -23708.1 -7.41131 
1355 1 12.784 2.339 3 6.02587 -148815 -186880 -149875 12730.2 901.19 -20216.3 -7.41097 
1356 1 13.481 1.105 3 6.01816 -140767 -161518 -147268 15422 3977.18 -22455.2 -7.4113 
1539 1 14.967 8.459 3 6.0257 -129989 -143765 -147193 21603 11515.6 -21915 -7.41086 
1540 1 15.665 7.225 3 6.02367 -176586 -118140 -135744 21729.8 14534.1 -29992.8 -7.41188 
1541 1 14.944 6.003 3 6.02392 -122714 -124591 -147944 34721.5 6579.74 -22757.3 -7.41085 
1542 1 15.642 4.769 3 6.02705 -134294 -138238 -139104 4709.88 10800.8 -28581.6 -7.41132 
1543 1 14.922 3.547 3 6.02044 -129459 -143550 -147553 20422.2 2243.96 -23588.9 -7.41074 
1544 1 15.62 2.313 3 6.02303 -181425 -153577 -142114 1207.4 6879.35 -27253.4 -7.41171 
1545 1 14.899 1.092 3 6.02276 -126375 -130035 -146518 -101.175 -2106.44 -24443.9 -7.41096 
1727 1 17.105 9.668 3 6.02705 -130313 -145579 -144518 -15614.8 13054.2 -24874.8 -7.41096 
1728 1 17.803 8.433 3 6.02413 -130784 -118992 -127916 -17519.1 17526.1 -34956.6 -7.41192 
1729 1 17.082 7.212 3 6.02324 -171020 -125002 -145144 1.23184 8136.88 -25940 -7.41134 
1730 1 17.78 5.977 3 6.02629 -136552 -137885 -132375 -32251.6 13751.7 -33448.4 -7.41167 
1731 1 17.06 4.756 3 6.02705 -131020 -142873 -144781 -17086.2 3458.38 -26919.5 -7.41097 
1732 1 17.758 3.521 3 6.02217 -125882 -123507 -135912 -19544.5 9941.81 -32059.7 -7.41137 
1733 1 17.037 2.3 3 6.02304 -179854 -156641 -143603 17212.7 -936.402 -27973.1 -7.41161 
1734 1 17.735 1.066 3 6.02202 -134790 -149950 -139439 -693.886 5840.58 -30527.5 -7.41131 
12879 2 10.556 8.693 6.4 6.02341 -144732 -146339 -145065 8258.7 15083.3 -19765.7 -7.41141 
12880 2 11.276 7.472 6.4 6.02415 -131719 -136660 -150684 32344 11723.8 -15658 -7.41091 
12881 2 10.578 6.237 6.4 6.02468 -135781 -129558 -147337 23045.8 11562 -18991.6 -7.41131 
12882 2 11.298 5.016 6.4 6.02369 -139197 -152979 -151622 19986.5 7098.2 -16358.2 -7.41084 
12883 2 10.601 3.781 6.4 6.02341 -140941 -148413 -149548 7128.16 7869.96 -18145.8 -7.41118 
12884 2 11.321 2.56 6.4 6.02415 -132948 -133917 -151697 31385.5 2767.64 -17195 -7.41087 
12885 2 10.623 1.325 6.4 6.02404 -132167 -132447 -150940 21977 4229.28 -17489.9 -7.41109 
12886 2 11.343 0.104 6.4 6.02493 -142671 -159524 -150926 14157.9 -1370.34 -18080.2 -7.4109 
13068 2 13.391 8.719 6.4 6.02327 -135981 -157910 -148136 -17484 13750.3 -18701.4 -7.41121 
13069 2 12.694 7.485 6.4 6.02517 -145725 -148450 -142315 -28775.7 14335.6 -23631.9 -7.41134 
13070 2 13.414 6.263 6.4 6.02536 -129341 -138627 -149262 -2651.4 8799.95 -19537.1 -7.41119 
13071 2 12.716 5.029 6.4 6.0242 -136857 -131652 -145015 -17527.7 10708.4 -22695.3 -7.41123 
13072 2 13.436 3.807 6.4 6.02327 -136916 -155147 -149300 -18592 4394.54 -20459.6 -7.41117 
13073 2 12.739 2.573 6.4 6.02517 -142289 -150619 -147163 -30133 6974.49 -21742.7 -7.41108 
13074 2 13.459 1.351 6.4 6.02475 -130488 -136550 -148725 -3892.45 -7.2004 -21336.3 -7.4112 
13075 2 12.761 0.117 6.4 6.02418 -135751 -142907 -148974 -13996.6 3107.58 -20949 -7.41104 
13257 2 14.809 8.732 6.4 6.02413 -130888 -116466 -135622 7611.29 17257.1 -28603.8 -7.41151 
13258 2 15.53 7.511 6.4 6.02324 -170313 -124471 -146965 20363.5 10565.5 -22529.7 -7.41125 
13259 2 14.832 6.276 6.4 6.02629 -136560 -135344 -139049 20656.6 13539.3 -27522.5 -7.41132 
13260 2 15.552 5.055 6.4 6.02705 -130315 -142301 -147130 36026.6 5849.54 -23582.3 -7.41086 
13261 2 14.854 3.82 6.4 6.02413 -127285 -118503 -141950 6033.49 9938.59 -26487.7 -7.41118 
13262 2 15.575 2.599 6.4 6.02324 -171538 -121785 -146133 19015.5 1422.1 -24696 -7.41131 
13263 2 14.877 1.364 6.4 6.02505 -133128 -138176 -144630 19132.6 5965.68 -25363.9 -7.41099 
13264 2 15.597 0.143 6.4 6.02768 -133710 -148838 -144586 29764.3 -2855.84 -25935.2 -7.41104 
13446 2 17.645 8.758 6.4 6.0257 -130073 -146175 -144423 -588.59 12216.6 -25473.4 -7.41099 
13447 2 16.947 7.524 6.4 6.02367 -177181 -118779 -132079 -32504.9 16507.5 -32406.4 -7.41207 
13448 2 17.668 6.302 6.4 6.02392 -122822 -127023 -144350 -15086.5 7270.71 -26743.5 -7.41101 
13449 2 16.97 5.068 6.4 6.02705 -134936 -138875 -135699 -17154.5 12913.1 -31228 -7.41149 
13450 2 17.69 3.846 6.4 6.0257 -131035 -143504 -143524 -2049.13 2750.5 -27952.8 -7.41106 
13451 2 16.992 2.612 6.4 6.02367 -173946 -120904 -138916 -34316.8 9029.05 -30075.3 -7.4117 
13452 2 17.713 1.39 6.4 6.02332 -123941 -125010 -141780 -16728.9 -1714.7 -29207.6 -7.41114 
13453 2 17.015 0.156 6.4 6.0283 -133988 -150088 -141660 -14079.5 5136.89 -28992.6 -7.41119 
13635 2 19.063 8.771 6.4 6.02468 -140249 -134882 -123242 19593.2 19568.8 -37270.5 -7.41231 
13637 2 19.086 6.315 6.4 6.02341 -143831 -153089 -127963 5094.08 15927.3 -35997.3 -7.41229 
13639 2 19.108 3.859 6.4 6.02468 -135344 -136362 -131775 19431.8 12239.2 -34851.5 -7.4121 
13641 2 19.131 1.403 6.4 6.02217 -140595 -155859 -135854 3123.16 8249.24 -33451.6 -7.41183 
1916 1 19.941 9.642 3 6.02421 -141014 -135357 -118771 7189.15 20305 -39766.6 -7.4126 
1917 1 19.221 8.42 3 6.02327 -137507 -161374 -142956 38393.2 9494.1 -28622.5 -7.41145 
1918 1 19.918 7.186 3 6.02517 -146158 -154114 -123680 18131.9 16755.9 -38341.9 -7.4123 
1919 1 19.198 5.964 3 6.02536 -130917 -142151 -142349 22189.2 4582.81 -29929.5 -7.41152 
1920 1 19.896 4.73 3 6.02421 -137484 -137276 -128283 5217 12944.2 -36860.5 -7.41209 
1921 1 19.176 3.508 3 6.01937 -137042 -161262 -141046 36873.8 132.287 -31072.5 -7.41145 
1922 1 19.873 2.274 3 6.02587 -151274 -189602 -132470 -2894.03 9050.74 -35335.7 -7.41199 
1923 1 19.153 1.053 3 6.02276 -134604 -147787 -138673 -13059 -4247.15 -32317.9 -7.41175 
2105 1 21.359 9.629 3 6.02369 -140779 -161905 -140428 367.015 10679.6 -31113.6 -7.41134 
2106 1 22.056 8.394 3 6.02341 -145536 -155032 -114130 -17865.5 19589 -42934 -7.41302 
2107 1 21.336 7.173 3 6.02415 -134056 -143007 -139525 -12351.6 5811.18 -32674.8 -7.41142 
2108 1 22.034 5.938 3 6.02468 -136933 -138226 -119559 -34284.9 16082.3 -41522.6 -7.41275 
2109 1 21.314 4.717 3 6.02369 -141576 -159439 -137894 -1388.89 1113.66 -34094.4 -7.4115 
2110 1 22.011 3.482 3 6.01853 -140932 -159480 -124662 -20325.3 12147.5 -39984.3 -7.41233 
2111 1 21.291 2.261 3 6.02419 -142932 -174793 -135446 4517 -3329.52 -35468.2 -7.41184 
2112 1 21.989 1.027 3 6.02364 -135371 -150200 -129225 -3163.76 8237.19 -38369.5 -7.41225 
2294 1 24.195 9.603 3 6.02367 -179496 -124291 -103199 21025.5 22394.7 -47284.9 -7.41359 
2295 1 23.474 8.381 3 6.02392 -124266 -132003 -137185 39808.9 6664.61 -34894.3 -7.41135 
2296 1 24.172 7.147 3 6.02705 -137274 -144296 -109143 3591.58 18944.3 -45961.7 -7.41288 
2297 1 23.452 5.925 3 6.0257 -132316 -148596 -135306 25096.5 2076.76 -36590 -7.41145 
2298 1 24.15 4.691 3 6.02367 -176269 -126206 -115059 18639.4 15265.9 -44502.1 -7.41294 
2299 1 23.429 3.469 3 6.02094 -123882 -132132 -132556 38002.9 -2594.35 -38197.9 -7.41149 
2300 1 24.127 2.235 3 6.02772 -142639 -179718 -120591 -17844.3 11471.8 -42868.8 -7.41242 
2301 1 23.407 1.014 3 6.02153 -135994 -154435 -128964 -10486.1 -6712.88 -39671.9 -7.41182 
2483 1 25.612 9.59 3 6.02324 -172696 -132249 -134878 4829.62 7594.24 -36643.5 -7.41182 
2484 1 26.31 8.355 3 6.02629 -139573 -144244 -98024.9 -32828.4 21723.2 -49758.8 -7.41347 
2485 1 25.59 7.134 3 6.02705 -132598 -150439 -132397 -12407.8 2791.82 -38574 -7.41156 
2486 1 26.288 5.899 3 6.02413 -130459 -127233 -104543 -20245.6 18375.6 -48488.6 -7.41313 
2487 1 25.567 4.678 3 6.02324 -173645 -130117 -129253 2846.5 -1747.1 -40440.7 -7.41214 
2488 1 26.265 3.443 3 6.01966 -135272 -148615 -111282 -35657 14687.9 -46872.3 -7.41263 
2489 1 25.545 2.222 3 6.02772 -141538 -182515 -125362 4192.48 -6146.49 -42084.3 -7.41214 
2490 1 26.243 0.988 3 6.02214 -129140 -139173 -117042 10470.1 10852.6 -45250.4 -7.41246 
2672 1 28.448 9.564 3 6.02517 -149162 -160538 -85620.6 18040 24295.5 -53042.8 -7.41431 
2673 1 27.728 8.342 3 6.02536 -132609 -149407 -130249 26528.9 3272.15 -39821.7 -7.4121 
2674 1 28.426 7.108 3 6.02421 -140641 -143609 -92762.5 4804.26 21144.9 -51841.1 -7.41396 
2675 1 27.706 5.886 3 6.02327 -140093 -166320 -127041 40888.5 -1198.14 -41837 -7.41225 
2676 1 28.403 4.652 3 6.02517 -146304 -162391 -100075 15355.8 17808.9 -50399.6 -7.41352 
2677 1 27.683 3.43 3 6.02179 -132361 -149907 -122423 24517.9 -5648.22 -43826.9 -7.41242 
2678 1 28.381 2.196 3 6.02416 -146260 -178915 -107027 -16958 14165.3 -48791.4 -7.41334 
2679 1 27.661 0.975 3 6.01977 -143807 -172385 -117623 5045.5 -9695.25 -45518.1 -7.4128 
13636 2 19.783 7.55 6.4 6.02125 -140210 -160188 -142132 25282.6 8646.42 -29410.7 -7.41127 
13638 2 19.806 5.094 6.4 6.02415 -133709 -141178 -141040 36365 3917.88 -30886.1 -7.41137 
13640 2 19.828 2.638 6.4 6.02369 -141451 -157628 -138920 23580.1 -597.227 -32276.9 -7.41146 
13642 2 19.851 0.182 6.4 6.02417 -137064 -147814 -136146 29705.1 -4903.83 -33844.7 -7.41167 
13824 2 21.899 8.797 6.4 6.02418 -139873 -177913 -139473 17994.5 9733.81 -31946.2 -7.41187 
13825 2 21.201 7.563 6.4 6.02364 -138408 -139502 -118945 -19211.6 19011.1 -40690.9 -7.41246 
13826 2 21.921 6.341 6.4 6.02327 -137987 -162772 -138067 -13608 5102.57 -33622.4 -7.41169 
13827 2 21.224 5.107 6.4 6.02517 -145279 -155795 -123850 -32069.7 15366.5 -39409.4 -7.41229 
13828 2 21.944 3.885 6.4 6.02536 -131649 -143649 -135866 813.598 358.852 -35244.1 -7.41185 
13829 2 21.246 2.651 6.4 6.0242 -136873 -139053 -128256 -21265.7 11540.6 -38089.4 -7.41208 
13830 2 21.966 1.429 6.4 6.02305 -139101 -160913 -133044 -15603.2 -3893.88 -36762.4 -7.41195 
13831 2 21.269 0.195 6.4 6.0258 -144508 -166923 -132277 -29425.1 7550.25 -36803.5 -7.41185 
14013 2 23.317 8.81 6.4 6.02587 -156603 -188942 -108519 -11777.4 21860.5 -45056.5 -7.4133 
14014 2 24.037 7.589 6.4 6.02238 -130306 -150570 -135840 40731.7 5930.66 -35850.1 -7.41149 
14015 2 23.339 6.354 6.4 6.02413 -130387 -124236 -113978 4662.24 18463.9 -43902.7 -7.41263 
14016 2 24.06 5.133 6.4 6.02324 -172654 -129669 -133256 23622.5 1286.64 -37691.3 -7.41193 
14017 2 23.362 3.898 6.4 6.02629 -136567 -143146 -119389 17258.9 14672.7 -42583.1 -7.41232 
14018 2 24.082 2.677 6.4 6.02705 -132928 -147706 -129831 38875.4 -3155.02 -39413.4 -7.41174 
14019 2 23.384 1.442 6.4 6.02401 -127361 -126905 -124589 2283.83 10917.8 -41129.1 -7.41203 
14020 2 24.105 0.221 6.4 6.02325 -175992 -136509 -125604 16622.8 -7399.78 -41229 -7.41238 
14202 2 26.153 8.836 6.4 6.02418 -132188 -167879 -133184 7402.69 6566.73 -37609.1 -7.41175 
14203 2 25.455 7.602 6.4 6.02044 -136627 -147515 -103354 -18161.6 21363.6 -47837.8 -7.41306 
14204 2 26.175 6.38 6.4 6.0257 -132389 -151346 -130541 2391.22 2037.93 -39634 -7.41168 
14205 2 25.477 5.146 6.4 6.02367 -177156 -126840 -109616 -35530.6 17822.7 -46604.8 -7.41324 
14206 2 26.198 3.924 6.4 6.02392 -125459 -132446 -126577 -12484.7 -2510.17 -41651.4 -7.41191 
14207 2 25.5 2.69 6.4 6.02705 -135380 -146947 -115363 -20588.4 14188.7 -45129.8 -7.41253 
14208 2 26.22 1.468 6.4 6.02445 -133545 -149756 -122576 115.11 -6701.16 -43400.1 -7.4121 
14209 2 25.522 0.234 6.4 6.02391 -176556 -137804 -120768 -33267.4 10225 -43735.7 -7.41264 
14391 2 27.571 8.849 6.4 6.02303 -154994 -193187 -91401.9 -14016 24049.3 -51179.6 -7.41442 
14392 2 28.291 7.628 6.4 6.02217 -133765 -151109 -128446 40739.6 2445.19 -40876.6 -7.41186 
14393 2 27.593 6.393 6.4 6.02468 -138614 -142530 -98000 18792.9 20840.9 -50097.2 -7.41387 
14394 2 28.313 5.172 6.4 6.02369 -142829 -165384 -124429 27543.6 -2013.13 -43007.9 -7.41218 
14395 2 27.616 3.937 6.4 6.02341 -144259 -161247 -105070 2041.08 17336.7 -48684.1 -7.41347 
14396 2 28.336 2.716 6.4 6.02415 -136614 -146672 -119320 38268.3 -6256.47 -45052.3 -7.41249 
14397 2 27.638 1.481 6.4 6.02404 -135825 -145050 -111454 16089.3 13675.7 -47222.2 -7.4131 
14398 2 28.358 0.26 6.4 6.02493 -146204 -172545 -113607 20292.9 -10344.3 -47003.7 -7.4128 
2861 1 29.866 9.551 3 6.02415 -135765 -149622 -128430 -8486.84 3744.93 -40409.8 -7.41196 
2862 1 30.564 8.316 3 6.02468 -140074 -144483 -80115.7 -34178.5 23789.3 -54483.5 -7.41484 
2863 1 29.844 7.095 3 6.02369 -143272 -166516 -124247 2436.89 -834.544 -42738.2 -7.41217 
2864 1 30.541 5.86 3 6.02341 -145675 -163108 -88396.4 -20268.7 20639.9 -53254 -7.41436 
2865 1 29.821 4.639 3 6.02415 -136909 -147939 -119514 -10595.3 -5155.35 -44885.1 -7.41245 
2866 1 30.519 3.404 3 6.02217 -138380 -148239 -96178.9 -35521.8 17413.1 -51738.2 -7.41362 
2867 1 29.799 2.183 3 6.02392 -152351 -199099 -113949 18901.5 -9330.25 -46823.1 -7.41291 
2868 1 30.496 0.949 3 6.02149 -146909 -174357 -103805 8564.36 13689.7 -50052.1 -7.41332 
3050 1 32.702 9.525 3 6.02705 -140332 -150238 -66750.9 4136.48 25913.8 -56445.9 -7.41514 
3051 1 31.982 8.303 3 6.0257 -133993 -154904 -122698 28377 -633.721 -42758 -7.41207 
3052 1 32.68 7.069 3 6.02367 -179557 -132050 -75062.7 18986.5 23263.7 -55397.1 -7.41506 
3053 1 31.959 5.847 3 6.02392 -127034 -136362 -117429 41071.1 -5034.26 -45207.2 -7.41237 
3054 1 32.657 4.613 3 6.02587 -137956 -150078 -83891.2 1652.17 20237.4 -54045.4 -7.41441 
3055 1 31.937 3.391 3 6.02023 -142935 -169951 -111587 38970.9 -9033.33 -47265.4 -7.41274 
3056 1 32.634 2.157 3 6.02304 -152120 -200349 -92354.4 -3841.74 17030.2 -52401.4 -7.41429 
3057 1 31.914 0.936 3 6.02276 -140459 -156975 -104588 -7904.36 -12951.7 -49321.4 -7.41329 
3239 1 34.12 9.512 3 6.02705 -134175 -155646 -121258 -9804.68 -707.785 -42195.3 -7.41212 
3240 1 34.818 8.277 3 6.02413 -133652 -132623 -61496.3 -19459.3 25515.3 -56631.9 -7.41543 
3241 1 34.097 7.056 3 6.02324 -175305 -135917 -115266 5533.96 -4880.41 -44784.4 -7.41284 
3242 1 34.795 5.821 3 6.02629 -140121 -151373 -71356.1 -34798.6 22901.7 -55457.7 -7.41487 
3243 1 34.075 4.6 3 6.02705 -135587 -154495 -108805 -11925.6 -8943.41 -47063.7 -7.4128 
3244 1 34.773 3.365 3 6.02217 -129299 -137378 -80274.4 -21633.4 20021.9 -54098.3 -7.41428 
3245 1 34.052 2.144 3 6.02418 -136354 -170185 -101530 21506.8 -12722.9 -49223.4 -7.41341 
3246 1 34.75 0.91 3 6.02231 -138575 -163467 -89716.6 -5460.79 16775.6 -52375.8 -7.41389 
3428 1 36.956 9.486 3 6.02421 -143696 -148340 -47716.5 5948.43 27388 -56991.6 -7.41638 
3429 1 36.236 8.264 3 6.02327 -141620 -170908 -114553 42834.6 -5074.63 -43418.9 -7.41289 
3430 1 36.933 7.03 3 6.02517 -149633 -167007 -57479.4 16410.8 25226.6 -55997.7 -7.4158 
3431 1 36.213 5.808 3 6.02536 -135456 -152558 -107362 26399.6 -9075.25 -45994.6 -7.41331 
3432 1 36.911 4.574 3 6.02418 -140909 -149581 -67426.7 3220.43 22656.6 -54799.8 -7.41541 
3433 1 36.191 3.352 3 6.01691 -141822 -172406 -99903.8 40777.8 -12737.9 -48194.2 -7.41357 
3434 1 36.888 2.118 3 6.02587 -156396 -202327 -77388.9 -5388.08 19903 -53239.3 -7.41475 
3435 1 36.168 0.897 3 6.02276 -139444 -159594 -91233.2 -9524.19 -16254.5 -50322.4 -7.41421 
14580 2 30.406 8.875 6.4 6.02392 -150451 -201779 -126215 10715.5 2735.03 -41466.5 -7.41225 
14581 2 29.709 7.641 6.4 6.02023 -147100 -164487 -86082.9 -32352.3 23554.6 -52861.1 -7.41416 
14582 2 30.429 6.419 6.4 6.02421 -135464 -150378 -121783 2666.63 -1763.08 -43874.4 -7.41233 
14583 2 29.731 5.185 6.4 6.02421 -140257 -145050 -93673.8 -21673.8 20394.4 -51660.7 -7.4139 
14584 2 30.451 3.963 6.4 6.02466 -143224 -167301 -116408 -10383.4 -5848.2 -46102.2 -7.4126 
14585 2 29.754 2.729 6.4 6.02466 -146110 -163804 -100926 -35050.2 16935.7 -50169.5 -7.41347 
14586 2 30.474 1.507 6.4 6.02422 -136737 -149154 -110595 219.345 -9977.45 -48136.4 -7.41293 
14587 2 29.776 0.273 6.4 6.02418 -139844 -155847 -107807 -19660.3 13240.8 -48642 -7.41314 
14769 2 31.824 8.888 6.4 6.02418 -151190 -178079 -72484.9 -641.587 25964 -55016 -7.41523 
14770 2 32.544 7.667 6.4 6.01853 -139454 -171663 -120248 27918.6 -1596.81 -43879.7 -7.41246 
14771 2 31.847 6.432 6.4 6.02369 -148929 -162956 -80971.4 4747.75 23020.7 -53907.4 -7.41455 
14772 2 32.567 5.211 6.4 6.02468 -134678 -150688 -114484 41891.1 -5800.47 -46384.3 -7.41293 
14773 2 31.869 3.976 6.4 6.02415 -140800 -146137 -88894.6 15173.8 19973.2 -52609 -7.41412 
14774 2 32.589 2.755 6.4 6.02341 -142476 -167670 -107841 25336.8 -9789.25 -48511.2 -7.41327 
14775 2 31.892 1.52 6.4 6.02245 -146374 -165311 -97458.8 1824.94 16531.5 -50981.6 -7.41361 
14776 2 32.612 0.299 6.4 6.02532 -138121 -158201 -100410 34517.5 -13474.9 -50651.4 -7.41373 
14958 2 34.66 8.914 6.4 6.02772 -141838 -189979 -118789 24826.1 -1790.7 -43264.2 -7.41246 
14959 2 33.962 7.68 6.4 6.02154 -130839 -136175 -67626.3 -34672.3 25456 -55341.4 -7.41498 
14960 2 34.683 6.458 6.4 6.02392 -126352 -138887 -112344 -11016 -5879.43 -45919.9 -7.41263 
14961 2 33.985 5.224 6.4 6.02637 -138856 -152250 -76680.9 -20135.6 22741.1 -54147.7 -7.41459 
14962 2 34.705 4.002 6.4 6.02637 -134862 -156005 -105554 3714.34 -9674.21 -48243.3 -7.413 
14963 2 34.007 2.768 6.4 6.02392 -130115 -135299 -85386.4 -37496.9 19645.3 -52741.9 -7.41414 
14964 2 34.728 1.546 6.4 6.02332 -127769 -138113 -97789.9 -13512.8 -13380.5 -50497.9 -7.4134 
14965 2 34.03 0.312 6.4 6.02763 -138594 -162808 -93788.5 -18254.4 16341.3 -51093.6 -7.41366 
15147 2 36.078 8.927 6.4 6.02654 -149666 -183055 -53366.3 717.717 27497.4 -55838.6 -7.41626 
15148 2 36.798 7.706 6.4 6.01881 -142791 -172405 -111891 29594.8 -6135.55 -44552.9 -7.41269 
15149 2 36.101 6.471 6.4 6.02341 -147670 -166053 -63326.9 2986.99 25115.2 -54806.5 -7.4157 
15150 2 36.821 5.25 6.4 6.02415 -138119 -151767 -104288 40184.3 -9908.28 -47130.2 -7.41326 
15151 2 36.123 4.015 6.4 6.02468 -139710 -149054 -72484.2 16833.6 22454.8 -53601.4 -7.41521 
15152 2 36.843 2.794 6.4 6.02369 -146058 -168908 -96025.7 27080.7 -13535.1 -49366.8 -7.41368 
15153 2 36.146 1.559 6.4 6.02217 -145307 -168165 -82569.6 26.6664 19453.1 -52044.1 -7.41461 
15154 2 36.866 0.338 6.4 6.02417 -141696 -159718 -86896 32831.2 -16773.4 -51503.3 -7.41424 
15337 2 38.216 7.719 6.4 6.02179 -142076 -151687 -49427.1 -20483.7 27217.4 -54680.8 -7.41615 
15339 2 38.239 5.263 6.4 6.02466 -149585 -167731 -59722.6 -33726.9 24923.7 -53566.5 -7.41568 
15341 2 38.261 2.807 6.4 6.02421 -141582 -150622 -69755.8 -23296.7 22289.3 -52237.6 -7.41516 
15343 2 38.284 0.351 6.4 6.02467 -149444 -178007 -79691.7 -31820.7 19435.4 -50604.3 -7.4146 
3617 1 38.374 9.473 3 6.02341 -144571 -169719 -113838 3557.63 -5380.12 -41561.6 -7.4127 
3618 1 39.071 8.238 3 6.02341 -151210 -166395 -43705.4 -20517.7 27114.6 -55691.6 -7.41656 
3619 1 38.351 7.017 3 6.02415 -138394 -151807 -106223 -9262.28 -9217.19 -44140.5 -7.41314 
3620 1 39.049 5.782 3 6.02217 -141800 -151928 -54280.2 -34116.5 25106.6 -54661.1 -7.41587 
3621 1 38.329 4.561 3 6.02392 -154996 -203273 -97981.3 20539 -12879.1 -46524.3 -7.41364 
3622 1 39.026 3.327 3 6.0183 -147201 -171376 -65144.8 14509.3 22558.2 -53414 -7.41525 
3623 1 38.306 2.105 3 6.02419 -138657 -152095 -89143.9 26390.8 -16280.4 -48700.8 -7.41418 
3624 1 39.004 0.871 3 6.02424 -143861 -158211 -75464.6 -3640.95 19944.1 -51768.7 -7.41498 
3806 1 41.209 9.447 3 6.02327 -149229 -168178 -29564.6 19815.8 28678.8 -54563.9 -7.41753 
3807 1 40.489 8.225 3 6.0242 -137852 -152836 -106106 28506.3 -9682.79 -41737.1 -7.41316 
3808 1 41.187 6.991 3 6.02536 -141350 -151025 -40320.6 3054.35 26962.7 -53742.8 -7.41698 
3809 1 40.467 5.769 3 6.02023 -144360 -172992 -97778.2 39684.2 -13135 -44126.9 -7.41347 
3810 1 41.164 4.535 3 6.02303 -155954 -202383 -51717.2 -1985.82 25004.1 -52579.8 -7.41651 
3811 1 40.444 3.314 3 6.02217 -138905 -153936 -88124.8 -11580.1 -16474.6 -46485.3 -7.41401 
3812 1 41.142 2.079 3 6.02404 -139619 -152096 -62816.8 -37596.1 22654.6 -51221.6 -7.4157 
3813 1 40.422 0.858 3 6.02493 -151426 -175460 -78434.6 3954.64 -19498.3 -48401.1 -7.41479 
3995 1 42.627 9.434 3 6.02413 -128047 -138166 -106513 4678.82 -10034.7 -38791.4 -7.41295 
3996 1 43.325 8.199 3 6.02773 -142639 -153900 -26772.6 -33785.5 28604.6 -51985.5 -7.41729 
3997 1 42.605 6.978 3 6.02773 -136751 -156092 -97330.5 -12055.9 -13557.7 -41191.5 -7.41341 
3998 1 43.303 5.743 3 6.02217 -132632 -139153 -38178.1 -19464.7 27012.9 -51126.3 -7.41656 
3999 1 42.582 4.522 3 6.02418 -138109 -171763 -87362.9 21631.6 -16723.6 -43524.7 -7.41419 
4000 1 43.28 3.288 3 6.02044 -138815 -158580 -50533.1 1393.12 25073.2 -49938.4 -7.41586 
4001 1 42.56 2.066 3 6.02512 -137913 -157257 -77080.6 23591.8 -19754.7 -45563.8 -7.4145 
4002 1 43.258 0.832 3 6.02424 -134845 -145239 -61902.5 11160.4 22857.4 -48481 -7.41552 
4184 1 45.463 9.408 3 6.02517 -152437 -167990 -12848.2 18650.4 29784 -49568.7 -7.41824 
4185 1 44.743 8.186 3 6.02536 -136274 -152689 -98325.4 25362.1 -13995.6 -37776.7 -7.41381 
4186 1 45.441 6.952 3 6.02421 -144691 -150829 -24793.3 5426.42 28620.4 -48770.3 -7.41761 
4187 1 44.721 5.73 3 6.01937 -142904 -173166 -88421.7 40078.4 -17137.7 -40026.8 -7.41419 
4188 1 45.418 4.496 3 6.02587 -159430 -201997 -37089.7 -2905.57 27098 -47787.7 -7.4171 
4189 1 44.698 3.275 3 6.02217 -137645 -154290 -77291.9 -14452.1 -19975.3 -42177.1 -7.41481 
4190 1 45.396 2.04 3 6.02403 -143081 -151655 -49600.5 -34964.4 25302.2 -46516.4 -7.41621 
4191 1 44.676 0.819 3 6.02394 -150204 -176087 -66147.4 4615.44 -22615.9 -43971.7 -7.41567 
4373 1 46.881 9.395 3 6.02415 -138808 -150545 -100041 -11248.4 -14396.4 -33990.8 -7.41349 
4374 1 47.579 8.16 3 6.02415 -146081 -149461 -11567.7 -31272.8 29970.6 -45764.2 -7.41833 
4375 1 46.859 6.939 3 6.02341 -147036 -168517 -89504 -36.0178 -17508.1 -36205.7 -7.41404 
4376 1 47.556 5.704 3 6.01853 -150917 -170176 -24583.7 -20841.7 28818.6 -45015.5 -7.41748 
4377 1 46.836 4.483 3 6.02418 -149246 -184585 -77976 5986.2 -20352.9 -38179.1 -7.41489 
4378 1 47.534 3.249 3 6.02179 -142462 -153904 -37506.2 4241.31 27415.8 -43989.7 -7.41679 
4379 1 46.814 2.027 3 6.02391 -148495 -170230 -66185.5 35941.3 -22925.5 -40035.8 -7.41528 
4380 1 47.511 0.793 3 6.02467 -153148 -176059 -50410.3 10179 25544.6 -42664.8 -7.41632 
15336 2 38.914 8.953 6.4 6.02418 -145235 -186293 -111141 22634.1 -6583.63 -42607.1 -7.41308 
15338 2 38.936 6.497 6.4 6.02466 -144608 -171064 -103213 -9177.91 -10158 -45247.2 -7.41329 
15340 2 38.959 4.041 6.4 6.02421 -138573 -152841 -94894.3 1630.78 -13696.2 -47707.5 -7.41377 
15342 2 38.981 1.585 6.4 6.02391 -146230 -170775 -85493.1 -11573.8 -16844.2 -49880.8 -7.41423 
15525 2 40.332 8.966 6.4 6.02587 -160027 -200076 -35193.7 -12377.8 28836.1 -53639.1 -7.41722 
15526 2 41.052 7.745 6.4 6.02217 -134396 -155431 -103451 42510.6 -10678 -42802.9 -7.41339 
15527 2 40.354 6.51 6.4 6.02415 -144143 -149303 -45591 16905.2 26963.2 -52801.1 -7.41646 