ITEM: TIMESTEP
0
ITEM: NUMBER OF ATOMS
13256
ITEM: BOX BOUNDS pp pp pp
0.0000000000000000e+00 1.0011754500000001e+02
0.0000000000000000e+00 1.7340867499999999e+02
0.0000000000000000e+00 1.8399999600000001e+01
ITEM: ATOMS id type x y z c_csym c_2[1] c_2[2] c_2[3] c_2[4] c_2[5] c_2[6] c_3 
1 1 0 0 7.5 6.04905 5061.14 4878.35 -158743 -43.865 0.0504984 0.310288 -7.40754 
2 1 2.14494 1.2035 7.5 6.04912 4109.33 6330.87 -158067 -2231.1 3534.89 -6269.97 -7.40758 
3 1 3.56484 1.18606 7.5 6.04918 6436.15 3892.11 -157314 3810.3 2967.05 -9678.03 -7.40762 
4 1 6.40462 1.15117 7.5 6.04918 4273.49 5441.11 -154058 -6325.52 4545.66 -17940.2 -7.40782 
5 1 7.82452 1.13373 7.5 6.04918 6336.05 3304.97 -152636 7930.19 958.719 -19956.5 -7.4079 
48 1 0.0302105 2.45933 7.5 6.04907 2461.62 7537.76 -158122 -94.3828 6758.98 -60.1392 -7.40758 
49 1 1.4501 2.44188 7.5 6.04912 7643.51 2841.12 -157880 1617.66 7075.85 -3837.87 -7.40758 
50 1 2.17516 3.66283 7.5 6.04913 1416.21 8932.33 -156806 -2153.73 9906.55 -6607.46 -7.40765 
51 1 3.59505 3.64538 7.5 6.0492 8725.81 1562.15 -156132 3969.75 10173 -8983.29 -7.40769 
52 1 4.28989 2.407 7.5 6.04918 2871.91 7289.38 -155966 -4206.27 7113.76 -12638.6 -7.4077 
53 1 5.70978 2.38956 7.5 6.04918 7591.12 2585.68 -155106 6027.7 5643.1 -14527.7 -7.40775 
54 1 6.43483 3.6105 7.5 6.0492 1556.15 7884.37 -152376 -6018.43 10585.9 -18832.5 -7.40792 
55 1 7.85473 3.59306 7.5 6.0492 8667.94 1217.69 -152156 8217.21 7804.94 -18420.8 -7.40793 
56 1 8.54957 2.35467 7.5 6.04918 3027.48 5969.91 -149812 -7974.06 8441.34 -23631.6 -7.40807 
142 1 0.060421 4.91865 7.5 6.04908 -276.835 10038 -156390 -184.639 12775 -108.642 -7.40768 
143 1 1.48031 4.90121 7.5 6.04913 9726.41 378.951 -155815 1751.47 14372 -3580.81 -7.40771 
144 1 2.20537 6.12215 7.5 6.04913 -1334.52 11381.9 -154552 -2102.12 15403.2 -6841.98 -7.40779 
145 1 3.62526 6.10471 7.5 6.0492 10634.5 -812.261 -153510 4145.4 17337.6 -8164.09 -7.40785 
146 1 4.3201 4.86633 7.5 6.0492 110.309 9719.93 -154028 -4038.77 12950.9 -13159.5 -7.40782 
147 1 5.73999 4.84888 7.5 6.0492 9704.06 285.697 -153518 6282.82 12727.8 -13294.9 -7.40785 
148 1 6.46504 6.06983 7.5 6.0492 -1227.38 10192.7 -149753 -5708.6 15767.9 -19456.4 -7.40807 
149 1 7.88494 6.05238 7.5 6.0492 10619.5 -901.002 -150306 8479.49 14658.3 -16633.4 -7.40804 
150 1 8.57978 4.814 7.5 6.0492 222.913 8180.63 -147297 -7589.81 13826.7 -24620.3 -7.40822 
236 1 0.0906315 7.37798 7.5 6.04908 -2993.33 12461 -153786 -269.058 17797.6 -149.671 -7.40784 
237 1 1.51052 7.36054 7.5 6.04913 11417.8 -2009.58 -152267 1864.07 21464.8 -3278.67 -7.40792 
238 1 2.23558 8.58148 7.5 6.04913 -4000.1 13733.2 -151560 -2027 19819.5 -6986.13 -7.40797 
239 1 3.65547 8.56404 7.5 6.0492 12122.7 -3087.88 -149411 4273.72 24173.5 -7236.11 -7.40809 
240 1 4.35031 7.32565 7.5 6.0492 -2628.33 12076.1 -151239 -3833.07 17809.6 -13497.7 -7.40798 
241 1 5.7702 7.30821 7.5 6.0492 11426.6 -1933.65 -150492 6470.21 19645 -11880.7 -7.40803 
242 1 6.49525 8.52915 7.5 6.0492 -3928.58 12422.3 -146443 -5344.17 19901.4 -19835.2 -7.40827 
243 1 7.91515 8.51171 7.5 6.0492 12148.1 -2916.82 -147036 8654.03 21247.3 -14631.7 -7.40824 
244 1 8.60999 7.27333 7.5 6.0492 -2560.1 10342.6 -144008 -7135.22 18266.1 -25288.4 -7.40842 
6 1 10.6643 1.09885 7.5 6.04918 4458.4 3977.51 -146588 -9886.37 6623.95 -27394.8 -7.40826 
7 1 12.0842 1.08141 7.5 6.04918 6300.16 2271.82 -145076 11373.4 -2272.76 -27784 -7.40836 
8 1 14.924 1.04652 7.5 6.04918 4670.57 2129.77 -136564 -12644.4 9620.38 -33860.7 -7.40887 
9 1 16.3439 1.02908 7.5 6.04918 6336.57 897.394 -135481 13894.3 -6431.66 -32735.6 -7.40893 
57 1 9.96946 2.33723 7.5 6.04918 7547.14 1916.2 -149347 9904.81 2748.12 -23312.4 -7.4081 
58 1 10.6945 3.55817 7.5 6.0492 1690.12 6123.62 -144105 -9407.75 12103.1 -28802.7 -7.40841 
59 1 12.1144 3.54073 7.5 6.0492 8688.74 561.921 -145740 11744.7 4010.41 -25583.1 -7.40832 
60 1 12.8092 2.30235 7.5 6.04918 3196.31 4112.83 -140438 -11096.3 10684.7 -31891.9 -7.40863 
61 1 14.2291 2.28491 7.5 6.04918 7576.37 912.814 -141306 12943.4 -1308.72 -29436.8 -7.40858 
62 1 14.9542 3.50585 7.5 6.0492 1842.45 3877.31 -132952 -12060.9 14425.4 -35709.7 -7.40908 
63 1 16.3741 3.48841 7.5 6.0492 8782.66 -361.991 -137628 14306.8 -803.898 -30088.5 -7.4088 
64 1 17.0689 2.25002 7.5 6.04918 3397.18 1904.38 -128871 -13343.8 13717.5 -37001 -7.40933 
151 1 9.99967 4.79656 7.5 6.0492 9711.32 -58.9734 -148740 10249.9 9387.48 -21266.2 -7.40814 
152 1 10.7247 6.0175 7.5 6.0492 -1146.27 8163.28 -140780 -8896.84 16747.9 -29831.8 -7.40861 
153 1 12.1446 6.00006 7.5 6.0492 10697.2 -1167.87 -145136 12065.6 10376 -23060.2 -7.40835 
154 1 12.8395 4.76167 7.5 6.0492 333.142 5984.83 -137007 -10560.6 15445.4 -33325.9 -7.40884 
155 1 14.2594 4.74423 7.5 6.0492 9799.49 -635.164 -142084 13341.3 4744.74 -26811.8 -7.40854 
156 1 14.9844 5.96517 7.5 6.0492 -1064.25 5548.87 -128624 -11424.2 18418.1 -37137.9 -7.40934 
157 1 16.4043 5.94773 7.5 6.0492 10841 -1633.88 -138621 14658.9 4992.5 -27108.6 -7.40874 
158 1 17.0991 4.70935 7.5 6.0492 466.075 3358.83 -124239 -12728.4 17796.4 -38818.6 -7.40961 
245 1 10.0299 7.25589 7.5 6.0492 11484.8 -1945.43 -146774 10493.5 15934.3 -18946.3 -7.40825 
246 1 10.7549 8.47683 7.5 6.0492 -3907.31 10157.3 -136865 -8303.11 20392.4 -30509.9 -7.40885 
247 1 12.1748 8.45939 7.5 6.0492 12274.7 -2789.82 -143191 12273.2 16577.1 -20264.8 -7.40847 
248 1 12.8697 7.221 7.5 6.0492 -2516.79 7841.81 -132918 -9928.78 19298.5 -34363.1 -7.40908 
249 1 14.2896 7.20356 7.5 6.0492 11624.5 -2087.6 -141602 13621 10802.9 -23876.8 -7.40857 
250 1 15.0146 8.4245 7.5 6.0492 -3904.9 7209.6 -123830 -10679.9 21459.1 -38170.4 -7.40963 
251 1 16.4345 8.40706 7.5 6.0492 12460.3 -2799.84 -138364 14891.8 10737.3 -23846.2 -7.40876 
252 1 17.1293 7.16867 7.5 6.0492 -2464.61 4826.04 -119080 -11998.2 20999.4 -40226.3 -7.40992 
346 1 17.1596 9.628 7.5 6.0492 -5281.21 6280.78 -113646 -11148.9 23231.3 -41252.3 -7.41025 
10 1 19.1837 0.994196 7.5 6.04918 4917.55 12.5543 -125001 -14418.4 13314.9 -37285.8 -7.40956 
11 1 20.6036 0.976754 7.5 6.04918 6442.59 -799.801 -124739 15361 -11168.5 -34999.3 -7.40958 
12 1 23.4433 0.94187 7.5 6.04918 5187.9 -2375.55 -112833 -15125.1 17434 -38084.5 -7.4103 
13 1 24.8632 0.924428 7.5 6.04918 6594.59 -2888.88 -113622 15740.6 -16125.3 -35035.4 -7.41025 
65 1 18.4888 2.23258 7.5 6.04918 7675.28 -387.229 -131819 14958.7 -6141.1 -32826 -7.40915 
66 1 19.2139 3.45352 7.5 6.0492 2030.28 1308.04 -120007 -13791.3 17443.5 -39459.1 -7.40986 
67 1 20.6338 3.43608 7.5 6.0492 8926.15 -1590.41 -128590 15782.8 -6186.21 -32128.4 -7.40935 
68 1 21.3286 2.1977 7.5 6.04918 3634.2 -574.457 -116145 -14579 17337.8 -39167.7 -7.4101 
69 1 22.7485 2.18025 7.5 6.04918 7820.99 -2037.73 -121674 15879.7 -11346.5 -33851.2 -7.40976 
70 1 23.4735 3.4012 7.5 6.0492 2258.04 -1542.57 -106291 -14496.2 20956 -40424.7 -7.41069 
71 1 24.8934 3.38375 7.5 6.0492 9085.86 -3229.91 -119288 16155.5 -11715.1 -32140.1 -7.40991 
72 1 25.5883 2.14537 7.5 6.04918 3895.76 -3348.59 -103160 -14753 21278.3 -38876.1 -7.41088 
73 1 27.0082 2.12793 7.5 6.04918 7981.47 -4135.29 -111517 15717.7 -16553.7 -32952.7 -7.41038 
159 1 18.519 4.69191 7.5 6.0492 9943.27 -1466.09 -134265 15378.7 -709.858 -29874.5 -7.40901 
160 1 19.2441 5.91285 7.5 6.0492 -951.523 2548.52 -114427 -13099.9 20772.5 -41227.7 -7.4102 
161 1 20.664 5.89541 7.5 6.0492 11013.1 -2395.18 -131401 16151 -953.691 -28955.3 -7.40918 
162 1 21.3588 4.65702 7.5 6.0492 641.059 424.131 -110099 -13941.7 20769.8 -41254.2 -7.41046 
163 1 22.7787 4.63958 7.5 6.0492 10107.6 -2655.66 -125951 16305.2 -6494.56 -30801.1 -7.40951 
164 1 23.5038 5.86052 7.5 6.0492 -794.523 -753.679 -99279.1 -13805.4 23679.2 -42409.1 -7.41111 
165 1 24.9237 5.84308 7.5 6.0492 11166.4 -3590.63 -124019 16533.8 -6988.03 -28989.7 -7.40962 
166 1 25.6185 4.6047 7.5 6.0492 856.537 -2801.47 -95572.1 -14132.8 24146.6 -41067.7 -7.41134 
167 1 27.0384 4.58725 7.5 6.0492 10250.4 -4323.53 -117675 16141.5 -12201.3 -29991.7 -7.41 
253 1 18.5492 7.15123 7.5 6.0492 11805.1 -2451.87 -135557 15681.8 4825.72 -26624.3 -7.40893 
254 1 19.2743 8.37218 7.5 6.0492 -3889.31 3807.04 -108508 -12285.2 23185.2 -42608.6 -7.41056 
255 1 20.6942 8.35473 7.5 6.0492 12648.1 -3098.85 -133055 16408 4332.53 -25523.3 -7.40908 
256 1 21.389 7.11635 7.5 6.0492 -2377.8 1456.19 -103649 -13183.1 23343.1 -42962.8 -7.41085 
257 1 22.8089 7.09891 7.5 6.0492 11974.7 -3186.16 -129173 16627.2 -1451.98 -27490 -7.40931 
258 1 23.534 8.31985 7.5 6.0492 -3832.83 70.9676 -92044.6 -12985.9 25501.4 -44045.2 -7.41155 
259 1 24.9539 8.30241 7.5 6.0492 12786 -3858.29 -127681 16818.6 -2123.21 -25616.8 -7.4094 
260 1 25.6487 7.06402 7.5 6.0492 -2242.93 -2210.32 -87687.7 -13396 26157.3 -42932.9 -7.41182 
261 1 27.0686 7.04658 7.5 6.0492 12088.7 -4429.87 -122872 16481.9 -7593.27 -26811.9 -7.40969 
347 1 18.5795 9.61056 7.5 6.0492 13192 -3331.41 -135608 15868.2 10270.4 -23127.6 -7.40893 
350 1 21.4192 9.57568 7.5 6.0492 -5307.32 2501.72 -97047.6 -12289.9 24977.2 -44310.1 -7.41125 
351 1 22.8391 9.55823 7.5 6.0492 13357.2 -3620.82 -131234 16846.5 3602.69 -23958.9 -7.40919 
354 1 25.6789 9.52335 7.5 6.0492 -5289.71 -1587.21 -79759.9 -12523.4 27237 -44477.4 -7.4123 
355 1 27.0988 9.50591 7.5 6.0492 13435.3 -4446.07 -126983 16737.8 -2896.38 -23442.5 -7.40944 
14 1 27.703 0.889544 7.5 6.04918 5455.11 -5092.66 -100827 -14765.4 21675.7 -36742.9 -7.41102 
15 1 29.1229 0.872102 7.5 6.04918 6759.46 -5434.36 -102760 15068.9 -20963.3 -33211.3 -7.4109 
16 1 31.9627 0.837217 7.5 6.04918 5686.37 -8126.78 -89623.1 -13402.5 25736.4 -33530.6 -7.4117 
17 1 33.3826 0.819775 7.5 6.04918 6907.27 -8371.93 -92696.4 13425.6 -25374.8 -29627.4 -7.41151 
18 1 36.2224 0.784891 7.5 6.04918 5853.02 -11283 -79820.9 -11147.4 29332.8 -28468.4 -7.41229 
74 1 27.7332 3.34887 7.5 6.0492 2509.67 -4698.26 -92666 -14159.7 24686.1 -39065.5 -7.41152 
75 1 29.1531 3.33143 7.5 6.0492 9225.01 -5362.54 -110248 15467.7 -17033.8 -30462.3 -7.41045 
76 1 29.848 2.09304 7.5 6.04918 4153.32 -6444.04 -90661.2 -13894.5 25235.5 -36520.2 -7.41164 
77 1 31.2679 2.0756 7.5 6.04918 8122.65 -6701.28 -101869 14534.6 -21438.4 -30358.3 -7.41096 
78 1 31.9929 3.29654 7.5 6.0492 2753.96 -8121.73 -79879 -12838.8 28322.5 -35646.7 -7.41229 
79 1 33.4128 3.2791 7.5 6.0492 9316.99 -7930.49 -101907 13792.8 -21845.5 -27174.6 -7.41095 
80 1 34.1076 2.04072 7.5 6.04918 4372.79 -9757.16 -79312.2 -12092.5 28906 -32236.8 -7.41232 
81 1 35.5275 2.02328 7.5 6.04918 8223.04 -9575.11 -93213 12420.7 -25717.7 -26045.8 -7.41148 
82 1 36.2526 3.24422 7.5 6.0492 2960.79 -11604.3 -68644.5 -10648.5 31568.5 -30207.9 -7.41297 
168 1 27.7634 5.8082 7.5 6.0492 -595.947 -4342.72 -84133.8 -13505.5 26888.3 -41088.5 -7.41203 
169 1 29.1833 5.79075 7.5 6.0492 11264.4 -5313.61 -116893 15851.4 -12739.3 -27502.5 -7.41005 
170 1 29.8782 4.55237 7.5 6.0492 1093.21 -6311.68 -81503 -13315.9 27631 -38625.8 -7.41219 
171 1 31.2981 4.53493 7.5 6.0492 10340.7 -6497.65 -109858 14946.3 -17505.6 -27641.3 -7.41048 
172 1 32.0231 5.75587 7.5 6.0492 -377.544 -8150.85 -69845.1 -12247.4 30086.9 -37512.4 -7.4129 
173 1 33.443 5.73843 7.5 6.0492 11290.6 -7506.9 -110359 14166.1 -17919 -24547.6 -7.41044 
174 1 34.1379 4.50004 7.5 6.0492 1321.84 -9980.77 -68668.8 -11577.6 30908.7 -34069.7 -7.41297 
175 1 35.5577 4.4826 7.5 6.0492 10371.5 -9021.41 -102874 12798.9 -22138.4 -23713.5 -7.4109 
176 1 36.2828 5.70354 7.5 6.0492 -171.282 -11947.3 -57245.2 -10147 32970.6 -31740.5 -7.41367 
262 1 27.7936 8.26752 7.5 6.0492 -3726.92 -3940.21 -75477.8 -12730.4 28186.6 -42812.3 -7.41256 
263 1 29.2135 8.25008 7.5 6.0492 12836.6 -5174.1 -122551 16161.3 -8247.6 -24354.8 -7.40971 
264 1 29.9084 7.0117 7.5 6.0492 -2066.77 -6128.1 -72137.9 -12636.5 29158.6 -40456.7 -7.41276 
265 1 31.3283 6.99425 7.5 6.0492 12121.6 -6210.34 -116970 15296.3 -13273.1 -24742 -7.41005 
266 1 32.0533 8.2152 7.5 6.0492 -3581.01 -8122.71 -59768.6 -11553.9 30933.7 -39125.6 -7.41352 
267 1 33.4732 8.19775 7.5 6.0492 12794.1 -6984.24 -117901 14483.2 -13756.7 -21762.5 -7.40999 
268 1 34.1681 6.95937 7.5 6.0492 -1874.2 -10143.5 -57891.6 -10985.6 32029.4 -35673.5 -7.41363 
269 1 35.588 6.94193 7.5 6.0492 12077.2 -8371 -111735 13131.9 -18230.9 -21231.3 -7.41036 
270 1 36.313 8.16287 7.5 6.0492 -3418.46 -12222.5 -45869.5 -9568.73 33439.6 -33065.4 -7.41436 
358 1 29.9386 9.47102 7.5 6.0492 -5219.28 -5900.35 -62820.6 -11833.6 29745.7 -42011.4 -7.41333 
359 1 31.3585 9.45358 7.5 6.0492 13409.4 -5829.49 -123069 15579.5 -8900.17 -21679.7 -7.40968 
362 1 34.1983 9.4187 7.5 6.0492 -5107.3 -10250.2 -47237.1 -10292.6 32192 -37045.1 -7.41428 
363 1 35.6182 9.40125 7.5 6.0492 13298.2 -7612.94 -119652 13414.4 -14149.6 -18613.3 -7.40988 
19 1 37.6423 0.767449 7.5 6.04918 7019.21 -11431.5 -83973.7 10923.1 -29086.3 -24205.5 -7.41204 
20 1 40.4821 0.732565 7.5 6.04918 5946.07 -14170.6 -72030.2 -8151.15 32216.9 -21525.1 -7.41277 
21 1 41.9019 0.715123 7.5 6.04918 7097.99 -14164.1 -77160.2 7711.92 -31866.5 -16942.8 -7.41245 
22 1 44.7417 0.680239 7.5 6.04918 5974.79 -16295 -66835.4 -4606.94 34186.5 -12887.2 -7.41308 
83 1 37.6725 3.22678 7.5 6.0492 9361.04 -10671.9 -94699.4 11230.1 -25890.7 -22187.5 -7.41139 
84 1 38.3673 1.98839 7.5 6.04918 4531.54 -12984 -69775.1 -9482.57 32018.4 -26000.7 -7.4129 
85 1 39.7872 1.97095 7.5 6.04918 8284.96 -12393.3 -86048.7 9500.65 -29141.9 -19933.4 -7.41191 
86 1 40.5123 3.19189 7.5 6.0492 3106.47 -14741.5 -59689.1 -7750.9 34176.7 -22755.9 -7.41352 
87 1 41.9322 3.17445 7.5 6.0492 9375.84 -13153.6 -89075.5 7919.09 -28935.9 -15487.1 -7.41173 
88 1 42.627 1.93607 7.5 6.04918 4620.13 -15658.3 -62713.7 -6241.72 34351.3 -17879.7 -7.41333 
89 1 44.0469 1.91862 7.5 6.04918 8325.75 -14668.2 -80884.8 5945.55 -31500.3 -12144.7 -7.41223 
90 1 44.7719 3.13957 7.5 6.0492 3184.27 -17030.1 -53704.1 -4342.21 35962.7 -13524 -7.41388 
177 1 37.7027 5.6861 7.5 6.0492 11257.5 -9913.86 -104738 11559.8 -22276.5 -20031.3 -7.41078 
178 1 38.3975 4.44772 7.5 6.0492 1510.26 -13489.8 -57849.4 -9060.7 33702.3 -27407.1 -7.41363 
179 1 39.8174 4.43028 7.5 6.0492 10359.9 -11542.5 -97109.1 9806.83 -25854.9 -18121.8 -7.41124 
180 1 40.5425 5.65122 7.5 6.0492 -5.33038 -15319 -47179.1 -7371.15 35296.3 -23827 -7.41428 
181 1 41.9624 5.63378 7.5 6.0492 11206.5 -12123.5 -100360 8161.39 -25571.5 -13939.7 -7.41105 
182 1 42.6572 4.39539 7.5 6.0492 1638.44 -16364 -49822.3 -5947.79 35801.2 -18754.5 -7.41412 
183 1 44.0771 4.37795 7.5 6.0492 10344.9 -13599 -92953.8 6137.11 -28430.6 -10978.9 -7.41149 
184 1 44.8022 5.59889 7.5 6.0492 98.4818 -17756 -40442.5 -4118.28 36898.5 -14060.6 -7.41469 
271 1 37.7329 8.14543 7.5 6.0492 12689.5 -9039.18 -113935 11848.7 -18401.6 -17749.6 -7.41023 
272 1 38.4277 6.90704 7.5 6.0492 -1694.54 -13921.5 -45849.4 -8586.88 34492.8 -28629.8 -7.41436 
273 1 39.8476 6.8896 7.5 6.0492 11994 -10575.6 -107433 10082.1 -22220.5 -16199.4 -7.41062 
274 1 40.5727 8.11054 7.5 6.0492 -3272.16 -15812.9 -34744.8 -6942.86 35472.1 -24741.3 -7.41504 
275 1 41.9926 8.0931 7.5 6.0492 12577.3 -10954.6 -110859 8374.79 -21928.7 -12311.6 -7.41041 
276 1 42.6874 6.85472 7.5 6.0492 -1558.64 -16979.6 -36901.9 -5625.91 36352.5 -19500.4 -7.41491 
277 1 44.1073 6.83728 7.5 6.0492 11925.3 -12393.2 -104333 6307.62 -24999.5 -9755.72 -7.41081 
278 1 44.8324 8.05822 7.5 6.0492 -3169.85 -18384.3 -27293.2 -3872.22 36886.5 -14504 -7.4155 
366 1 38.458 9.36637 7.5 6.0492 -4980.8 -14282 -34032.4 -8041.23 34309 -29668 -7.41509 
367 1 39.8778 9.34893 7.5 6.0492 13152.4 -9477.79 -116875 10319.2 -18389.8 -14177.3 -7.41005 
370 1 42.7176 9.31404 7.5 6.0492 -4869.85 -17508.8 -24209.7 -5262.22 35919.5 -20120.6 -7.41569 
371 1 44.1375 9.2966 7.5 6.0492 13042 -11034.3 -114874 6452.14 -21355.9 -8484.53 -7.41017 
23 1 46.1616 0.662797 7.5 6.04918 7156.9 -16067.2 -72794.6 3992.28 -33540.8 -8150.53 -7.41272 
24 1 49.0014 0.627913 7.5 6.04918 5956.61 -17224.9 -64688.6 -746.515 35093.3 -3116.2 -7.41321 
25 1 50.4213 0.610471 7.5 6.04918 7206.57 -16750.9 -71274.7 10.5126 -34010.4 1478.6 -7.41281 
26 1 53.2611 0.575587 7.5 6.04918 5909.56 -16750.8 -65791.3 3169.68 34853.7 6905.63 -7.41314 
91 1 46.1918 3.12212 7.5 6.0492 9394.7 -14895.2 -85467.4 4061.24 -30786.9 -7361.86 -7.41195 
92 1 46.8867 1.88374 7.5 6.04918 4645.31 -17289.4 -58710.4 -2582.35 35739.5 -8263.68 -7.41357 
93 1 48.3066 1.8663 7.5 6.04918 8367.69 -15944 -78158.1 1984.74 -32642.2 -3171.07 -7.41239 
94 1 49.0316 3.08724 7.5 6.0492 3197.76 -18030.5 -51221.7 -646.367 36801.2 -3121.04 -7.41403 
95 1 50.4515 3.0698 7.5 6.0492 9441.57 -15528.5 -84197.3 -78.8067 -31320.9 1536.37 -7.41202 
96 1 51.1464 1.83141 7.5 6.04918 4620.98 -17537 -58135.6 1255.19 36075.6 2081.66 -7.41361 
97 1 52.5662 1.81397 7.5 6.04918 8422.32 -15951.7 -78128.3 -2105.54 -32502.3 6170.09 -7.41239 
98 1 53.2913 3.03491 7.5 6.0492 3153.61 -17527.4 -52480.7 3096.32 36620.2 7527.41 -7.41395 
185 1 46.222 5.58145 7.5 6.0492 11184.7 -13687.7 -97544.2 4174.48 -27587 -6543.13 -7.41122 
186 1 46.9169 4.34307 7.5 6.0492 1698.01 -18106.3 -45263.7 -2448.72 37062.6 -8552.6 -7.4144 
187 1 48.3368 4.32562 7.5 6.0492 10364.5 -14762 -90748.2 2028.96 -29690.2 -2744.38 -7.41163 
188 1 49.0618 5.54657 7.5 6.0492 130.604 -18817 -37643.6 -603.526 37673.9 -3097.73 -7.41486 
189 1 50.4817 5.52912 7.5 6.0492 11227.8 -14265.6 -96531.3 -117.584 -28176 1553.17 -7.41128 
190 1 51.1766 4.29074 7.5 6.0492 1688.48 -18371.5 -44601.8 1209.82 37397.5 2389.83 -7.41444 
191 1 52.5965 4.2733 7.5 6.0492 10435.3 -14779.1 -90698.2 -2217.23 -29549.1 5818.32 -7.41163 
192 1 53.3215 5.49424 7.5 6.0492 92.6699 -18287.2 -39054.8 2951.24 37560.3 8102.37 -7.41478 
279 1 46.2523 8.04078 7.5 6.0492 12521 -12324 -108870 4269.04 -24096 -5703.77 -7.41053 
280 1 46.9471 6.80239 7.5 6.0492 -1485.49 -18820.5 -31815.8 -2308.62 37488.3 -8780.77 -7.41522 
281 1 48.367 6.78495 7.5 6.0492 11923.6 -13431.2 -102670 2060.52 -26365.9 -2327.27 -7.41091 
282 1 49.092 8.00589 7.5 6.0492 -3130.37 -19497.7 -24194.7 -561.959 37600.9 -3055.86 -7.41569 
283 1 50.5119 7.98845 7.5 6.0492 12564.4 -12843 -108121 -164.408 -24731.3 1521.72 -7.41058 
284 1 51.2068 6.75007 7.5 6.0492 -1484.07 -19101.4 -31073.8 1152.42 37827.9 2682.69 -7.41526 
285 1 52.6267 6.73262 7.5 6.0492 12012.8 -13461.8 -102592 -2332.72 -26216.5 5386.99 -7.41091 
286 1 53.3517 7.95357 7.5 6.0492 -3161.32 -18942.3 -25753.2 2782.19 37561.5 8618.98 -7.41559 
374 1 46.9773 9.26172 7.5 6.0492 -4803.66 -19437.5 -18623.3 -2155.09 36926.8 -8954.92 -7.41603 
375 1 48.3972 9.24428 7.5 6.0492 13025.5 -11936.3 -113774 2077.68 -22818.3 -1926.64 -7.41024 
378 1 51.237 9.20939 7.5 6.0492 -4798.4 -19730.6 -17806.8 1081.59 37274.2 2950.84 -7.41608 
379 1 52.6569 9.19195 7.5 6.0492 13131.3 -11983.1 -113660 -2450.78 -22655.7 4872.38 -7.41024 
27 1 54.681 0.558145 7.5 6.04918 7246.78 -16077.4 -72752.2 -3957.28 -33264.4 11014.9 -7.41272 
28 1 57.5208 0.523261 7.5 6.04918 5837.61 -14962.6 -70032.1 6876.62 33459.7 16210.9 -7.41289 
29 1 58.9407 0.505819 7.5 6.04918 7257.15 -14207.1 -77091.1 -7636.73 -31379.1 19567 -7.41246 
30 1 61.7804 0.470935 7.5 6.04918 5737.13 -12222.4 -77015.7 10129.5 30984.7 24032.8 -7.41246 
31 1 63.2003 0.453493 7.5 6.04918 7212.06 -11536.8 -83912.4 -10784 -28504.7 26534.5 -7.41204 
99 1 54.7112 3.01747 7.5 6.0492 9516.61 -14921.9 -85392.6 -4199.33 -30516.5 10332.9 -7.41195 
100 1 55.406 1.77909 7.5 6.04918 4555.27 -16335.7 -61042.7 5016.02 35313.4 12173.3 -7.41343 
101 1 56.8259 1.76165 7.5 6.04918 8476.25 -14702.3 -80805.3 -6033 -31114.3 14958.9 -7.41223 
102 1 57.551 2.98259 7.5 6.0492 3060.27 -15614.6 -57355.2 6644.39 35403.1 17416.1 -7.41366 
103 1 58.9709 2.96515 7.5 6.0492 9595.75 -13227.7 -88951.2 -7999.86 -28460.8 18194.6 -7.41174 
104 1 59.6657 1.72676 7.5 6.04918 4452.59 -13927 -67149.1 8454.02 33476.9 21092.9 -7.41306 
105 1 61.0856 1.70932 7.5 6.04918 8500.91 -12481.8 -85950.6 -9525.58 -28603.1 22452.3 -7.41192 
106 1 61.8107 2.93026 7.5 6.0492 2921.9 -12662.3 -65387.7 9769.39 33200.8 25744.3 -7.41317 
107 1 63.2306 2.91282 7.5 6.0492 9635.09 -10822.1 -94577.1 -11224.3 -25328.6 24570 -7.4114 
193 1 54.7414 5.4768 7.5 6.0492 11340.9 -13737.1 -97423.3 -4382.47 -27306.9 9542.26 -7.41122 
194 1 55.4362 4.23841 7.5 6.0492 1617.3 -17096.8 -47901.1 4795.52 36760.5 13055.3 -7.41423 
195 1 56.8561 4.22097 7.5 6.0492 10545.4 -13660.8 -92819.6 -6279.61 -28041.6 13854 -7.4115 
196 1 57.5812 5.44191 7.5 6.0492 -9.3529 -16261.1 -44536.1 6324.54 36531.5 18508.3 -7.41444 
197 1 59.0011 5.42447 7.5 6.0492 11490.8 -12238.6 -100156 -8293.6 -25078.8 16659.8 -7.41106 
198 1 59.6959 4.18609 7.5 6.0492 1491.6 -14525.6 -54840.3 8080.76 35158.2 22494.4 -7.41381 
199 1 61.1158 4.16865 7.5 6.0492 10651.8 -11673.7 -96937.2 -9865.66 -25313.1 20677.6 -7.41125 
200 1 61.8409 5.38959 7.5 6.0492 -158.984 -13112.7 -53570.8 9302.99 34616.2 27290.8 -7.41389 
201 1 63.2608 5.37215 7.5 6.0492 11623 -10119.5 -104524 -11579.8 -21693 22404.8 -7.4108 
287 1 54.7716 7.93612 7.5 6.0492 12712.3 -12401.7 -108687 -4563.67 -23794 8638.48 -7.41054 
288 1 55.4665 6.69774 7.5 6.0492 -1553.04 -17759.1 -34749.5 4543.58 37325.8 13849.2 -7.41504 
289 1 56.8863 6.6803 7.5 6.0492 12176.7 -12491.8 -104123 -6520.19 -24586.8 12609.4 -7.41082 
290 1 57.6114 7.90124 7.5 6.0492 -3252.68 -16813.5 -31814.5 5958.34 36732.2 19474.2 -7.41522 
291 1 59.0313 7.8838 7.5 6.0492 12929.9 -11121.8 -110547 -8573.24 -21395.6 14961.9 -7.41043 
292 1 59.7261 6.64541 7.5 6.0492 -1677.48 -15039.4 -42484.7 7656.29 35970.8 23748 -7.41457 
293 1 61.146 6.62797 7.5 6.0492 12366.6 -10762.2 -107156 -10186.6 -21643.6 18719.9 -7.41064 
294 1 61.8711 7.84891 7.5 6.0492 -3384.91 -13482.3 -41805.1 8766.04 35119.3 28657.5 -7.41461 
295 1 63.291 7.83147 7.5 6.0492 13149.3 -9312.15 -113592 -11908.2 -17764.3 20043.4 -7.41025 
382 1 55.4967 9.15707 7.5 6.0492 -4852.85 -18327.6 -21842.1 4253.19 36915.1 14543.6 -7.41583 
383 1 56.9166 9.13962 7.5 6.0492 13344.4 -11179.8 -114565 -6750.72 -20905.4 11225.2 -7.41019 
386 1 59.7563 9.10474 7.5 6.0492 -4952.38 -15471 -30335.4 7166.2 35820.9 24839.9 -7.41531 
387 1 61.1762 9.0873 7.5 6.0492 13606.9 -9731.49 -116459 -10484.6 -17755.2 16583.8 -7.41008 
32 1 66.0401 0.418609 7.5 6.04918 5603.07 -9034 -86168.8 12722.5 27581.7 29981.2 -7.41191 
33 1 67.46 0.401167 7.5 6.04918 7090.76 -8555.31 -92698.8 -13200.8 -24845.4 31694.8 -7.41151 
34 1 70.2998 0.366283 7.5 6.04918 5438.83 -5873.09 -96865.3 14492.3 23472.6 34009.5 -7.41126 
35 1 71.7197 0.348841 7.5 6.04918 6890.57 -5673.02 -102898 -14735.1 -20643.3 35075.9 -7.4109 
108 1 63.9254 1.67443 7.5 6.04918 4312.42 -10769.9 -75913 11347.2 30668.5 28235.4 -7.41253 
109 1 65.3453 1.65699 7.5 6.04918 8460.35 -9744.08 -93150.4 -12359.5 -25161 28263 -7.41148 
110 1 66.0703 2.87794 7.5 6.0492 2750.26 -9186.37 -75908.8 12268.6 30146.9 32089.8 -7.41253 
111 1 67.4902 2.86049 7.5 6.0492 9596.39 -8171.9 -101863 -13678.3 -21345.7 29270.8 -7.41096 
112 1 68.1851 1.62211 7.5 6.04918 4141.89 -7381.91 -86667.3 13509.1 27071.3 33385.9 -7.41188 
113 1 69.605 1.60467 7.5 6.04918 8332.88 -6949.73 -101917 -14365 -21019.2 32336.7 -7.41095 
114 1 70.33 2.82561 7.5 6.0492 2565.72 -5673.39 -88179.7 13972.2 26460.9 36377 -7.41179 
115 1 71.7499 2.80817 7.5 6.0492 9459.72 -5675.66 -110376 -15222.9 -16757.6 32347.2 -7.41044 
116 1 72.4448 1.56978 7.5 6.04918 3962.21 -4173.61 -98735.6 14793 22939.2 36582.7 -7.41115 
202 1 63.9556 4.13376 7.5 6.0492 1325.87 -11125.3 -64798.2 10854.1 32670 30069.7 -7.41321 
203 1 65.3755 4.11632 7.5 6.0492 10703.6 -9246.14 -102740 -12746.5 -21582.1 25941.7 -7.4109 
204 1 66.1005 5.33726 7.5 6.0492 -334.386 -9361.38 -65396.2 11687 31928.5 33991.6 -7.41317 
205 1 67.5204 5.31982 7.5 6.0492 11678.6 -7816.54 -110236 -14050.8 -17398.7 26614.5 -7.41045 
206 1 68.2153 4.08144 7.5 6.0492 1142.3 -7420.66 -77002.2 12926.9 29467 35531.3 -7.41247 
207 1 69.6352 4.06399 7.5 6.0492 10660.1 -6816.83 -109861 -14762.5 -17094.6 29613.5 -7.41048 
208 1 70.3602 5.28494 7.5 6.0492 -504.104 -5500.72 -79161.7 13302.7 28684.1 38495.3 -7.41233 
209 1 71.7801 5.26749 7.5 6.0492 11619.4 -5709.51 -116980 -15583.8 -12447.6 29349 -7.41005 
210 1 72.475 4.02911 7.5 6.0492 970.196 -3831.95 -90660.8 14144 25809.8 38885.4 -7.41164 
296 1 63.9858 6.59309 7.5 6.0492 -1835.68 -11408.4 -53581.7 10287.2 33819.1 31709.7 -7.41389 
297 1 65.4057 6.57565 7.5 6.0492 12513.8 -8663.87 -111493 -13097.9 -17633.2 23407.1 -7.41038 
298 1 66.1308 7.79659 7.5 6.0492 -3525.14 -9468.02 -54871.3 11011.8 32816.1 35670.9 -7.41381 
299 1 67.5507 7.77915 7.5 6.0492 13298.7 -7373.13 -117658 -14379.5 -13175 23737.8 -7.41 
300 1 68.2455 6.54076 7.5 6.0492 -1994.62 -7396.41 -67164 12248.4 31028.4 37441.6 -7.41306 
301 1 69.6654 6.52332 7.5 6.0492 12560.9 -6609.02 -116889 -15105.1 -12819.5 26648.1 -7.41005 
302 1 70.3904 7.74426 7.5 6.0492 -3636.62 -5269.62 -70050.5 12520.1 30031 40349.6 -7.41289 
303 1 71.8103 7.72682 7.5 6.0492 13323.5 -5661.43 -122555 -15880.2 -7890.27 26103.2 -7.40971 
304 1 72.5052 6.48844 7.5 6.0492 -2118.44 -3433.16 -82323.5 13381.4 27862.2 40907.7 -7.41214 
390 1 64.016 9.05241 7.5 6.0492 -5065.7 -11624.4 -42515.1 9628.61 34024 33140 -7.41457 
391 1 65.4359 9.03497 7.5 6.0492 13842.7 -7985.85 -119262 -13411.3 -13480.2 20669.9 -7.40991 
394 1 68.2757 9.00009 7.5 6.0492 -5157.43 -7316.6 -57402 11455.3 31665.3 39101.3 -7.41366 
395 1 69.6956 8.98265 7.5 6.0492 13977.5 -6318.42 -122861 -15391.5 -8365.16 23460.4 -7.40969 
398 1 72.5354 8.94776 7.5 6.0492 -5192.61 -2987.56 -73970.6 12489 29004.6 42637.6 -7.41265 
36 1 74.5595 0.313956 7.5 6.04918 5266.84 -3049.57 -108502 15315.3 18931.5 36194.6 -7.41056 
37 1 75.9794 0.296514 7.5 6.04918 6633.21 -3114.45 -113967 -15273.9 -16169.5 36694 -7.41023 
38 1 78.8192 0.26163 7.5 6.04918 5117.66 -663.394 -120486 15104 14267.8 36470.4 -7.40983 
39 1 80.2391 0.244188 7.5 6.04918 6350.56 -907.878 -125331 -14745.1 -11719 36330.3 -7.40954 
117 1 73.8646 1.55234 7.5 6.04918 8121.93 -4419.57 -111761 -15417.7 -16431.5 34741 -7.41036 
118 1 74.5897 2.77328 7.5 6.0492 2397.9 -2442.31 -101483 14746.6 22431.6 38659.8 -7.41098 
119 1 76.0096 2.75584 7.5 6.0492 9232.09 -3547.28 -119682 -15759.7 -11820.8 33832.4 -7.40988 
120 1 76.7044 1.51746 7.5 6.04918 3803 -1352.64 -111472 15089.2 18575 37850.7 -7.41038 
121 1 78.1243 1.50001 7.5 6.04918 7850.91 -2267.31 -122187 -15428.2 -11672.8 35400.6 -7.40973 
122 1 78.8494 2.72096 7.5 6.0492 2282.06 389.632 -115119 14505.7 18381.6 38859.7 -7.41016 
123 1 80.2693 2.70351 7.5 6.0492 8945.52 -1805.69 -129312 -15217.8 -6816.46 33524.7 -7.4093 
124 1 80.9641 1.46513 7.5 6.04918 3697.96 1054.7 -124209 14334.8 14300.5 36986 -7.40961 
211 1 73.8949 4.01167 7.5 6.0492 10505.7 -4695.07 -117923 -15806.8 -12098.6 31774.4 -7.40999 
212 1 74.6199 5.23261 7.5 6.0492 -631.898 -1865.09 -94033.5 14013 25183.7 40825.2 -7.41143 
213 1 76.0398 5.21517 7.5 6.0492 11440.6 -4008.52 -124432 -16096.1 -7084.57 30653.7 -7.4096 
214 1 76.7346 3.97678 7.5 6.0492 845.736 -583.195 -105015 14393.6 22017 40137.7 -7.41077 
215 1 78.1545 3.95934 7.5 6.0492 10257.5 -2990.96 -126538 -15800 -6852.1 32367 -7.40947 
216 1 78.8796 5.18028 7.5 6.0492 -689.103 1408.59 -109201 13734.7 21759.8 40895.1 -7.41051 
217 1 80.2995 5.16284 7.5 6.0492 11164.9 -2726.51 -132227 -15525.5 -1577.17 30353.8 -7.40913 
218 1 80.9943 3.92446 7.5 6.0492 795.096 2277.98 -119294 13619.9 18411.7 39084.9 -7.40991 
305 1 73.9251 6.47099 7.5 6.0492 12476.6 -4895.99 -123086 -16118.5 -7448.92 28528.2 -7.40968 
306 1 74.6501 7.69194 7.5 6.0492 -3687.25 -1235.64 -86390.2 13154.1 27069.8 42679.7 -7.4119 
307 1 76.07 7.67449 7.5 6.0492 13201.6 -4382.89 -128072 -16347.2 -2148.25 27191.7 -7.40938 
308 1 76.7649 6.43611 7.5 6.0492 -2176.31 238.805 -98185.5 13575.1 24650 42092.4 -7.41118 
309 1 78.1847 6.41867 7.5 6.0492 12263.8 -3633.41 -129800 -16075.5 -1766 29009.2 -7.40928 
310 1 78.9098 7.63961 7.5 6.0492 -3653.89 2467.94 -102968 12838.2 24268.5 42572.2 -7.41089 
311 1 80.3297 7.62217 7.5 6.0492 12950.7 -3554.9 -133944 -15730.7 3793.45 26863 -7.40903 
312 1 81.0245 6.38378 7.5 6.0492 -2147.86 3541.11 -113874 12785.4 21711.6 40805.7 -7.41023 
399 1 73.9553 8.93032 7.5 6.0492 13965.1 -5014.15 -127118 -16355 -2661.09 25034.8 -7.40944 
402 1 76.7951 8.89544 7.5 6.0492 -5146.25 1096.23 -91228.1 12623.9 26373.4 43710.1 -7.4116 
403 1 78.215 8.87799 7.5 6.0492 13798.7 -4185.87 -131854 -16256.5 3394.85 25373.8 -7.40915 
406 1 81.0547 8.84311 7.5 6.0492 -5014.65 4821.48 -108194 11827.3 24082.5 42153 -7.41057 
40 1 83.0788 0.209304 7.5 6.04918 5023.91 1325.89 -132158 13818.8 9808.76 34502.3 -7.40913 
41 1 84.4987 0.191862 7.5 6.04918 6076.8 1017.5 -136299 -13129 -7603.93 33518.6 -7.40888 
42 1 87.3385 0.156978 7.5 6.04918 5004.47 2976.78 -142719 11488.1 5880.49 29821 -7.4085 
43 1 88.7584 0.139536 7.5 6.04918 5831.69 2701.55 -146015 -10484.2 -4135.84 27796.1 -7.4083 
125 1 82.384 1.44769 7.5 6.04918 7557.07 -447.717 -132623 -14344.1 -7046.4 33963.1 -7.4091 
126 1 83.1091 2.66863 7.5 6.0492 2241.87 2838.73 -128327 13221.1 14623.1 36643.8 -7.40936 
127 1 84.5289 2.65119 7.5 6.0492 8637.91 -354.506 -138680 -13567 -2069.74 30972.5 -7.40874 
128 1 85.2238 1.4128 7.5 6.04918 3668.97 3099.28 -136174 12528.7 10426.6 33554.7 -7.40889 
129 1 86.6437 1.39536 7.5 6.04918 7273.27 1127.22 -142350 -12174.1 -2885.14 29920.8 -7.40852 
130 1 87.3687 2.6163 7.5 6.0492 2283.59 4924.31 -140210 10940.2 11419.6 31560 -7.40865 
131 1 88.7886 2.59886 7.5 6.0492 8342.63 888.465 -147036 -10850.6 2047.8 25716.5 -7.40824 
132 1 89.4835 1.36048 7.5 6.04918 3716.89 4783.12 -146443 9751.64 7227.04 27152.8 -7.40827 
133 1 90.9034 1.34304 7.5 6.04918 7017.63 2471.21 -150492 -9018.11 466.54 22953.5 -7.40803 
219 1 82.4142 3.90701 7.5 6.0492 9950.38 -1644.86 -135239 -14689.2 -1654.1 31065 -7.40895 
220 1 83.1393 5.12796 7.5 6.0492 -659.077 4303.25 -123805 12455.3 18706.9 38394.3 -7.40963 
221 1 84.5592 5.11052 7.5 6.0492 10836.5 -1752.16 -139885 -13836.6 3739.1 28036.7 -7.40867 
222 1 85.254 3.87213 7.5 6.0492 830.358 4767.16 -132627 11841.3 15266.1 35315.6 -7.4091 
223 1 86.6739 3.85469 7.5 6.0492 9627.78 -537.997 -143415 -12470.4 3129.68 27385 -7.40846 
224 1 87.3989 5.07563 7.5 6.0492 -549.167 6799.41 -136865 10241.5 16226.1 32915.2 -7.40885 