ITEM: TIMESTEP
108
ITEM: NUMBER OF ATOMS
13256
ITEM: BOX BOUNDS pp pp pp
0.0000000000000000e+00 1.0011754500000001e+02
0.0000000000000000e+00 1.7340867499999999e+02
0.0000000000000000e+00 1.8399999600000001e+01
ITEM: ATOMS id type x y z c_csym c_2[1] c_2[2] c_2[3] c_2[4] c_2[5] c_2[6] c_3 
1 1 5.46421e-06 2.42438e-06 7.34019 6.04811 -4604.33 -4624.25 -40.7887 12.0435 -0.0422451 0.0628284 -7.41134 
2 1 2.15143 1.19151 7.34117 6.04635 -6541.53 -2414.01 3.614 -934.167 2076.03 -3837.06 -7.41138 
3 1 3.5711 1.16638 7.34245 6.04358 -5410.16 -3480.74 -118.015 5222.61 1539.46 -5647.52 -7.4114 
4 1 6.41024 1.11661 7.3467 6.04144 -8386.14 -485.428 326.836 4036.36 2905.38 -10665.4 -7.41157 
5 1 7.82991 1.09257 7.34952 6.03953 -7060.65 -1316.74 -427.503 18342.5 -348.168 -11190.9 -7.41159 
48 1 0.0438379 2.45897 7.34117 6.04518 -6408.82 -2686.56 -64.7446 -1396.74 3957.11 -94.8018 -7.41137 
49 1 1.46351 2.43365 7.3415 6.04517 -4228.1 -4699.1 -28.9858 209.255 4229.07 -2273.99 -7.41138 
50 1 2.19501 3.65063 7.34308 6.04339 -10678 1851.47 -7.2398 -3564.71 5658.66 -4178.01 -7.41143 
51 1 3.61467 3.62552 7.34431 6.04182 -7424.93 -1316.17 -211.438 2589.85 5920.64 -5070.13 -7.41146 
52 1 4.3026 2.38338 7.34401 6.04452 -10760.7 1860.99 263.582 -352.782 4174.84 -7756.2 -7.41148 
53 1 5.72226 2.3587 7.3461 6.04094 -8475.03 -275.491 -482.241 10051 2853.81 -8175.43 -7.41149 
54 1 6.45336 3.57597 7.34842 6.04279 -16687.3 7922.89 905.834 1463.38 6169.45 -11505.8 -7.41166 
55 1 7.87299 3.55193 7.35114 6.03786 -13029.2 4963.75 -1303.31 15706.8 3749.21 -9923.12 -7.41158 
56 1 8.56104 2.30987 7.35168 6.03934 -13824.5 5476.45 1124.03 8251.25 5288.81 -13981.2 -7.41178 
142 1 0.0872273 4.91798 7.344 6.04229 -8225.88 -644.828 -274.205 -5397.22 7228.77 -169.87 -7.41144 
143 1 1.50691 4.89269 7.34431 6.04343 -4034.71 -4787.23 190.893 -3695.25 8671.55 -2099.33 -7.41148 
144 1 2.23795 6.10991 7.34669 6.0408 -14621.4 6036.56 -300.405 -8595.66 8461.5 -4416.75 -7.41152 
145 1 3.65761 6.08484 7.34784 6.03936 -9442.1 925.652 -5.89463 -2596.39 10252.1 -4397.93 -7.41158 
146 1 4.34574 4.84276 7.3467 6.04163 -16961.7 8287 360.898 -4250.47 7260.88 -8257.33 -7.41157 
147 1 5.76537 4.8181 7.34869 6.03834 -12586 4035.45 -775.531 6031.74 7141.44 -7147.83 -7.41155 
148 1 6.49586 6.03572 7.35169 6.03945 -24686.7 16015.8 1190.04 -3640.76 8681.78 -12107 -7.41178 
149 1 7.91547 6.01168 7.35423 6.03419 -18959.3 11092.4 -1872.08 10267.5 7875.3 -8483.32 -7.41164 
150 1 8.60354 4.76957 7.35401 6.03955 -23776.4 15473.1 2060.93 4368.77 7982.62 -14911.3 -7.41191 
236 1 0.129788 7.37704 7.3484 6.03904 -9808.59 1385.3 -859.915 -11519.9 9644.85 -237.59 -7.41153 
237 1 1.54948 7.3518 7.3487 6.04162 -3908.54 -4673.34 791.263 -9782.44 12916.2 -1891.3 -7.41166 
238 1 2.2799 8.56935 7.35167 6.03858 -18165.7 10193.2 -1051 -15651.5 10388 -4576.8 -7.41161 
239 1 3.69956 8.54435 7.35272 6.03669 -11476.7 3190.77 654.733 -9786.16 14297.4 -3648.77 -7.41178 
240 1 4.38806 7.30242 7.35088 6.03925 -22796 14420.1 77.7308 -10368.6 9518.91 -8593.19 -7.41167 
241 1 5.80768 7.2778 7.35271 6.03479 -16571.7 8250.83 -680.43 -341.304 11286.7 -5993.36 -7.41168 
242 1 6.5374 8.49584 7.3562 6.03634 -32004 23873.8 996.17 -10861 10364.4 -12505 -7.4119 
243 1 7.95699 8.47182 7.35853 6.03012 -24601 17096.2 -1957.64 2614.91 11806.6 -6912.63 -7.41177 
244 1 8.64526 7.22975 7.35765 6.0354 -33143.4 24972.7 2591.29 -1995.05 9890.58 -15583.6 -7.41206 
6 1 10.669 1.04477 7.35619 6.03415 -9213.72 1153.65 834.797 15884.7 4669 -15616.2 -7.4119 
7 1 12.0886 1.0225 7.35986 6.03549 -7914.53 425.826 -923.045 36484.4 -3178.63 -14885 -7.41187 
8 1 14.9277 0.977464 7.36756 6.02617 -10010.1 2130.9 1391.81 32772.2 7146.33 -18471 -7.41229 
9 1 16.3474 0.957389 7.37142 6.02855 -8562.06 1743.58 -1505.72 57347.6 -6522.46 -16860.4 -7.41218 
57 1 9.98068 2.28664 7.35497 6.03758 -11265.1 3589.1 -1401.66 25952.3 255.756 -12541.5 -7.41169 
58 1 10.7113 3.50432 7.35764 6.03755 -20844.5 12614.5 2483.53 13305.9 7489.05 -16892.7 -7.41206 
59 1 12.1309 3.48203 7.36117 6.03527 -16882 9773.74 -3005.07 33818.6 527.619 -13188.4 -7.41177 
60 1 12.8193 2.24021 7.36226 6.03186 -16068.5 8003.56 2295.5 22908.8 7220 -18048.8 -7.41219 
61 1 14.2389 2.21899 7.36603 6.0339 -13365.6 6234.22 -2631.74 45744.4 -3093.62 -15177.5 -7.41194 
62 1 14.969 3.43713 7.36872 6.02989 -23462.6 15251 4419.34 30169.9 9549.97 -20054.4 -7.41254 
63 1 16.3886 3.41702 7.37244 6.0327 -19108.7 12865.4 -5031.65 54645.7 -3188.46 -14977.9 -7.41197 
64 1 17.0775 2.17556 7.37377 6.02377 -16751.2 9385.23 3576.7 41616.5 9760.86 -20083.6 -7.41264 
151 1 10.0231 4.74633 7.35714 6.03475 -18885.9 11509.3 -2707.18 21828.4 4232.32 -10929.2 -7.41167 
152 1 10.753 5.96443 7.36039 6.03576 -31915.6 23644.1 3814.78 8062.17 9582.32 -17885.2 -7.41224 
153 1 12.1726 5.9421 7.36372 6.03103 -25592.4 18869.3 -4761.27 28156.7 4365.63 -11313.3 -7.41172 
154 1 12.8609 4.70014 7.36417 6.03481 -28513.6 20331.1 4471.95 18902.5 9473.75 -19359.7 -7.4124 
155 1 14.2804 4.67888 7.36777 6.03301 -23156.6 16483.7 -5278.94 41464.1 536.01 -13275.6 -7.41181 
156 1 15.0097 5.89747 7.37096 6.03143 -36441.1 27973.5 7112.71 24668 11231.5 -21387.2 -7.4128 
157 1 16.4293 5.87726 7.37447 6.02992 -29443.5 23734.3 -8213.5 48809.8 364.708 -12949.3 -7.41182 
158 1 17.118 4.63562 7.3753 6.02686 -30589.5 22751.1 7210.27 37466.1 11639.4 -21645.5 -7.41294 
245 1 10.0648 7.2065 7.36055 6.02999 -26182.2 19134.6 -3597.35 15090 8173.67 -9154.74 -7.41171 
246 1 10.7938 8.42508 7.36421 6.03108 -42066.9 34255.1 4628.35 482.777 10891 -18621.4 -7.41241 
247 1 12.2134 8.40269 7.36728 6.02602 -33782.6 27740.5 -5989.08 19999.9 8127.67 -9297.94 -7.41175 
248 1 12.9017 7.16069 7.36718 6.03183 -40203.6 32141.1 6211.04 12214.7 10967.5 -20405.1 -7.41262 
249 1 14.3213 7.13934 7.37054 6.02747 -32547 26502.1 -7477.86 34362.9 4239.39 -11224 -7.41175 
250 1 15.0496 8.35846 7.37408 6.02791 -48545.7 40303.9 9249.7 16657.8 12143 -22477.9 -7.41305 
251 1 16.4691 8.33812 7.37734 6.02432 -39347.8 34417 -10824.5 40256 3941.83 -10797.5 -7.41173 
252 1 17.1578 7.09637 7.37774 6.02781 -43765.7 35684.6 10386.4 30466.6 12756 -22988.1 -7.41324 
346 1 17.1966 9.55778 7.38089 6.02427 -55987.4 48202.5 12888.9 21166.2 13108.3 -24108.3 -7.41351 
10 1 19.1865 0.915547 7.37906 6.01801 -9764.59 2951.16 1923.15 52896.4 10036.1 -19588.2 -7.41268 
11 1 20.6062 0.89787 7.38268 6.02014 -8452.98 2661.53 -2060.87 79232 -9969.67 -17491.6 -7.41249 
12 1 23.4455 0.859386 7.38959 6.0102 -9749.08 3240.6 2376.71 74778 13000.9 -19333.2 -7.41303 
13 1 24.8651 0.844136 7.39273 6.01174 -8504.35 3185.68 -2509.54 100908 -13192.8 -17015.7 -7.41276 
65 1 18.4971 2.15666 7.37748 6.02646 -13803.1 8104.1 -3959.76 67326.1 -6712.32 -16389.3 -7.4122 
66 1 19.2267 3.37528 7.37998 6.02178 -24064.9 16549.2 6444.41 50313.6 12117.9 -21303.2 -7.41303 
67 1 20.6463 3.35754 7.38345 6.02471 -19635.4 14352.8 -7083.11 76562.4 -6937.61 -15603.8 -7.41217 
68 1 21.3358 2.11652 7.38479 6.01575 -16936.1 9872.49 4815.52 62835.9 12592.9 -20492.9 -7.41306 
69 1 22.7554 2.10004 7.38812 6.01804 -13993.5 8871.02 -5197.91 89293.8 -10221.7 -16476.2 -7.41244 
70 1 23.4845 3.31913 7.39031 6.01382 -23870 16432 8330.52 72205.7 14851.3 -21007.3 -7.41347 
71 1 24.9041 3.30381 7.39329 6.0163 -19382.1 14632.3 -8920.49 98267.3 -10399.1 -15252.4 -7.41235 
72 1 25.5943 2.06326 7.39452 6.00811 -16592.8 9683.24 5886.5 85109.2 15382.5 -19573.3 -7.41342 
73 1 27.0139 2.04916 7.39729 6.00976 -13654.9 9025.25 -6220.64 110427 -13347.6 -15576.5 -7.41264 
159 1 18.5376 4.61663 7.37884 6.03147 -24750.7 19498.2 -8094.81 62975.1 -3387.79 -14420.1 -7.41196 
160 1 19.2663 5.83572 7.38179 6.02395 -37951.2 29802.9 10627.7 44559.9 13466.9 -22830.9 -7.41338 
161 1 20.6858 5.81785 7.38506 6.02891 -30626.9 25933.1 -11755.1 70584.1 -3630.17 -13606.5 -7.41191 
162 1 21.3752 4.57662 7.38603 6.01882 -31082 23207.7 9934.67 58549.1 14192.3 -22129.4 -7.41346 
163 1 22.7947 4.56003 7.38918 6.02327 -25045 20462.2 -10795 84925.5 -7145.04 -14589.1 -7.4121 
164 1 23.523 5.77958 7.3918 6.01599 -37597.5 29323.4 13955.9 66244 15957.9 -22551.5 -7.41391 
165 1 24.9425 5.76409 7.39458 6.02128 -30053.6 25976.9 -14990.3 92197.4 -7301.61 -13406.2 -7.41199 
166 1 25.6325 4.52334 7.39553 6.01108 -30137 22210.2 12362.7 80716.7 16782.8 -21121.1 -7.41391 
167 1 27.0521 4.50911 7.39812 6.0149 -23962.1 20008.9 -13113.2 106039 -10477.9 -13876.4 -7.41222 
253 1 18.5773 7.07723 7.38106 6.02703 -35376.6 30742.6 -11758.9 55596.3 89.6162 -12331.1 -7.41179 
254 1 19.3051 8.29685 7.38434 6.02443 -50935.5 42756 14232 36083 14032.7 -24164.7 -7.41371 
255 1 20.7246 8.27879 7.38739 6.02462 -41127.1 37413.3 -15833.6 61720.1 -233.836 -11507.8 -7.41171 
256 1 21.4139 7.03743 7.38803 6.02133 -44662.8 36266.6 14593.3 51226.5 15013.9 -23605.3 -7.41385 
257 1 22.8334 7.02065 7.39097 6.02607 -35828.5 31954.4 -15918.1 77335 -3870.05 -12608.6 -7.41182 
258 1 23.5607 8.24072 7.39392 6.01904 -50460.1 41979 19002.6 57338.1 16259 -23955 -7.41433 
259 1 24.9802 8.22499 7.3965 6.02366 -40242.4 37281.2 -20468.9 83030 -4080.76 -11476.3 -7.41169 
260 1 25.6701 6.98409 7.3972 6.01356 -43143.3 34527.1 18393.5 73095.7 17392.4 -22558.5 -7.41438 
261 1 27.0896 6.96965 7.3996 6.01922 -34034.6 30935.6 -19547.8 98282.4 -7388.84 -12101.7 -7.41184 
347 1 18.6161 9.53847 7.38396 6.02149 -45503.7 41884.7 -14733 45636.6 3543.75 -10138.4 -7.41168 
350 1 21.4516 9.49893 7.39063 6.02139 -57305.1 49048.4 18555.8 41348.8 15045.3 -24905.2 -7.41421 
351 1 22.8711 9.4819 7.39335 6.0227 -46159.4 43439.8 -20330.7 66956.6 -569.06 -10538.2 -7.41161 
354 1 25.7068 9.44552 7.3994 6.01716 -55355.4 46635.9 23731.6 62709.8 17185 -23868.3 -7.41483 
355 1 27.1263 9.43078 7.40159 6.02181 -43695.9 41932.4 -25280.8 87546.4 -4248.87 -10250.1 -7.41154 
14 1 27.7046 0.80896 7.39856 6.00309 -9449.38 3451.66 2708.26 97002.7 15747.7 -17917.4 -7.41331 
15 1 29.1243 0.796024 7.40111 6.00382 -8285.13 3562.98 -2816.25 121125 -15957.8 -15550.4 -7.41298 
16 1 31.964 0.76391 7.40572 5.99703 -9427.8 3536.62 2890.4 118048 18071.7 -15524.1 -7.41351 
17 1 33.3836 0.753037 7.40764 5.99691 -8356.29 3745.42 -2972.72 138714 -18145.2 -13236.8 -7.41315 
18 1 36.2235 0.723567 7.41105 5.99157 -9135.73 3663.85 2927.89 136447 19878.5 -12397.8 -7.41365 
74 1 27.7425 3.26869 7.39913 6.00643 -22638.8 15498.3 9904.41 94394.7 17429.5 -19417.3 -7.41383 
75 1 29.1621 3.25566 7.40151 6.00818 -18173 14011.8 -10393.9 118542 -13360.5 -14004.7 -7.41249 
76 1 29.853 2.01558 7.40255 6.00137 -15713 9109.42 6701.28 106928 17862.9 -17527.5 -7.41369 
77 1 31.2726 2.00368 7.4047 6.00214 -12930.3 8541.06 -6965.89 129482 -15922.2 -13788.4 -7.41281 
78 1 32.0009 3.22359 7.40619 5.99962 -21099.2 13832.1 11068 115374 19627.4 -16767.7 -7.4141 
79 1 33.4205 3.21262 7.40795 6.00092 -16684.4 12605.1 -11441.4 136117 -15713.6 -11969.2 -7.4126 
80 1 34.112 1.97296 7.40875 5.9952 -14599.7 8218.05 7228.34 126774 19877.8 -14590.5 -7.41389 
81 1 35.5316 1.96296 7.41029 5.99566 -11876.9 7771.58 -7424.56 145355 -17882.6 -11272.2 -7.41293 
82 1 36.2596 3.18318 7.41147 5.99355 -18727.1 11813.3 11814.5 133679 21341.5 -13346.4 -7.41428 
168 1 27.78 5.72907 7.40038 6.00855 -35445.2 27302.1 16791.6 88264.8 18365.2 -20830.2 -7.41435 
169 1 29.1995 5.71585 7.40257 6.01383 -27876.7 24362 -17650.3 112352 -10449.9 -12395 -7.41206 
170 1 29.8902 4.47559 7.40339 6.00409 -28017.1 20225.8 14304.6 102472 19120.5 -18871.4 -7.41426 
171 1 31.3098 4.46355 7.40537 6.00702 -21985.2 18186.2 -14900.3 125032 -13231.9 -12349.1 -7.41231 
172 1 32.0373 5.68384 7.40727 6.00205 -32296.6 23892.4 18960 109031 20445.7 -17955.5 -7.41469 
173 1 33.4569 5.67267 7.40885 6.00627 -24725.9 21366.9 -19613.6 129765 -12970 -10654 -7.4121 
174 1 34.1483 4.43287 7.40949 5.99785 -25058.2 17435.3 15684.9 122182 21033.5 -15667.2 -7.41451 
175 1 35.5678 4.42271 7.41087 6.00014 -19078.6 15595.5 -16120.9 140797 -15345.9 -10137.8 -7.41238 
176 1 36.2952 5.64326 7.41246 5.99656 -27779.6 19794.4 20437.8 127138 22082.3 -14261.6 -7.41493 
262 1 27.8166 8.19009 7.40219 6.0116 -47459.9 38959 23119.5 78972.6 18481.1 -22147.2 -7.41486 
263 1 29.2361 8.1766 7.40419 6.01756 -37092.4 34772.5 -24339 102900 -7401.5 -10716.6 -7.41168 
264 1 29.9268 6.93621 7.40483 6.00655 -39819.2 31175.2 21487.3 94531.6 19585.6 -20143.1 -7.41481 
265 1 31.3463 6.92393 7.40662 6.0121 -30733.6 27852 -22403.9 117106 -10317 -10851.1 -7.41187 
266 1 32.0731 8.14466 7.40887 6.00509 -42762.1 33937.4 26325.4 99405.6 20443.2 -19082.2 -7.41527 
267 1 33.4926 8.13318 7.41027 6.01086 -32296 30251.3 -27253 120057 -10085.9 -9285.58 -7.41166 
268 1 34.184 6.8933 7.41078 6.00062 -35012.3 26465.2 23751.4 113953 21406.1 -16699.9 -7.41513 
269 1 35.6035 6.88288 7.41198 6.00584 -25946.2 23489.6 -24418.7 132666 -12587.4 -8960.52 -7.41188 
270 1 36.3302 8.1038 7.41392 5.99982 -36220.9 27758.1 28571 117210 22011.4 -15142.1 -7.41556 
358 1 29.9625 9.39745 7.40674 6.01017 -50807 41903.2 28003.9 83676.4 19219.3 -21329.5 -7.41534 
359 1 31.382 9.38482 7.40834 6.01637 -39020.6 37632.1 -29237.6 106034 -7340.61 -9289.89 -7.41148 
362 1 34.2189 9.35425 7.4125 6.00421 -44128.4 35349.8 31191 102700 20946.7 -17680.6 -7.41572 
363 1 35.6384 9.34346 7.41352 6.0102 -32288.5 31491.7 -32088.5 121305 -9765.39 -7735.73 -7.41145 
19 1 37.6431 0.714397 7.41239 5.99136 -8127.58 3904.19 -2990.28 152650 -19736.2 -10282.2 -7.41327 
20 1 40.4831 0.687016 7.41471 5.98772 -8791.12 3710.73 2847.08 151081 21161.5 -8809.12 -7.41373 
21 1 41.9027 0.679115 7.41555 5.98743 -7853.96 3849.01 -2893.83 162234 -20778.2 -6908.9 -7.41336 
22 1 44.7429 0.653178 7.41691 5.98554 -8243.26 3615.76 2681.6 161252 21961.9 -4984.33 -7.41376 
83 1 37.6791 3.17391 7.41265 5.9949 -14385.9 10758 -12078.9 150018 -17439.1 -9323.5 -7.41268 
84 1 38.3712 1.93462 7.41321 5.99026 -13126.4 7233.78 7491.96 143365 21378.5 -11046.8 -7.41402 
85 1 39.7908 1.92611 7.41421 5.99065 -10498.9 6735.25 -7628.43 157172 -19248.9 -8238.17 -7.41301 
86 1 40.5186 3.14655 7.41512 5.98899 -15898.5 9523.87 12200 148223 22561.3 -9451.28 -7.41439 
87 1 41.9382 3.13855 7.4158 5.9904 -11652.1 8389.32 -12369.5 159481 -18581.4 -6268.1 -7.41273 
88 1 42.6307 1.89954 7.41612 5.98676 -11362.5 5992.65 7544.79 155773 22387.3 -7161.29 -7.41408 
89 1 44.0503 1.89206 7.41665 5.98726 -8800.95 5428.49 -7629.73 164382 -20081.1 -4883.8 -7.41306 
90 1 44.778 3.11262 7.41734 5.98607 -12617.3 6992.15 12303.7 158287 23326.1 -5321.34 -7.41445 
177 1 37.7148 5.63378 7.41347 5.99979 -20259.6 17473.6 -20893.8 143509 -14837.4 -8332.86 -7.41214 
178 1 38.4068 4.3944 7.4139 5.99228 -21257.3 14197.4 16539.6 138650 22465.1 -11829.7 -7.41468 
179 1 39.8264 4.38573 7.41474 5.9946 -15410.7 12378.2 -16831.3 152476 -16834.6 -7426.44 -7.41242 
180 1 40.5537 5.60643 7.41607 5.9915 -22526.7 15150.4 21308 141483 23255.1 -10076.2 -7.41507 
181 1 41.9733 5.59821 7.41659 5.99472 -15094.1 12882.2 -21590.2 152851 -16088.8 -5610.22 -7.41217 
182 1 42.6658 4.35917 7.41681 5.98827 -16910 10502.3 16960.3 150916 23432 -7644.18 -7.41477 
183 1 44.0854 4.35153 7.41718 5.99061 -11107.3 8709.95 -17127.4 159545 -17753.5 -4397.02 -7.41246 
184 1 44.8127 5.57228 7.41828 5.98799 -16509.9 10131.7 21692.6 151393 23996.8 -5652.21 -7.41515 
271 1 37.7498 8.094 7.41476 6.00521 -25765.4 24368.2 -29213.5 133565 -12098.2 -7305.36 -7.41165 
272 1 38.4418 6.85458 7.41511 5.99576 -28899.2 20957.3 25225 130202 22783.3 -12589 -7.41534 
273 1 39.8614 6.84564 7.41578 5.99983 -19931.6 18137.7 -25663.8 144155 -14205.1 -6588.39 -7.4119 
274 1 40.5881 8.06665 7.41746 5.99541 -28489.3 20751.2 29956.9 131328 23150.5 -10684.9 -7.41575 
275 1 42.0077 8.0581 7.41781 6.00001 -18080.4 17536.1 -30347.5 142698 -13463.9 -4932.66 -7.41165 
276 1 42.7003 6.81908 7.41798 5.99119 -21933 14904.1 26034.9 142295 23723 -8117.47 -7.41546 
277 1 44.1199 6.81116 7.41819 5.9949 -13018.1 12084.2 -26276.5 151031 -15217.6 -3899.49 -7.41191 
278 1 44.8468 8.03216 7.41965 5.9913 -19790.7 13247.5 30644.6 141018 23880.8 -5978.91 -7.41585 
366 1 38.4761 9.31517 7.41671 5.99965 -35808.3 27650.9 33323.5 118608 22277.7 -13320.6 -7.41598 
367 1 39.8956 9.30585 7.41722 6.0052 -23987.9 24040.4 -33909.5 132582 -11514.5 -5719.93 -7.41143 
370 1 42.7341 9.27928 7.41952 5.99547 -26295.3 19200.2 34555.4 130436 23200.9 -8579.59 -7.41614 
371 1 44.1537 9.27097 7.41957 6.00029 -14507.9 15699.3 -34871.5 139246 -12623.9 -3389.28 -7.41142 
23 1 46.1625 0.646066 7.4173 5.98521 -7384.15 3530.35 -2713.64 167110 -21335.9 -3296.46 -7.41341 
24 1 49.0027 0.620889 7.41782 5.98452 -7552.44 3249.84 2459.32 166705 22327.8 -1076.9 -7.41377 
25 1 50.4224 0.614071 7.41782 5.98459 -6713.17 2972.65 -2476.96 167198 -21457.2 432.042 -7.41343 
26 1 53.2627 0.588951 7.41753 5.98442 -6822.28 2595.4 2201.81 167379 22286.3 2815.1 -7.41375 
91 1 46.1976 3.10541 7.41758 5.98755 -8479.62 5638.3 -12391.2 164225 -19203 -2972.4 -7.41277 
92 1 46.8903 1.86659 7.41768 5.98495 -9481.58 4512.65 7440.34 163558 22953 -3127.39 -7.41411 
93 1 48.31 1.85966 7.41779 5.98553 -6956.04 3750.85 -7479.26 166811 -20438.5 -1357.21 -7.4131 
94 1 49.0377 3.08023 7.41829 5.98474 -9047.06 4107.48 12192.9 163638 23683 -1112.49 -7.41446 
95 1 50.4574 3.07332 7.41814 5.98575 -4931.88 2598.87 -12205.8 164188 -19351.6 441.594 -7.41279 
96 1 51.1502 1.8346 7.41801 5.9842 -7301.37 2806.33 7218.97 166568 23115.6 933.748 -7.4141 
97 1 52.5699 1.82771 7.41773 5.98489 -4864.9 1706.38 -7213.73 164421 -20353.7 2239.84 -7.41311 
98 1 53.2978 3.04819 7.41805 5.98438 -5429.13 927.349 11906.6 164192 23659.4 3079.42 -7.41444 
185 1 46.2323 5.56485 7.41837 5.99079 -9159.1 7749.53 -21825.2 157462 -16781.4 -2645.15 -7.41219 
186 1 46.9252 4.32606 7.41839 5.98583 -12184.3 6504.31 17045.8 158545 23980.1 -3311.9 -7.41481 
187 1 48.3448 4.31897 7.41835 5.98773 -6413.99 4582.52 -17103.9 161859 -18159.3 -1191.91 -7.41248 
188 1 49.0723 5.53966 7.41926 5.98604 -10149.9 4789.4 21697.9 156633 24351.1 -1150.01 -7.41517 
189 1 50.492 5.53253 7.41895 5.98833 -2841.47 2213.97 -21696 157313 -16960.7 441.009 -7.4122 
190 1 51.1851 4.2939 7.41876 5.98503 -7178.15 2287.24 16865.1 161466 24148.3 1045.65 -7.41481 
191 1 52.6047 4.28685 7.41833 5.98646 -1474.37 38.1695 -16820.2 159358 -18084 2084.01 -7.4125 
192 1 53.3325 5.50739 7.41905 5.98577 -3668.2 -865.694 21380.4 157081 24344.9 3334.58 -7.41514 
279 1 46.2664 8.02439 7.41958 5.9953 -9458.24 10005.2 -30818.3 147140 -14232.3 -2314.78 -7.41166 
280 1 46.9595 6.78568 7.41956 5.98814 -14421.2 8433.09 26322.1 149810 24263.4 -3496.09 -7.41552 
281 1 48.3792 6.77831 7.41937 5.99129 -5549.37 5535.42 -26391.8 153191 -15676.6 -1031.2 -7.41192 
282 1 49.1063 7.99918 7.42062 5.98883 -10644.5 5440.29 30774.7 146113 24239.2 -1191.5 -7.41588 
283 1 50.526 7.9917 7.42016 5.99222 -316.056 1998.56 -30754.1 146898 -14444.8 427.116 -7.41167 
284 1 51.2194 6.75322 7.41995 5.98681 -6583.22 1694.47 26184.1 152625 24440.7 1150.73 -7.41552 
285 1 52.6391 6.74589 7.41937 5.98939 2262.69 -1489.19 -26092.6 150578 -15612.4 1908.55 -7.41194 
286 1 53.3666 7.96653 7.42043 5.98805 -1435.53 -2709.88 30423.4 146523 24250.6 3579 -7.41585 
374 1 46.9931 9.24546 7.42107 5.99191 -16051.3 10295.2 35063.3 137767 23742.3 -3679.57 -7.41621 
375 1 48.4127 9.23769 7.42073 5.99608 -4260.56 6771.96 -35144.4 141267 -13138.7 -875.47 -7.41142 
378 1 51.253 9.21256 7.42146 5.98998 -5423.66 1100.06 34972.9 140508 23931.8 1249.01 -7.41621 
379 1 52.6727 9.20484 7.42074 5.99356 6319.18 -2783.49 -34833.9 138581 -13086 1710.2 -7.41144 
27 1 54.6823 0.581923 7.41713 5.98514 -6016.04 2071.11 -2204.27 162465 -21156.5 4188.82 -7.41343 
28 1 57.5226 0.556157 7.41601 5.98605 -5851.21 1744.4 1924.25 163254 21830 6607.93 -7.41369 
29 1 58.9423 0.548424 7.41518 5.98695 -5115.77 985.91 -1908.3 153019 -20412.2 7879.42 -7.41341 
30 1 61.7826 0.52132 7.41311 5.98941 -4942.34 646.192 1637.5 154420 20916.5 10186.3 -7.41361 
31 1 63.2022 0.512398 7.41178 5.99029 -4263.89 -254.16 -1598.58 139066 -19178.2 11362.3 -7.41335 
99 1 54.7174 3.04107 7.4175 5.98567 -1313.67 -809.699 -11845.2 159359 -19041.7 3881.99 -7.4128 
100 1 55.4103 1.80234 7.41714 5.98465 -5016.36 780.266 6900.42 164768 22886.6 4938.73 -7.41406 
101 1 56.8299 1.795 7.41645 5.98598 -2576.63 -506.979 -6847.73 157277 -19822.9 5819.51 -7.4131 
102 1 57.5581 3.01529 7.41657 5.98539 -1698.25 -2345.45 11454 159998 23249.8 7173.02 -7.41437 
103 1 58.9777 3.00747 7.41559 5.98731 2354.01 -4457.83 -11308.8 149834 -18252.6 7249.59 -7.41279 
104 1 59.6705 1.76864 7.41497 5.98685 -2748.56 -1416.71 6488.81 158248 22241 8793.79 -7.41398 
105 1 61.0901 1.76034 7.41382 5.98836 -376.812 -2986.66 -6380.4 145496 -18810.1 9266.53 -7.41308 
106 1 61.8186 2.98035 7.41371 5.98819 1637.23 -5786.65 10815.5 151125 22414.6 11051.8 -7.41426 
107 1 63.2383 2.97134 7.41224 5.99031 5633.23 -8107.78 -10570.8 135917 -16939.5 10402.2 -7.41276 
193 1 54.7522 5.50005 7.41836 5.98762 3645.73 -3755.81 -21245.2 152373 -16640.7 3551.2 -7.41221 
194 1 55.4454 4.26148 7.41793 5.98503 -2072.77 -2226.55 16444.8 159605 23949.3 5347.01 -7.41476 
195 1 56.8651 4.25397 7.4171 5.98692 3627 -4728.37 -16291.3 152113 -17524.3 5337.43 -7.4125 
196 1 57.5931 5.47425 7.41762 5.98619 2750.09 -6663.77 20743.9 152847 23975.3 7720.94 -7.41506 
197 1 59.0129 5.46621 7.41649 5.98866 10016.3 -9944.39 -20460.3 142816 -15801.5 6580.18 -7.41222 
198 1 59.706 4.2276 7.41581 5.98665 2784.44 -6854.93 15769.8 153054 23361.2 9498.57 -7.41466 
199 1 61.1258 4.21915 7.41452 5.98914 8464.44 -9653.01 -15490.4 140317 -16445.2 8449.51 -7.41249 
200 1 61.8543 5.43908 7.4148 5.98842 8598.88 -12453.5 19738.6 144060 23207.4 11889.4 -7.41492 
201 1 63.274 5.42986 7.41319 5.99145 15837.9 -16077.8 -19280.7 128972 -14400.1 9384.99 -7.41222 
287 1 54.7863 7.95886 7.41959 5.99089 8909.66 -6430.57 -30210.7 141884 -14114.6 3190.1 -7.41169 
288 1 55.48 6.72049 7.41916 5.98683 1311.06 -5284.2 25654.2 150688 24268.3 5741.54 -7.41546 
289 1 56.8997 6.71271 7.41818 5.98924 10158.7 -8838.49 -25393.4 143283 -15021.5 4819.83 -7.41195 
290 1 57.6276 7.93303 7.41903 5.98838 7568.18 -10988.1 29587.6 142279 23915.1 8250.07 -7.41575 
291 1 59.0474 7.92466 7.41777 5.99133 17903 -15197.4 -29162.2 132315 -13221.9 5862.68 -7.41171 
292 1 59.7411 6.68632 7.41707 5.98787 8748.73 -12338.9 24699.9 144136 23728.8 10180.4 -7.41534 
293 1 61.1609 6.6776 7.41565 5.99087 17573.3 -16297 -24244 131549 -13870.3 7579.31 -7.41196 
294 1 61.8893 7.89751 7.41626 5.99007 15783.8 -19153.8 28191.9 133598 23204.9 12696.6 -7.41558 
295 1 63.3091 7.88797 7.41452 5.99355 26083.7 -23781.7 -27517.6 118623 -11726.8 8300.96 -7.41173 
382 1 55.5138 9.17941 7.42069 5.98982 5097.52 -8323.3 34323.2 138558 23783.4 6121.41 -7.41615 
383 1 56.9336 9.17123 7.41958 5.99283 16855.6 -12701 -33953.6 131262 -12462.2 4260.79 -7.41146 
386 1 59.7754 9.14481 7.41864 5.99043 15084.2 -17902 33065.7 132095 23284.9 10837.1 -7.416 
387 1 61.1953 9.1357 7.41709 5.99386 26829.9 -22703.9 -32432.2 119659 -11235.4 6648.52 -7.41149 
32 1 66.0425 0.483309 7.40864 5.99445 -4117.69 -482.879 1348.83 141186 19482 13375.7 -7.41347 
33 1 67.4621 0.47275 7.40674 5.99527 -3511.65 -1481.61 -1284.84 121224 -17410 14427.2 -7.41325 
34 1 70.3023 0.441099 7.40239 6.00096 -3314.24 -1539.3 1062.69 124142 17473.1 15948.4 -7.41328 
35 1 71.722 0.428531 7.39987 6.00091 -2736.37 -2404.35 -978.159 100581 -15103.4 16818.7 -7.41309 
108 1 63.9308 1.73231 7.41132 5.99079 -784.058 -3676.11 5972.82 147171 21124.4 12353.7 -7.41386 
109 1 65.3504 1.7226 7.40964 5.9923 1542.39 -5385.92 -5798.5 129537 -17267 12407.3 -7.41302 
110 1 66.0793 2.94224 7.40925 5.99271 4572.01 -9032.48 9952.22 137943 21092.8 14531.6 -7.41408 
111 1 67.499 2.9316 7.40721 5.99471 8537.11 -11484.7 -9595.83 118172 -15060.3 13139.1 -7.4127 
112 1 68.1911 1.69229 7.40598 5.99637 921.147 -5776.33 5335.1 131936 19473.9 15406.3 -7.41367 
113 1 69.6108 1.68074 7.4037 5.99736 3188.85 -7479.24 -5092.08 110176 -15164.5 15010.9 -7.41291 
114 1 70.34 2.89995 7.40299 5.99882 6918.96 -11759.4 8827.7 121066 19234.3 17364.3 -7.41384 
115 1 71.7598 2.8873 7.40035 5.99974 10852.6 -14222.6 -8360.38 97668.7 -12613.6 15226.7 -7.4126 
116 1 72.4513 1.64763 7.39878 6.00334 2254.18 -7343.05 4565.14 113452 17260.4 17700.7 -7.41342 
202 1 63.967 4.19111 7.41219 5.99005 7025.74 -11353.1 14790.3 142048 22333.9 13349.4 -7.4145 
203 1 65.3867 4.18126 7.41038 5.99279 12674.6 -14392.6 -14363.5 124432 -14800.9 11250.1 -7.41247 
204 1 66.1157 5.40076 7.41038 5.99247 13522.7 -17842.5 18283.6 131051 21987.1 15645.4 -7.41471 
205 1 67.5355 5.38992 7.40822 5.99531 20744.8 -21629.4 -17628.3 111442 -12398.8 11774.2 -7.4122 
206 1 68.2282 4.15094 7.40687 5.99519 10592.4 -15336.2 13443.1 127009 20809.3 16672.7 -7.41427 
207 1 69.6479 4.13926 7.40447 5.99705 16177.4 -18513.1 -12858.3 105279 -12566.5 13523.5 -7.41241 
208 1 70.3774 5.35828 7.40417 5.99817 17393.8 -22282.2 16303.6 114432 20271.3 18719.2 -7.4144 
209 1 71.7973 5.34546 7.40143 5.99991 24571.2 -26161.2 -15449.2 91245.7 -9802.2 13535.5 -7.41216 
210 1 72.4895 4.10617 7.3997 6.00181 13204.4 -18369.8 11689 108735 18764.5 19190.1 -7.41394 
296 1 64.0027 6.64955 7.41351 5.99075 15196.6 -19123.1 23234.3 133268 22779.6 14309.6 -7.41515 
297 1 65.4226 6.63944 7.41157 5.99424 23979.4 -23405.8 -22550.9 115878 -12116.4 10020.7 -7.41197 
298 1 66.1515 7.85887 7.4119 5.99363 22666.2 -26675.1 26114.5 120866 22076.1 16711.9 -7.41532 
299 1 67.5714 7.84772 7.40964 5.99716 32942 -31545.1 -25159.5 101407 -9597.39 10323.2 -7.41175 
300 1 68.2648 6.60913 7.40825 5.99543 20543.9 -24991.6 21152.6 118494 21371.5 17885.8 -7.41486 
301 1 69.6846 6.59721 7.40575 5.99808 29259.3 -29557.8 -20224.2 97065.9 -9741.88 11943.8 -7.41197 
302 1 70.4142 7.81612 7.40578 5.99895 28079.6 -32784.5 23249 104630 20497.8 20003.8 -7.41495 
303 1 71.8341 7.80301 7.40297 6.00135 38218 -37927.8 -22010.2 81725.9 -6846.44 11738.9 -7.41177 
304 1 72.5271 6.56416 7.40116 6.00172 24304.1 -29482.4 18392.5 100631 19492.5 20601.5 -7.41446 
390 1 64.0377 9.10764 7.41513 5.99281 23651.6 -26932.3 31080.7 121446 22404.6 15228.6 -7.41577 
391 1 65.4576 9.09716 7.41308 5.9967 35317.3 -32229.4 -30141.1 104277 -9368.14 8711.65 -7.41153 
394 1 68.3006 9.06688 7.40995 5.99704 30675.3 -34752.9 28228.8 107027 21106.8 19035 -7.41542 
395 1 69.7206 9.0546 7.40738 6.00032 42208.2 -40434.5 -26960.1 85897.4 -6850.45 10266.9 -7.41158 
398 1 72.5639 9.02163 7.40301 6.003 35526.9 -40628.8 24433.7 89670.5 19395.2 21919 -7.41496 
36 1 74.562 0.393876 7.39427 6.00862 -2997.47 -2453.39 787.182 104310 14895.7 17674.1 -7.41303 
37 1 75.9817 0.379026 7.39116 6.00769 -2543.16 -3249.53 -689.276 78503.7 -12333.4 18301.5 -7.41286 
38 1 78.8216 0.34109 7.38443 6.01694 -2675.5 -3080.32 537.845 82871.6 11857.3 18381.8 -7.41272 
39 1 80.2413 0.32382 7.38081 6.01533 -2361.78 -3793.16 -425.179 56550 -9278.96 18707.9 -7.41257 
117 1 73.871 1.63392 7.39589 6.00332 4343.75 -9203.45 -4261.84 88694.5 -12534.7 16836.8 -7.41276 
118 1 74.6008 2.85265 7.39486 6.00623 8247.68 -13845.5 7436.83 101481 16850.7 19287 -7.41351 
119 1 76.0206 2.83774 7.39164 6.00618 12026.4 -16333.5 -6878.43 75836.8 -9673.77 16464 -7.41245 
120 1 76.7115 1.59765 7.38974 6.0113 2871.92 -8597.3 3679.32 92785.4 14541.1 19013.1 -7.4131 
121 1 78.1313 1.58158 7.38631 6.01045 4908.46 -10252.5 -3330.99 66570 -9500 17703.9 -7.41254 
122 1 78.8615 2.79982 7.38501 6.01445 8911.75 -14867.3 5836.83 80291.2 14065.2 20087.3 -7.41311 
123 1 80.2813 2.78249 7.38132 6.01364 12457.9 -17423.3 -5217.39 54124.8 -6407.03 16725.5 -7.41225 
124 1 80.9716 1.54196 7.37915 6.01978 3047.46 -9166.63 2734.5 71121.1 11494.9 19182.3 -7.41271 
211 1 73.9093 4.09234 7.39671 6.00264 18578.7 -21816.5 -10958.8 84111.5 -9777.92 15056.9 -7.41233 
212 1 74.6393 5.31085 7.39611 6.0053 19650.8 -25428.6 13784.7 95179.2 18081.7 20812.6 -7.41399 
213 1 76.0592 5.29577 7.39282 6.00603 26607.6 -29502.7 -12764.3 69817.3 -6688.32 14498.6 -7.41209 
214 1 76.7508 4.0561 7.3907 6.00957 14520.2 -20381 9557.75 88367.8 16268.1 20637.2 -7.41354 
215 1 78.1706 4.03992 7.38719 6.00951 19762.5 -23785 -8719.73 62343.3 -6554.66 15704.9 -7.41219 
216 1 78.9012 5.25794 7.38637 6.01343 20572.5 -26790.5 10830.4 74372.9 15558.7 21666.5 -7.41351 
217 1 80.321 5.24047 7.38267 6.01331 27155.2 -31055 -9706.97 48535.7 -3217.03 14574.9 -7.41198 
218 1 81.012 4.00037 7.38018 6.01807 14544.2 -20854.6 7180.48 67005.3 13521.3 20807.6 -7.41306 
305 1 73.947 6.5501 7.3981 6.0033 32764.1 -34361.4 -17236.3 76326.6 -6789.39 13162.1 -7.41195 
306 1 74.6771 7.76849 7.39787 6.0058 31180.9 -36998 19581 85843.3 18505.8 22236.5 -7.41446 
307 1 76.0971 7.75315 7.39456 6.00718 41009.9 -42453 -18106.1 60891.4 -3559.93 12407.2 -7.41179 
308 1 76.7895 6.51396 7.3923 6.00929 26207 -32235 15003.7 80699.2 17224.8 22149.3 -7.41397 
309 1 78.2094 6.49758 7.38878 6.00992 34420.9 -37199.1 -13681.5 55073.5 -3381.03 13562.4 -7.41191 
310 1 78.9401 7.71547 7.38839 6.01381 32231.9 -38629.8 15267.9 65553.3 16256.7 23102 -7.41389 
311 1 80.3601 7.69777 7.38473 6.01427 41507 -44414.6 -13654 40270.4 101.39 12272.9 -7.41178 
312 1 81.0519 6.45818 7.38203 6.01778 25983.8 -32569.8 11197 59813.9 14789.4 22273.5 -7.41341 
399 1 73.9839 9.00725 7.39993 6.00514 46709.3 -46699.1 -22859.5 65814 -3735.17 11153.8 -7.41164 
402 1 76.8274 8.97125 7.3944 6.01037 37838.3 -44010.3 19774.7 70337.1 17368 23528.5 -7.41438 
403 1 78.2475 8.95459 7.39092 6.01151 48629.6 -50290 -17983.1 45281.2 -151.87 11290.1 -7.41168 
406 1 81.0909 8.9154 7.38451 6.01882 37252.7 -44107.5 14551.2 50094 15259.3 23559.6 -7.41373 
40 1 83.081 0.282517 7.37326 6.02544 -3067.85 -3687.91 336.071 61044.6 8586.66 17939.3 -7.41237 
41 1 84.5007 0.262832 7.36937 6.02344 -3023.36 -4461.62 -201.962 36070 -6205.42 17865.7 -7.41224 
42 1 87.3403 0.218288 7.36161 6.03357 -3342.87 -4244.78 188.625 40001.4 5403.65 16119.3 -7.41201 
43 1 88.76 0.196357 7.35784 6.0316 -3292.22 -4594.32 -52.4391 18580 -3439.66 15452.4 -7.41189 
125 1 82.3913 1.52346 7.37532 6.01828 4790.76 -10921.2 -2354.33 45285.3 -6275.4 17482.5 -7.41227 
126 1 83.1221 2.74123 7.37387 6.02309 7955.25 -15015.2 4152.41 58703.2 11132.9 19591.8 -7.41266 
127 1 84.5419 2.72149 7.36994 6.02174 11022 -17782.6 -3511.36 33927.3 -3051.44 15887.2 -7.41202 