(written by TR)

13256	atoms
1	atom types
0	100.117545	xlo xhi
0	173.408675	ylo yhi
0	18.3999996	zlo zhi


Masses

1	12

Atoms

1 1 1 0 0.00000000 0.00000000 7.50000000 0 0 0
2 1 1 0 2.14494465 1.20350018 7.50000000 0 0 0
3 1 1 0 3.56483743 1.18605814 7.50000000 0 0 0
4 1 1 0 6.40462348 1.15117407 7.50000000 0 0 0
5 1 1 0 7.82451625 1.13373204 7.50000000 0 0 0
6 1 1 0 10.66430230 1.09884797 7.50000000 0 0 0
7 1 1 0 12.08419508 1.08140594 7.50000000 0 0 0
8 1 1 0 14.92398113 1.04652187 7.50000000 0 0 0
9 1 1 0 16.34387390 1.02907984 7.50000000 0 0 0
10 1 1 0 19.18365995 0.99419577 7.50000000 0 0 0
11 1 1 0 20.60355273 0.97675374 7.50000000 0 0 0
12 1 1 0 23.44333877 0.94186967 7.50000000 0 0 0
13 1 1 0 24.86323155 0.92442764 7.50000000 0 0 0
14 1 1 0 27.70301760 0.88954357 7.50000000 0 0 0
15 1 1 0 29.12291037 0.87210154 7.50000000 0 0 0
16 1 1 0 31.96269642 0.83721747 7.50000000 0 0 0
17 1 1 0 33.38258920 0.81977544 7.50000000 0 0 0
18 1 1 0 36.22237525 0.78489137 7.50000000 0 0 0
19 1 1 0 37.64226802 0.76744933 7.50000000 0 0 0
20 1 1 0 40.48205407 0.73256527 7.50000000 0 0 0
21 1 1 0 41.90194684 0.71512323 7.50000000 0 0 0
22 1 1 0 44.74173289 0.68023916 7.50000000 0 0 0
23 1 1 0 46.16162567 0.66279713 7.50000000 0 0 0
24 1 1 0 49.00141172 0.62791306 7.50000000 0 0 0
25 1 1 0 50.42130449 0.61047103 7.50000000 0 0 0
26 1 1 0 53.26109054 0.57558696 7.50000000 0 0 0
27 1 1 0 54.68098332 0.55814493 7.50000000 0 0 0
28 1 1 0 57.52076937 0.52326086 7.50000000 0 0 0
29 1 1 0 58.94066214 0.50581883 7.50000000 0 0 0
30 1 1 0 61.78044819 0.47093476 7.50000000 0 0 0
31 1 1 0 63.20034096 0.45349273 7.50000000 0 0 0
32 1 1 0 66.04012701 0.41860866 7.50000000 0 0 0
33 1 1 0 67.46001979 0.40116663 7.50000000 0 0 0
34 1 1 0 70.29980584 0.36628256 7.50000000 0 0 0
35 1 1 0 71.71969861 0.34884053 7.50000000 0 0 0
36 1 1 0 74.55948466 0.31395646 7.50000000 0 0 0
37 1 1 0 75.97937744 0.29651442 7.50000000 0 0 0
38 1 1 0 78.81916349 0.26163035 7.50000000 0 0 0
39 1 1 0 80.23905626 0.24418832 7.50000000 0 0 0
40 1 1 0 83.07884231 0.20930425 7.50000000 0 0 0
41 1 1 0 84.49873508 0.19186222 7.50000000 0 0 0
42 1 1 0 87.33852113 0.15697815 7.50000000 0 0 0
43 1 1 0 88.75841391 0.13953612 7.50000000 0 0 0
44 1 1 0 91.59819996 0.10465205 7.50000000 0 0 0
45 1 1 0 93.01809273 0.08721002 7.50000000 0 0 0
46 1 1 0 95.85787878 0.05232595 7.50000000 0 0 0
47 1 1 0 97.27777156 0.03488392 7.50000000 0 0 0
48 1 1 0 0.03021049 2.45932645 7.50000000 0 0 0
49 1 1 0 1.45010336 2.44188442 7.50000000 0 0 0
50 1 1 0 2.17515514 3.66282663 7.50000000 0 0 0
51 1 1 0 3.59504791 3.64538460 7.50000000 0 0 0
52 1 1 0 4.28988931 2.40700035 7.50000000 0 0 0
53 1 1 0 5.70978218 2.38955832 7.50000000 0 0 0
54 1 1 0 6.43483396 3.61050053 7.50000000 0 0 0
55 1 1 0 7.85472674 3.59305850 7.50000000 0 0 0
56 1 1 0 8.54956813 2.35467425 7.50000000 0 0 0
57 1 1 0 9.96946101 2.33723222 7.50000000 0 0 0
58 1 1 0 10.69451279 3.55817443 7.50000000 0 0 0
59 1 1 0 12.11440556 3.54073240 7.50000000 0 0 0
60 1 1 0 12.80924696 2.30234815 7.50000000 0 0 0
61 1 1 0 14.22913983 2.28490612 7.50000000 0 0 0
62 1 1 0 14.95419161 3.50584833 7.50000000 0 0 0
63 1 1 0 16.37408439 3.48840629 7.50000000 0 0 0
64 1 1 0 17.06892578 2.25002205 7.50000000 0 0 0
65 1 1 0 18.48881866 2.23258002 7.50000000 0 0 0
66 1 1 0 19.21387044 3.45352222 7.50000000 0 0 0
67 1 1 0 20.63376321 3.43608019 7.50000000 0 0 0
68 1 1 0 21.32860461 2.19769595 7.50000000 0 0 0
69 1 1 0 22.74849748 2.18025391 7.50000000 0 0 0
70 1 1 0 23.47354926 3.40119612 7.50000000 0 0 0
71 1 1 0 24.89344203 3.38375409 7.50000000 0 0 0
72 1 1 0 25.58828343 2.14536985 7.50000000 0 0 0
73 1 1 0 27.00817630 2.12792781 7.50000000 0 0 0
74 1 1 0 27.73322808 3.34887002 7.50000000 0 0 0
75 1 1 0 29.15312086 3.33142799 7.50000000 0 0 0
76 1 1 0 29.84796225 2.09304374 7.50000000 0 0 0
77 1 1 0 31.26785513 2.07560171 7.50000000 0 0 0
78 1 1 0 31.99290691 3.29654392 7.50000000 0 0 0
79 1 1 0 33.41279968 3.27910189 7.50000000 0 0 0
80 1 1 0 34.10764108 2.04071764 7.50000000 0 0 0
81 1 1 0 35.52753395 2.02327561 7.50000000 0 0 0
82 1 1 0 36.25258573 3.24421782 7.50000000 0 0 0
83 1 1 0 37.67247851 3.22677579 7.50000000 0 0 0
84 1 1 0 38.36731990 1.98839154 7.50000000 0 0 0
85 1 1 0 39.78721278 1.97094951 7.50000000 0 0 0
86 1 1 0 40.51226456 3.19189172 7.50000000 0 0 0
87 1 1 0 41.93215733 3.17444969 7.50000000 0 0 0
88 1 1 0 42.62699872 1.93606544 7.50000000 0 0 0
89 1 1 0 44.04689160 1.91862341 7.50000000 0 0 0
90 1 1 0 44.77194338 3.13956562 7.50000000 0 0 0
91 1 1 0 46.19183615 3.12212359 7.50000000 0 0 0
92 1 1 0 46.88667755 1.88373934 7.50000000 0 0 0
93 1 1 0 48.30657042 1.86629731 7.50000000 0 0 0
94 1 1 0 49.03162220 3.08723952 7.50000000 0 0 0
95 1 1 0 50.45151498 3.06979748 7.50000000 0 0 0
96 1 1 0 51.14635637 1.83141324 7.50000000 0 0 0
97 1 1 0 52.56624925 1.81397121 7.50000000 0 0 0
98 1 1 0 53.29130103 3.03491342 7.50000000 0 0 0
99 1 1 0 54.71119380 3.01747138 7.50000000 0 0 0
100 1 1 0 55.40603520 1.77908714 7.50000000 0 0 0
101 1 1 0 56.82592807 1.76164510 7.50000000 0 0 0
102 1 1 0 57.55097985 2.98258731 7.50000000 0 0 0
103 1 1 0 58.97087263 2.96514528 7.50000000 0 0 0
104 1 1 0 59.66571402 1.72676104 7.50000000 0 0 0
105 1 1 0 61.08560690 1.70931900 7.50000000 0 0 0
106 1 1 0 61.81065868 2.93026121 7.50000000 0 0 0
107 1 1 0 63.23055145 2.91281918 7.50000000 0 0 0
108 1 1 0 63.92539284 1.67443494 7.50000000 0 0 0
109 1 1 0 65.34528572 1.65699290 7.50000000 0 0 0
110 1 1 0 66.07033750 2.87793511 7.50000000 0 0 0
111 1 1 0 67.49023027 2.86049308 7.50000000 0 0 0
112 1 1 0 68.18507167 1.62210883 7.50000000 0 0 0
113 1 1 0 69.60496454 1.60466680 7.50000000 0 0 0
114 1 1 0 70.33001632 2.82560901 7.50000000 0 0 0
115 1 1 0 71.74990910 2.80816698 7.50000000 0 0 0
116 1 1 0 72.44475049 1.56978273 7.50000000 0 0 0
117 1 1 0 73.86464337 1.55234070 7.50000000 0 0 0
118 1 1 0 74.58969515 2.77328291 7.50000000 0 0 0
119 1 1 0 76.00958792 2.75584088 7.50000000 0 0 0
120 1 1 0 76.70442932 1.51745663 7.50000000 0 0 0
121 1 1 0 78.12432219 1.50001460 7.50000000 0 0 0
122 1 1 0 78.84937397 2.72095681 7.50000000 0 0 0
123 1 1 0 80.26926675 2.70351478 7.50000000 0 0 0
124 1 1 0 80.96410814 1.46513053 7.50000000 0 0 0
125 1 1 0 82.38400101 1.44768850 7.50000000 0 0 0
126 1 1 0 83.10905279 2.66863071 7.50000000 0 0 0
127 1 1 0 84.52894557 2.65118867 7.50000000 0 0 0
128 1 1 0 85.22378696 1.41280443 7.50000000 0 0 0
129 1 1 0 86.64367984 1.39536240 7.50000000 0 0 0
130 1 1 0 87.36873162 2.61630461 7.50000000 0 0 0
131 1 1 0 88.78862439 2.59886257 7.50000000 0 0 0
132 1 1 0 89.48346579 1.36047833 7.50000000 0 0 0
133 1 1 0 90.90335866 1.34303630 7.50000000 0 0 0
134 1 1 0 91.62841044 2.56397850 7.50000000 0 0 0
135 1 1 0 93.04830322 2.54653647 7.50000000 0 0 0
136 1 1 0 93.74314461 1.30815223 7.50000000 0 0 0
137 1 1 0 95.16303749 1.29071019 7.50000000 0 0 0
138 1 1 0 95.88808927 2.51165240 7.50000000 0 0 0
139 1 1 0 97.30798204 2.49421037 7.50000000 0 0 0
140 1 1 0 98.00282344 1.25582613 7.50000000 0 0 0
141 1 1 0 99.42271631 1.23838409 7.50000000 0 0 0
142 1 1 0 0.06042097 4.91865291 7.50000000 0 0 0
143 1 1 0 1.48031385 4.90121087 7.50000000 0 0 0
144 1 1 0 2.20536563 6.12215308 7.50000000 0 0 0
145 1 1 0 3.62525840 6.10471105 7.50000000 0 0 0
146 1 1 0 4.32009979 4.86632681 7.50000000 0 0 0
147 1 1 0 5.73999267 4.84888477 7.50000000 0 0 0
148 1 1 0 6.46504445 6.06982698 7.50000000 0 0 0
149 1 1 0 7.88493722 6.05238495 7.50000000 0 0 0
150 1 1 0 8.57977862 4.81400070 7.50000000 0 0 0
151 1 1 0 9.99967149 4.79655867 7.50000000 0 0 0
152 1 1 0 10.72472327 6.01750088 7.50000000 0 0 0
153 1 1 0 12.14461605 6.00005885 7.50000000 0 0 0
154 1 1 0 12.83945744 4.76167460 7.50000000 0 0 0
155 1 1 0 14.25935032 4.74423257 7.50000000 0 0 0
156 1 1 0 14.98440210 5.96517478 7.50000000 0 0 0
157 1 1 0 16.40429487 5.94773275 7.50000000 0 0 0
158 1 1 0 17.09913627 4.70934850 7.50000000 0 0 0
159 1 1 0 18.51902914 4.69190647 7.50000000 0 0 0
160 1 1 0 19.24408092 5.91284868 7.50000000 0 0 0
161 1 1 0 20.66397370 5.89540665 7.50000000 0 0 0
162 1 1 0 21.35881509 4.65702240 7.50000000 0 0 0
163 1 1 0 22.77870797 4.63958037 7.50000000 0 0 0
164 1 1 0 23.50375975 5.86052258 7.50000000 0 0 0
165 1 1 0 24.92365252 5.84308055 7.50000000 0 0 0
166 1 1 0 25.61849391 4.60469630 7.50000000 0 0 0
167 1 1 0 27.03838679 4.58725427 7.50000000 0 0 0
168 1 1 0 27.76343857 5.80819648 7.50000000 0 0 0
169 1 1 0 29.18333134 5.79075444 7.50000000 0 0 0
170 1 1 0 29.87817274 4.55237020 7.50000000 0 0 0
171 1 1 0 31.29806561 4.53492817 7.50000000 0 0 0
172 1 1 0 32.02311739 5.75587037 7.50000000 0 0 0
173 1 1 0 33.44301017 5.73842834 7.50000000 0 0 0
174 1 1 0 34.13785156 4.50004410 7.50000000 0 0 0
175 1 1 0 35.55774444 4.48260206 7.50000000 0 0 0
176 1 1 0 36.28279622 5.70354427 7.50000000 0 0 0
177 1 1 0 37.70268899 5.68610224 7.50000000 0 0 0
178 1 1 0 38.39753039 4.44771800 7.50000000 0 0 0
179 1 1 0 39.81742326 4.43027596 7.50000000 0 0 0
180 1 1 0 40.54247504 5.65121817 7.50000000 0 0 0
181 1 1 0 41.96236782 5.63377614 7.50000000 0 0 0
182 1 1 0 42.65720921 4.39539189 7.50000000 0 0 0
183 1 1 0 44.07710208 4.37794986 7.50000000 0 0 0
184 1 1 0 44.80215386 5.59889207 7.50000000 0 0 0
185 1 1 0 46.22204664 5.58145004 7.50000000 0 0 0
186 1 1 0 46.91688803 4.34306579 7.50000000 0 0 0
187 1 1 0 48.33678091 4.32562376 7.50000000 0 0 0
188 1 1 0 49.06183269 5.54656597 7.50000000 0 0 0
189 1 1 0 50.48172546 5.52912394 7.50000000 0 0 0
190 1 1 0 51.17656686 4.29073969 7.50000000 0 0 0
191 1 1 0 52.59645973 4.27329766 7.50000000 0 0 0
192 1 1 0 53.32151151 5.49423987 7.50000000 0 0 0
193 1 1 0 54.74140429 5.47679784 7.50000000 0 0 0
194 1 1 0 55.43624568 4.23841359 7.50000000 0 0 0
195 1 1 0 56.85613856 4.22097156 7.50000000 0 0 0
196 1 1 0 57.58119034 5.44191377 7.50000000 0 0 0
197 1 1 0 59.00108311 5.42447174 7.50000000 0 0 0
198 1 1 0 59.69592451 4.18608749 7.50000000 0 0 0
199 1 1 0 61.11581738 4.16864546 7.50000000 0 0 0
200 1 1 0 61.84086916 5.38958767 7.50000000 0 0 0
201 1 1 0 63.26076194 5.37214563 7.50000000 0 0 0
202 1 1 0 63.95560333 4.13376139 7.50000000 0 0 0
203 1 1 0 65.37549620 4.11631936 7.50000000 0 0 0
204 1 1 0 66.10054798 5.33726156 7.50000000 0 0 0
205 1 1 0 67.52044076 5.31981953 7.50000000 0 0 0
206 1 1 0 68.21528215 4.08143529 7.50000000 0 0 0
207 1 1 0 69.63517503 4.06399325 7.50000000 0 0 0
208 1 1 0 70.36022681 5.28493546 7.50000000 0 0 0
209 1 1 0 71.78011958 5.26749343 7.50000000 0 0 0
210 1 1 0 72.47496098 4.02910919 7.50000000 0 0 0
211 1 1 0 73.89485385 4.01166715 7.50000000 0 0 0
212 1 1 0 74.61990563 5.23260936 7.50000000 0 0 0
213 1 1 0 76.03979841 5.21516733 7.50000000 0 0 0
214 1 1 0 76.73463980 3.97678309 7.50000000 0 0 0
215 1 1 0 78.15453268 3.95934105 7.50000000 0 0 0
216 1 1 0 78.87958446 5.18028326 7.50000000 0 0 0
217 1 1 0 80.29947723 5.16284123 7.50000000 0 0 0
218 1 1 0 80.99431863 3.92445698 7.50000000 0 0 0
219 1 1 0 82.41421150 3.90701495 7.50000000 0 0 0
220 1 1 0 83.13926328 5.12795716 7.50000000 0 0 0
221 1 1 0 84.55915606 5.11051513 7.50000000 0 0 0
222 1 1 0 85.25399745 3.87213088 7.50000000 0 0 0
223 1 1 0 86.67389032 3.85468885 7.50000000 0 0 0
224 1 1 0 87.39894210 5.07563106 7.50000000 0 0 0
225 1 1 0 88.81883488 5.05818903 7.50000000 0 0 0
226 1 1 0 89.51367627 3.81980478 7.50000000 0 0 0
227 1 1 0 90.93356915 3.80236275 7.50000000 0 0 0
228 1 1 0 91.65862093 5.02330496 7.50000000 0 0 0
229 1 1 0 93.07851370 5.00586293 7.50000000 0 0 0
230 1 1 0 93.77335510 3.76747868 7.50000000 0 0 0
231 1 1 0 95.19324797 3.75003665 7.50000000 0 0 0
232 1 1 0 95.91829975 4.97097886 7.50000000 0 0 0
233 1 1 0 97.33819253 4.95353682 7.50000000 0 0 0
234 1 1 0 98.03303392 3.71515258 7.50000000 0 0 0
235 1 1 0 99.45292680 3.69771055 7.50000000 0 0 0
236 1 1 0 0.09063146 7.37797936 7.50000000 0 0 0
237 1 1 0 1.51052433 7.36053733 7.50000000 0 0 0
238 1 1 0 2.23557611 8.58147954 7.50000000 0 0 0
239 1 1 0 3.65546889 8.56403750 7.50000000 0 0 0
240 1 1 0 4.35031028 7.32565326 7.50000000 0 0 0
241 1 1 0 5.77020315 7.30821123 7.50000000 0 0 0
242 1 1 0 6.49525493 8.52915344 7.50000000 0 0 0
243 1 1 0 7.91514771 8.51171140 7.50000000 0 0 0
244 1 1 0 8.60998910 7.27332716 7.50000000 0 0 0
245 1 1 0 10.02988198 7.25588513 7.50000000 0 0 0
246 1 1 0 10.75493376 8.47682733 7.50000000 0 0 0
247 1 1 0 12.17482653 8.45938530 7.50000000 0 0 0
248 1 1 0 12.86966793 7.22100106 7.50000000 0 0 0
249 1 1 0 14.28956080 7.20355902 7.50000000 0 0 0
250 1 1 0 15.01461258 8.42450123 7.50000000 0 0 0
251 1 1 0 16.43450536 8.40705920 7.50000000 0 0 0
252 1 1 0 17.12934675 7.16867496 7.50000000 0 0 0
253 1 1 0 18.54923963 7.15123292 7.50000000 0 0 0
254 1 1 0 19.27429141 8.37217513 7.50000000 0 0 0
255 1 1 0 20.69418418 8.35473310 7.50000000 0 0 0
256 1 1 0 21.38902558 7.11634885 7.50000000 0 0 0
257 1 1 0 22.80891845 7.09890682 7.50000000 0 0 0
258 1 1 0 23.53397023 8.31984903 7.50000000 0 0 0
259 1 1 0 24.95386301 8.30240700 7.50000000 0 0 0
260 1 1 0 25.64870440 7.06402275 7.50000000 0 0 0
261 1 1 0 27.06859727 7.04658072 7.50000000 0 0 0
262 1 1 0 27.79364905 8.26752293 7.50000000 0 0 0
263 1 1 0 29.21354183 8.25008090 7.50000000 0 0 0
264 1 1 0 29.90838322 7.01169665 7.50000000 0 0 0
265 1 1 0 31.32827610 6.99425462 7.50000000 0 0 0
266 1 1 0 32.05332788 8.21519683 7.50000000 0 0 0
267 1 1 0 33.47322065 8.19775480 7.50000000 0 0 0
268 1 1 0 34.16806205 6.95937055 7.50000000 0 0 0
269 1 1 0 35.58795492 6.94192852 7.50000000 0 0 0
270 1 1 0 36.31300670 8.16287073 7.50000000 0 0 0
271 1 1 0 37.73289948 8.14542870 7.50000000 0 0 0
272 1 1 0 38.42774087 6.90704445 7.50000000 0 0 0
273 1 1 0 39.84763375 6.88960242 7.50000000 0 0 0
274 1 1 0 40.57268553 8.11054463 7.50000000 0 0 0
275 1 1 0 41.99257830 8.09310259 7.50000000 0 0 0
276 1 1 0 42.68741970 6.85471835 7.50000000 0 0 0
277 1 1 0 44.10731257 6.83727632 7.50000000 0 0 0
278 1 1 0 44.83236435 8.05821852 7.50000000 0 0 0
279 1 1 0 46.25225712 8.04077649 7.50000000 0 0 0
280 1 1 0 46.94709852 6.80239225 7.50000000 0 0 0
281 1 1 0 48.36699139 6.78495021 7.50000000 0 0 0
282 1 1 0 49.09204317 8.00589242 7.50000000 0 0 0
283 1 1 0 50.51193595 7.98845039 7.50000000 0 0 0
284 1 1 0 51.20677734 6.75006615 7.50000000 0 0 0
285 1 1 0 52.62667022 6.73262411 7.50000000 0 0 0
286 1 1 0 53.35172200 7.95356632 7.50000000 0 0 0
287 1 1 0 54.77161477 7.93612429 7.50000000 0 0 0
288 1 1 0 55.46645617 6.69774004 7.50000000 0 0 0
289 1 1 0 56.88634904 6.68029801 7.50000000 0 0 0
290 1 1 0 57.61140082 7.90124022 7.50000000 0 0 0
291 1 1 0 59.03129360 7.88379819 7.50000000 0 0 0
292 1 1 0 59.72613499 6.64541394 7.50000000 0 0 0
293 1 1 0 61.14602787 6.62797191 7.50000000 0 0 0
294 1 1 0 61.87107965 7.84891412 7.50000000 0 0 0
295 1 1 0 63.29097242 7.83147209 7.50000000 0 0 0
296 1 1 0 63.98581382 6.59308784 7.50000000 0 0 0
297 1 1 0 65.40570669 6.57564581 7.50000000 0 0 0
298 1 1 0 66.13075847 7.79658802 7.50000000 0 0 0
299 1 1 0 67.55065124 7.77914599 7.50000000 0 0 0
300 1 1 0 68.24549264 6.54076174 7.50000000 0 0 0
301 1 1 0 69.66538551 6.52331971 7.50000000 0 0 0
302 1 1 0 70.39043729 7.74426192 7.50000000 0 0 0
303 1 1 0 71.81033007 7.72681989 7.50000000 0 0 0
304 1 1 0 72.50517146 6.48843564 7.50000000 0 0 0
305 1 1 0 73.92506434 6.47099361 7.50000000 0 0 0
306 1 1 0 74.65011612 7.69193582 7.50000000 0 0 0
307 1 1 0 76.07000889 7.67449378 7.50000000 0 0 0
308 1 1 0 76.76485029 6.43610954 7.50000000 0 0 0
309 1 1 0 78.18474316 6.41866751 7.50000000 0 0 0
310 1 1 0 78.90979494 7.63960971 7.50000000 0 0 0
311 1 1 0 80.32968772 7.62216768 7.50000000 0 0 0
312 1 1 0 81.02452911 6.38378344 7.50000000 0 0 0
313 1 1 0 82.44442199 6.36634140 7.50000000 0 0 0
314 1 1 0 83.16947377 7.58728361 7.50000000 0 0 0
315 1 1 0 84.58936654 7.56984158 7.50000000 0 0 0
316 1 1 0 85.28420794 6.33145734 7.50000000 0 0 0
317 1 1 0 86.70410081 6.31401530 7.50000000 0 0 0
318 1 1 0 87.42915259 7.53495751 7.50000000 0 0 0
319 1 1 0 88.84904536 7.51751548 7.50000000 0 0 0
320 1 1 0 89.54388676 6.27913123 7.50000000 0 0 0
321 1 1 0 90.96377963 6.26168920 7.50000000 0 0 0
322 1 1 0 91.68883141 7.48263141 7.50000000 0 0 0
323 1 1 0 93.10872419 7.46518938 7.50000000 0 0 0
324 1 1 0 93.80356558 6.22680513 7.50000000 0 0 0
325 1 1 0 95.22345846 6.20936310 7.50000000 0 0 0
326 1 1 0 95.94851024 7.43030531 7.50000000 0 0 0
327 1 1 0 97.36840301 7.41286328 7.50000000 0 0 0
328 1 1 0 98.06324441 6.17447903 7.50000000 0 0 0
329 1 1 0 99.48313728 6.15703700 7.50000000 0 0 0
330 1 1 0 0.12084194 9.83730581 7.50000000 0 0 0
331 1 1 0 1.54073482 9.81986378 7.50000000 0 0 0
332 1 1 0 2.26578660 11.04080599 7.50000000 0 0 0
333 1 1 0 3.68567937 11.02336396 7.50000000 0 0 0
334 1 1 0 4.38052077 9.78497971 7.50000000 0 0 0
335 1 1 0 5.80041364 9.76753768 7.50000000 0 0 0
336 1 1 0 6.52546542 10.98847989 7.50000000 0 0 0
337 1 1 0 7.94535819 10.97103786 7.50000000 0 0 0
338 1 1 0 8.64019959 9.73265361 7.50000000 0 0 0
339 1 1 0 10.06009246 9.71521158 7.50000000 0 0 0
340 1 1 0 10.78514424 10.93615379 7.50000000 0 0 0
341 1 1 0 12.20503702 10.91871176 7.50000000 0 0 0
342 1 1 0 12.89987841 9.68032751 7.50000000 0 0 0
343 1 1 0 14.31977129 9.66288548 7.50000000 0 0 0
344 1 1 0 15.04482307 10.88382769 7.50000000 0 0 0
345 1 1 0 16.46471584 10.86638565 7.50000000 0 0 0
346 1 1 0 17.15955724 9.62800141 7.50000000 0 0 0
347 1 1 0 18.57945011 9.61055938 7.50000000 0 0 0
348 1 1 0 19.30450189 10.83150159 7.50000000 0 0 0
349 1 1 0 20.72439467 10.81405955 7.50000000 0 0 0
350 1 1 0 21.41923606 9.57567531 7.50000000 0 0 0
351 1 1 0 22.83912894 9.55823327 7.50000000 0 0 0
352 1 1 0 23.56418072 10.77917548 7.50000000 0 0 0
353 1 1 0 24.98407349 10.76173345 7.50000000 0 0 0
354 1 1 0 25.67891489 9.52334921 7.50000000 0 0 0
355 1 1 0 27.09880776 9.50590717 7.50000000 0 0 0
356 1 1 0 27.82385954 10.72684938 7.50000000 0 0 0
357 1 1 0 29.24375231 10.70940735 7.50000000 0 0 0
358 1 1 0 29.93859371 9.47102311 7.50000000 0 0 0
359 1 1 0 31.35848658 9.45358107 7.50000000 0 0 0
360 1 1 0 32.08353836 10.67452328 7.50000000 0 0 0
361 1 1 0 33.50343114 10.65708125 7.50000000 0 0 0
362 1 1 0 34.19827253 9.41869700 7.50000000 0 0 0
363 1 1 0 35.61816541 9.40125497 7.50000000 0 0 0
364 1 1 0 36.34321719 10.62219718 7.50000000 0 0 0
365 1 1 0 37.76310996 10.60475515 7.50000000 0 0 0
366 1 1 0 38.45795136 9.36637090 7.50000000 0 0 0
367 1 1 0 39.87784423 9.34892887 7.50000000 0 0 0
368 1 1 0 40.60289601 10.56987108 7.50000000 0 0 0
369 1 1 0 42.02278879 10.55242905 7.50000000 0 0 0
370 1 1 0 42.71763018 9.31404480 7.50000000 0 0 0
371 1 1 0 44.13752306 9.29660277 7.50000000 0 0 0
372 1 1 0 44.86257484 10.51754498 7.50000000 0 0 0
373 1 1 0 46.28246761 10.50010295 7.50000000 0 0 0
374 1 1 0 46.97730900 9.26171870 7.50000000 0 0 0
375 1 1 0 48.39720188 9.24427667 7.50000000 0 0 0
376 1 1 0 49.12225366 10.46521888 7.50000000 0 0 0
377 1 1 0 50.54214643 10.44777684 7.50000000 0 0 0
378 1 1 0 51.23698783 9.20939260 7.50000000 0 0 0
379 1 1 0 52.65688070 9.19195057 7.50000000 0 0 0
380 1 1 0 53.38193248 10.41289278 7.50000000 0 0 0
381 1 1 0 54.80182526 10.39545074 7.50000000 0 0 0
382 1 1 0 55.49666665 9.15706650 7.50000000 0 0 0
383 1 1 0 56.91655953 9.13962447 7.50000000 0 0 0
384 1 1 0 57.64161131 10.36056667 7.50000000 0 0 0
385 1 1 0 59.06150408 10.34312464 7.50000000 0 0 0
386 1 1 0 59.75634548 9.10474040 7.50000000 0 0 0
387 1 1 0 61.17623835 9.08729836 7.50000000 0 0 0
388 1 1 0 61.90129013 10.30824057 7.50000000 0 0 0
389 1 1 0 63.32118291 10.29079854 7.50000000 0 0 0
390 1 1 0 64.01602430 9.05241430 7.50000000 0 0 0
391 1 1 0 65.43591718 9.03497226 7.50000000 0 0 0
392 1 1 0 66.16096896 10.25591447 7.50000000 0 0 0
393 1 1 0 67.58086173 10.23847244 7.50000000 0 0 0
394 1 1 0 68.27570312 9.00008819 7.50000000 0 0 0
395 1 1 0 69.69559600 8.98264616 7.50000000 0 0 0
396 1 1 0 70.42064778 10.20358837 7.50000000 0 0 0
397 1 1 0 71.84054055 10.18614634 7.50000000 0 0 0
398 1 1 0 72.53538195 8.94776209 7.50000000 0 0 0
399 1 1 0 73.95527482 8.93032006 7.50000000 0 0 0
400 1 1 0 74.68032660 10.15126227 7.50000000 0 0 0
401 1 1 0 76.10021938 10.13382024 7.50000000 0 0 0
402 1 1 0 76.79506077 8.89543599 7.50000000 0 0 0
403 1 1 0 78.21495365 8.87799396 7.50000000 0 0 0
404 1 1 0 78.94000543 10.09893617 7.50000000 0 0 0
405 1 1 0 80.35989820 10.08149414 7.50000000 0 0 0
406 1 1 0 81.05473960 8.84310989 7.50000000 0 0 0
407 1 1 0 82.47463247 8.82566786 7.50000000 0 0 0
408 1 1 0 83.19968425 10.04661007 7.50000000 0 0 0
409 1 1 0 84.61957703 10.02916804 7.50000000 0 0 0
410 1 1 0 85.31441842 8.79078379 7.50000000 0 0 0
411 1 1 0 86.73431130 8.77334176 7.50000000 0 0 0
412 1 1 0 87.45936308 9.99428397 7.50000000 0 0 0
413 1 1 0 88.87925585 9.97684193 7.50000000 0 0 0
414 1 1 0 89.57409724 8.73845769 7.50000000 0 0 0
415 1 1 0 90.99399012 8.72101566 7.50000000 0 0 0
416 1 1 0 91.71904190 9.94195786 7.50000000 0 0 0
417 1 1 0 93.13893467 9.92451583 7.50000000 0 0 0
418 1 1 0 93.83377607 8.68613159 7.50000000 0 0 0
419 1 1 0 95.25366894 8.66868955 7.50000000 0 0 0
420 1 1 0 95.97872072 9.88963176 7.50000000 0 0 0
421 1 1 0 97.39861350 9.87218973 7.50000000 0 0 0
422 1 1 0 98.09345489 8.63380549 7.50000000 0 0 0
423 1 1 0 99.51334777 8.61636345 7.50000000 0 0 0
424 1 1 0 0.15105243 12.29663227 7.50000000 0 0 0
425 1 1 0 1.57094530 12.27919023 7.50000000 0 0 0
426 1 1 0 2.29599708 13.50013244 7.50000000 0 0 0
427 1 1 0 3.71588986 13.48269041 7.50000000 0 0 0
428 1 1 0 4.41073125 12.24430617 7.50000000 0 0 0
429 1 1 0 5.83062413 12.22686413 7.50000000 0 0 0
430 1 1 0 6.55567591 13.44780634 7.50000000 0 0 0
431 1 1 0 7.97556868 13.43036431 7.50000000 0 0 0
432 1 1 0 8.67041007 12.19198006 7.50000000 0 0 0
433 1 1 0 10.09030295 12.17453803 7.50000000 0 0 0
434 1 1 0 10.81535473 13.39548024 7.50000000 0 0 0
435 1 1 0 12.23524750 13.37803821 7.50000000 0 0 0
436 1 1 0 12.93008890 12.13965396 7.50000000 0 0 0
437 1 1 0 14.34998177 12.12221193 7.50000000 0 0 0
438 1 1 0 15.07503355 13.34315414 7.50000000 0 0 0
439 1 1 0 16.49492633 13.32571211 7.50000000 0 0 0
440 1 1 0 17.18976772 12.08732786 7.50000000 0 0 0
441 1 1 0 18.60966060 12.06988583 7.50000000 0 0 0
442 1 1 0 19.33471238 13.29082804 7.50000000 0 0 0
443 1 1 0 20.75460515 13.27338601 7.50000000 0 0 0
444 1 1 0 21.44944655 12.03500176 7.50000000 0 0 0
445 1 1 0 22.86933942 12.01755973 7.50000000 0 0 0
446 1 1 0 23.59439120 13.23850194 7.50000000 0 0 0
447 1 1 0 25.01428398 13.22105991 7.50000000 0 0 0
448 1 1 0 25.70912537 11.98267566 7.50000000 0 0 0
449 1 1 0 27.12901825 11.96523363 7.50000000 0 0 0
450 1 1 0 27.85407003 13.18617584 7.50000000 0 0 0
451 1 1 0 29.27396280 13.16873380 7.50000000 0 0 0
452 1 1 0 29.96880419 11.93034956 7.50000000 0 0 0
453 1 1 0 31.38869707 11.91290753 7.50000000 0 0 0
454 1 1 0 32.11374885 13.13384973 7.50000000 0 0 0
455 1 1 0 33.53364162 13.11640770 7.50000000 0 0 0
456 1 1 0 34.22848302 11.87802346 7.50000000 0 0 0
457 1 1 0 35.64837589 11.86058142 7.50000000 0 0 0
458 1 1 0 36.37342767 13.08152363 7.50000000 0 0 0
459 1 1 0 37.79332045 13.06408160 7.50000000 0 0 0
460 1 1 0 38.48816184 11.82569736 7.50000000 0 0 0
461 1 1 0 39.90805472 11.80825532 7.50000000 0 0 0
462 1 1 0 40.63310650 13.02919753 7.50000000 0 0 0
463 1 1 0 42.05299927 13.01175550 7.50000000 0 0 0
464 1 1 0 42.74784067 11.77337126 7.50000000 0 0 0
465 1 1 0 44.16773354 11.75592922 7.50000000 0 0 0
466 1 1 0 44.89278532 12.97687143 7.50000000 0 0 0
467 1 1 0 46.31267810 12.95942940 7.50000000 0 0 0
468 1 1 0 47.00751949 11.72104515 7.50000000 0 0 0
469 1 1 0 48.42741237 11.70360312 7.50000000 0 0 0
470 1 1 0 49.15246415 12.92454533 7.50000000 0 0 0
471 1 1 0 50.57235692 12.90710330 7.50000000 0 0 0
472 1 1 0 51.26719831 11.66871905 7.50000000 0 0 0
473 1 1 0 52.68709119 11.65127702 7.50000000 0 0 0
474 1 1 0 53.41214297 12.87221923 7.50000000 0 0 0
475 1 1 0 54.83203574 12.85477720 7.50000000 0 0 0
476 1 1 0 55.52687714 11.61639295 7.50000000 0 0 0
477 1 1 0 56.94677001 11.59895092 7.50000000 0 0 0
478 1 1 0 57.67182179 12.81989313 7.50000000 0 0 0
479 1 1 0 59.09171457 12.80245110 7.50000000 0 0 0
480 1 1 0 59.78655596 11.56406685 7.50000000 0 0 0
481 1 1 0 61.20644884 11.54662482 7.50000000 0 0 0
482 1 1 0 61.93150062 12.76756703 7.50000000 0 0 0
483 1 1 0 63.35139339 12.75012499 7.50000000 0 0 0
484 1 1 0 64.04623479 11.51174075 7.50000000 0 0 0
485 1 1 0 65.46612766 11.49429872 7.50000000 0 0 0
486 1 1 0 66.19117944 12.71524093 7.50000000 0 0 0
487 1 1 0 67.61107222 12.69779889 7.50000000 0 0 0
488 1 1 0 68.30591361 11.45941465 7.50000000 0 0 0
489 1 1 0 69.72580648 11.44197262 7.50000000 0 0 0
490 1 1 0 70.45085826 12.66291482 7.50000000 0 0 0
491 1 1 0 71.87075104 12.64547279 7.50000000 0 0 0
492 1 1 0 72.56559243 11.40708855 7.50000000 0 0 0
493 1 1 0 73.98548531 11.38964651 7.50000000 0 0 0
494 1 1 0 74.71053709 12.61058872 7.50000000 0 0 0
495 1 1 0 76.13042986 12.59314669 7.50000000 0 0 0
496 1 1 0 76.82527126 11.35476245 7.50000000 0 0 0
497 1 1 0 78.24516413 11.33732041 7.50000000 0 0 0
498 1 1 0 78.97021591 12.55826262 7.50000000 0 0 0
499 1 1 0 80.39010869 12.54082059 7.50000000 0 0 0
500 1 1 0 81.08495008 11.30243634 7.50000000 0 0 0
501 1 1 0 82.50484296 11.28499431 7.50000000 0 0 0
502 1 1 0 83.22989474 12.50593652 7.50000000 0 0 0
503 1 1 0 84.64978751 12.48849449 7.50000000 0 0 0
504 1 1 0 85.34462891 11.25011024 7.50000000 0 0 0
505 1 1 0 86.76452178 11.23266821 7.50000000 0 0 0
506 1 1 0 87.48957356 12.45361042 7.50000000 0 0 0
507 1 1 0 88.90946634 12.43616839 7.50000000 0 0 0
508 1 1 0 89.60430773 11.19778414 7.50000000 0 0 0
509 1 1 0 91.02420060 11.18034211 7.50000000 0 0 0
510 1 1 0 91.74925238 12.40128432 7.50000000 0 0 0
511 1 1 0 93.16914516 12.38384229 7.50000000 0 0 0
512 1 1 0 93.86398655 11.14545804 7.50000000 0 0 0
513 1 1 0 95.28387943 11.12801601 7.50000000 0 0 0
514 1 1 0 96.00893121 12.34895822 7.50000000 0 0 0
515 1 1 0 97.42882398 12.33151619 7.50000000 0 0 0
516 1 1 0 98.12366538 11.09313194 7.50000000 0 0 0
517 1 1 0 99.54355825 11.07568991 7.50000000 0 0 0
518 1 1 0 0.18126291 14.75595872 7.50000000 0 0 0
519 1 1 0 1.60115579 14.73851669 7.50000000 0 0 0
520 1 1 0 2.32620757 15.95945890 7.50000000 0 0 0
521 1 1 0 3.74610034 15.94201687 7.50000000 0 0 0
522 1 1 0 4.44094174 14.70363262 7.50000000 0 0 0
523 1 1 0 5.86083461 14.68619059 7.50000000 0 0 0
524 1 1 0 6.58588639 15.90713280 7.50000000 0 0 0
525 1 1 0 8.00577917 15.88969076 7.50000000 0 0 0
526 1 1 0 8.70062056 14.65130652 7.50000000 0 0 0
527 1 1 0 10.12051343 14.63386449 7.50000000 0 0 0
528 1 1 0 10.84556521 15.85480669 7.50000000 0 0 0
529 1 1 0 12.26545799 15.83736466 7.50000000 0 0 0
530 1 1 0 12.96029938 14.59898042 7.50000000 0 0 0
531 1 1 0 14.38019226 14.58153838 7.50000000 0 0 0
532 1 1 0 15.10524404 15.80248059 7.50000000 0 0 0
533 1 1 0 16.52513681 15.78503856 7.50000000 0 0 0
534 1 1 0 17.21997821 14.54665432 7.50000000 0 0 0
535 1 1 0 18.63987108 14.52921228 7.50000000 0 0 0
536 1 1 0 19.36492286 15.75015449 7.50000000 0 0 0
537 1 1 0 20.78481564 15.73271246 7.50000000 0 0 0
538 1 1 0 21.47965703 14.49432821 7.50000000 0 0 0
539 1 1 0 22.89954991 14.47688618 7.50000000 0 0 0
540 1 1 0 23.62460169 15.69782839 7.50000000 0 0 0
541 1 1 0 25.04449446 15.68038636 7.50000000 0 0 0
542 1 1 0 25.73933586 14.44200211 7.50000000 0 0 0
543 1 1 0 27.15922873 14.42456008 7.50000000 0 0 0
544 1 1 0 27.88428051 15.64550229 7.50000000 0 0 0
545 1 1 0 29.30417329 15.62806026 7.50000000 0 0 0
546 1 1 0 29.99901468 14.38967601 7.50000000 0 0 0
547 1 1 0 31.41890755 14.37223398 7.50000000 0 0 0
548 1 1 0 32.14395933 15.59317619 7.50000000 0 0 0
549 1 1 0 33.56385211 15.57573416 7.50000000 0 0 0
550 1 1 0 34.25869350 14.33734991 7.50000000 0 0 0
551 1 1 0 35.67858638 14.31990788 7.50000000 0 0 0
552 1 1 0 36.40363816 15.54085009 7.50000000 0 0 0
553 1 1 0 37.82353093 15.52340806 7.50000000 0 0 0
554 1 1 0 38.51837233 14.28502381 7.50000000 0 0 0
555 1 1 0 39.93826520 14.26758178 7.50000000 0 0 0
556 1 1 0 40.66331698 15.48852399 7.50000000 0 0 0
557 1 1 0 42.08320976 15.47108195 7.50000000 0 0 0
558 1 1 0 42.77805115 14.23269771 7.50000000 0 0 0
559 1 1 0 44.19794403 14.21525568 7.50000000 0 0 0
560 1 1 0 44.92299581 15.43619788 7.50000000 0 0 0
561 1 1 0 46.34288858 15.41875585 7.50000000 0 0 0
562 1 1 0 47.03772998 14.18037161 7.50000000 0 0 0
563 1 1 0 48.45762285 14.16292957 7.50000000 0 0 0
564 1 1 0 49.18267463 15.38387178 7.50000000 0 0 0
565 1 1 0 50.60256741 15.36642975 7.50000000 0 0 0
566 1 1 0 51.29740880 14.12804551 7.50000000 0 0 0
567 1 1 0 52.71730167 14.11060347 7.50000000 0 0 0
568 1 1 0 53.44235345 15.33154568 7.50000000 0 0 0
569 1 1 0 54.86224623 15.31410365 7.50000000 0 0 0
570 1 1 0 55.55708762 14.07571941 7.50000000 0 0 0
571 1 1 0 56.97698050 14.05827737 7.50000000 0 0 0
572 1 1 0 57.70203228 15.27921958 7.50000000 0 0 0
573 1 1 0 59.12192505 15.26177755 7.50000000 0 0 0
574 1 1 0 59.81676645 14.02339330 7.50000000 0 0 0
575 1 1 0 61.23665932 14.00595127 7.50000000 0 0 0
576 1 1 0 61.96171110 15.22689348 7.50000000 0 0 0
577 1 1 0 63.38160388 15.20945145 7.50000000 0 0 0
578 1 1 0 64.07644527 13.97106720 7.50000000 0 0 0
579 1 1 0 65.49633815 13.95362517 7.50000000 0 0 0
580 1 1 0 66.22138993 15.17456738 7.50000000 0 0 0
581 1 1 0 67.64128270 15.15712535 7.50000000 0 0 0
582 1 1 0 68.33612410 13.91874110 7.50000000 0 0 0
583 1 1 0 69.75601697 13.90129907 7.50000000 0 0 0
584 1 1 0 70.48106875 15.12224128 7.50000000 0 0 0
585 1 1 0 71.90096152 15.10479925 7.50000000 0 0 0
586 1 1 0 72.59580292 13.86641500 7.50000000 0 0 0
587 1 1 0 74.01569579 13.84897297 7.50000000 0 0 0
588 1 1 0 74.74074757 15.06991518 7.50000000 0 0 0
589 1 1 0 76.16064035 15.05247314 7.50000000 0 0 0
590 1 1 0 76.85548174 13.81408890 7.50000000 0 0 0
591 1 1 0 78.27537462 13.79664687 7.50000000 0 0 0
592 1 1 0 79.00042640 15.01758908 7.50000000 0 0 0
593 1 1 0 80.42031917 15.00014704 7.50000000 0 0 0
594 1 1 0 81.11516057 13.76176280 7.50000000 0 0 0
595 1 1 0 82.53505344 13.74432076 7.50000000 0 0 0
596 1 1 0 83.26010522 14.96526297 7.50000000 0 0 0