ITEM: TIMESTEP
75
ITEM: NUMBER OF ATOMS
1736
ITEM: BOX BOUNDS pp pp pp
0.0000000000000000e+00 3.6179139200000002e+01
0.0000000000000000e+00 6.2664107199999997e+01
0.0000000000000000e+00 1.5000000000000000e+01
ITEM: ATOMS id type x y z c_csym c_2[1] c_2[2] c_2[3] c_2[4] c_2[5] c_2[6] c_3 
53 1 0.354354 9.8171 3.00632 6.01282 -134922 -160869 37389 -5660.04 32796.6 2233.59 -7.41785 
54 1 1.01905 8.56466 2.99797 6.02421 -169632 -130435 -29131.9 -11582.2 -1020.84 -6798.44 -7.4129 
55 1 0.267585 7.36241 2.99165 6.01534 -133174 -155624 32519.9 -17541.5 20076.2 -4442.43 -7.41689 
56 1 0.932483 6.10996 2.98437 6.02162 -179789 -133737 -11993 -27418.9 3938.08 -3455.71 -7.41333 
57 1 0.180986 4.90789 2.97595 6.01184 -140788 -157179 18009.8 -27759.1 38094.6 -8625.1 -7.41532 
58 1 0.845231 3.65509 2.96645 6.0069 -177853 -133367 -3631.67 -22537.4 27476.4 -5737.67 -7.41346 
59 1 0.0921892 2.45391 2.9561 6.01517 -146067 -157894 -5645.08 -12940 38322.8 -3078.04 -7.41344 
60 1 0.754727 1.20031 2.94953 6.0165 -160708 -143249 -14288.6 -4019.62 19428.5 -12093.2 -7.41289 
61 1 8.83387e-06 -1.2779e-06 2.94585 6.02994 -151384 -151416 -18899 12.356 0.0916011 0.801982 -7.41266 
105 1 3.18658 9.71663 3.00631 6.01262 -189861 -98616.6 -25247.8 -19967.3 9033.62 -13596.5 -7.41362 
106 1 2.43606 8.51381 2.99878 6.01084 -159007 -131406 23441.5 -12479.7 18774 13361 -7.4166 
107 1 3.09997 7.26065 2.99267 6.01811 -189801 -110146 -7240.73 -25292.5 -8278.51 -12557.3 -7.41405 
108 1 2.34938 6.05795 2.98617 6.01267 -165489 -130995 15999.2 -19385.4 21955.6 239.041 -7.41555 
109 1 3.01317 4.80469 2.9809 6.01539 -194895 -109788 9122.48 -23590.4 4373.37 -19881.3 -7.41464 
110 1 2.26203 3.6023 2.97057 6.00533 -171446 -136185 1117.19 -7310.11 37150.3 -14404.7 -7.41407 
111 1 2.92473 2.34862 2.96653 6.01095 -181173 -121785 7071.71 -2440.3 18546.6 -36068.9 -7.4143 
112 1 2.17153 1.14732 2.95607 6.00681 -159822 -147536 -9445.12 14330.9 18423.8 -25802.7 -7.41312 
156 1 4.60349 9.66559 3.00733 6.00154 -184705 -106662 2984.21 -24459.2 29686.4 15467.5 -7.41582 
157 1 5.26715 8.41209 3.00114 6.01014 -193651 -95258.6 248.936 -34507.8 -89.5327 -25966 -7.41519 
158 1 4.51685 7.20924 2.99458 6.0156 -173146 -121257 -3112.4 -17450.9 6958.22 9737.9 -7.41467 
159 1 5.18069 5.95592 2.99243 6.01393 -184406 -107917 19666.1 -27214.9 -7619.19 -20983.1 -7.41598 
160 1 4.42993 4.75327 2.98572 6.01586 -179488 -129235 -8584.09 -3319.18 11679.6 -471.374 -7.41379 
161 1 5.09332 3.49986 2.98465 6.01312 -179131 -113581 26916.6 -3980.4 4333.45 -27424.2 -7.41617 
162 1 4.34145 2.29766 2.97571 6.01245 -174984 -140130 -7380.82 26238.5 12328.1 -15312.9 -7.4134 
163 1 5.00425 1.04423 2.97734 6.00912 -162826 -137756 13161.4 20475.8 10484.5 -35602.9 -7.41508 
207 1 7.43283 9.56419 3.0172 5.99741 -215828 -73655.8 13286.7 -49263 13305.4 -53511.3 -7.41686 
208 1 6.68404 8.36047 3.00572 6.00614 -180123 -109091 -25619.3 -23529 13897.5 -5939.47 -7.41407 
209 1 7.34835 7.10735 3.00494 6.01324 -181542 -112197 26316.6 -34543.1 4500.75 -38582.9 -7.41715 
210 1 6.59758 5.90479 2.99726 6.02185 -164429 -133349 -27780.3 -8293.2 -1232 -1497.72 -7.41318 
211 1 7.26203 4.65194 2.99815 6.01595 -163729 -126333 35091.4 -14198.9 6042.68 -21794 -7.41735 
212 1 6.51014 3.44985 2.99111 6.02355 -164981 -144019 -22623.6 19267.8 -3193.39 411.176 -7.41297 
213 1 7.17407 2.19694 2.99208 6.01445 -155994 -134163 26539.1 14736.9 12654.9 -13713 -7.41651 
214 1 6.42107 0.995227 2.98593 6.02038 -158903 -149011 -3484.08 46506.6 -10878.3 -3924.79 -7.41395 
258 1 8.84964 9.51319 3.02733 5.98496 -204828 -84387.2 -42533.2 -23176.1 26984 -27470.6 -7.41405 
260 1 8.7653 7.05663 3.01424 6.00466 -162509 -124533 -44138.8 -4747.51 8634.83 -24407.5 -7.41329 
262 1 8.67899 4.60191 3.00561 6.01808 -145104 -147327 -38181.4 13358.7 -1596.13 -12709.1 -7.41286 
264 1 8.59098 2.14794 2.99834 6.02018 -145750 -150723 -21758.2 38797.9 -10113.1 -2826.19 -7.41338 
874 2 0.397694 8.61506 6.40185 6.01595 -123313 -166740 35091.5 9047.09 21895.7 5663.59 -7.41735 
875 2 0.484316 6.16086 6.41535 6.0131 -126353 -166221 26916.8 26335.3 25916.7 9958.89 -7.41617 
876 2 0.571612 3.70719 6.43347 6.01096 -134348 -168448 7072 24397.1 40510.1 1973.33 -7.4143 
877 2 0.662147 1.25376 6.45047 6.01651 -144115 -159793 -14288.3 5513.67 20188.2 -10778.3 -7.41289 
878 2 8.0035e-06 -3.43872e-06 6.45415 6.02993 -151363 -151414 -18898.8 -12.9145 0.249552 0.461774 -7.41266 
921 2 2.48098 9.91753 6.39506 6.01325 -99520.9 -194111 26316.8 12707.3 35663.9 15393.5 -7.41715 
922 2 1.81492 8.66606 6.40274 6.02185 -133903 -163800 -27780.7 9430.54 680.808 1815.69 -7.41317 
923 2 2.56764 7.46456 6.40757 6.01394 -103459 -188911 19666.2 19493.9 14362.1 17090 -7.41598 
924 2 1.9015 6.21306 6.41428 6.01584 -138845 -169738 -8584.5 20188.8 6247.76 -9879.15 -7.41379 
925 2 2.65441 5.01182 6.4191 6.01538 -110644 -194014 9123.02 25000.3 19404.7 6153.11 -7.41464 
926 2 1.98868 3.76011 6.42943 6.00536 -138604 -168853 1116.53 11668.7 31049.4 -24971.2 -7.41407 
927 2 2.7428 2.55953 6.43355 6.00694 -124929 -186262 -3632.37 7922.97 18707.9 -20925.9 -7.41346 
928 2 2.07907 1.30679 6.4439 6.01515 -143729 -160280 -5645.12 -11635.8 21827.2 -31649.3 -7.41344 
929 2 2.83376 0.106362 6.44101 6.00629 -151449 -154938 -5875.28 -8231.02 -3922.83 -40581.5 -7.41344 
972 2 3.89837 9.96877 6.39428 6.00617 -106448 -182665 -25619.6 18998.7 12092.7 -9065.96 -7.41407 
973 2 4.65152 8.76752 6.39886 6.01012 -89995.8 -198919 248.975 25347.7 22443 13060.4 -7.41519 
974 2 3.98497 7.51632 6.40542 6.0156 -119135 -175362 -3112.8 13761 -4954.09 -10894.5 -7.41467 
975 2 4.73793 6.31497 6.40733 6.01811 -108123 -191836 -7240.55 21898.3 6735.56 13448.2 -7.41405 
976 2 4.07166 5.06359 6.41383 6.01265 -122866 -173608 15998.6 5226.12 10771.2 -19133.8 -7.41555 
977 2 4.82515 3.86253 6.41562 6.02162 -121534 -191963 -11993.2 6233.66 4962.37 -1682.67 -7.41333 
978 2 4.15988 2.61068 6.42405 6.01186 -129026 -169000 18007.7 -21029.4 26517.5 -28679.4 -7.41532 
979 2 4.91414 1.40987 6.4229 6.01099 -139460 -173196 -5424.86 -17636 -1810.36 -25318.8 -7.4137 
980 2 4.25062 0.157066 6.42944 6.01046 -151035 -155945 5219.83 -40123.4 10031 -27706.9 -7.41411 
1023 2 6.73719 10.0698 6.38142 5.9962 -62722.9 -221433 -16180.4 46613 36348.3 -2824.61 -7.41482 
1024 2 6.06891 8.81953 6.39267 6.00154 -104974 -186381 2983.46 21581.3 1447.74 -33443.3 -7.41582 
1025 2 6.82157 7.61797 6.39369 6.01262 -104124 -184349 -25247.5 29587.1 16291.2 -1025.23 -7.41362 
1026 2 6.15516 6.36659 6.40122 6.0108 -127401 -162872 23442 5625.87 -2184.08 -22939.2 -7.4166 
1027 2 6.9077 5.16484 6.40203 6.02422 -130237 -169723 -29132 11216.7 5377.44 4283.15 -7.4129 
1028 2 6.24225 3.91293 6.40835 6.01531 -134777 -153979 32519.8 -18541.7 13885.1 -15165.9 -7.41689 
1029 2 6.99549 2.71143 6.40883 6.02183 -142926 -163913 -21193.1 -14291.1 -1622.45 236.726 -7.41316 
1030 2 6.3311 1.45902 6.41404 6.01329 -144119 -151622 20822.2 -45043.6 20921.8 -9884.51 -7.41572 
1031 2 7.08475 0.257611 6.41137 6.01576 -150338 -149823 2050.3 -28928.1 -10133.6 -8158.38 -7.41468 
1074 2 8.1548 10.1214 6.36921 5.97864 -74266.8 -221147 23071.9 31853 11155.3 -67867.5 -7.41793 
1075 2 8.90701 8.91962 6.37023 5.99364 -78167.2 -206831 -40757.4 36922.3 27605.4 -19721.2 -7.41369 
1076 2 8.23879 7.66933 6.38274 5.99786 -123666 -176079 32623.1 7111.05 8268.6 -50663.4 -7.41794 
1077 2 8.99063 6.46711 6.38378 6.00427 -119935 -166533 -43306.1 15793.2 19266 -15615.4 -7.41312 
1078 2 8.32469 5.21542 6.39368 6.01284 -149489 -146347 37388.5 -14068.1 14463.6 -29519.5 -7.41785 
1080 2 8.41238 2.76075 6.40222 6.01525 -154356 -136402 28661.6 -38689.5 23051.9 -11660.1 -7.41691 
1082 2 8.50162 0.306185 6.40538 6.01462 -151209 -142137 4527.35 -51829.7 20546.6 -1957.63 -7.41504 
259 1 9.51446 8.2602 3.02733 6.00351 -205792 -98574.5 43573.8 -30745.8 15064 -66963.2 -7.41929 
261 1 9.43051 5.80416 3.01606 6.00882 -172990 -131342 42161.2 -13824.2 21069.2 -44567 -7.41859 
263 1 9.34401 3.34954 3.00671 6.00812 -152075 -142577 31766.9 9911.74 27134.1 -20843.6 -7.41748 
265 1 9.25521 0.895306 2.9992 6.0099 -147493 -143556 7978.99 31367.6 21007.9 -6126.46 -7.41566 
309 1 11.6779 9.41717 3.05617 5.99071 -227444 -75582.6 85180 -15589.7 6951.84 -72763.3 -7.42319 
310 1 10.9313 8.21186 3.04083 5.98829 -187383 -100362 -66739.4 13283.2 18431 -30683.3 -7.41322 
311 1 11.5968 6.95941 3.04308 6.00362 -205432 -109602 69601.3 5054.24 21712.2 -64207.4 -7.42151 
312 1 10.8474 5.75571 3.02843 5.99509 -153524 -131099 -54157.5 29435.1 9795.96 -31852.5 -7.41322 
313 1 11.513 4.50356 3.0302 5.9959 -173994 -134138 48489.5 25069.1 41138.2 -47634.3 -7.41947 
314 1 10.761 3.30128 3.01664 6.00269 -137540 -148231 -36982.4 48546.2 1440.93 -25302.2 -7.41341 
315 1 11.4257 2.04893 3.01737 5.99183 -152047 -143522 18923.1 49803.5 42609.2 -31212.4 -7.41715 
316 1 10.6721 0.847361 3.00721 6.0068 -142017 -144448 -14773.1 66126.7 -14595.6 -19703.3 -7.41444 
360 1 13.0947 9.37203 3.06675 5.99806 -207557 -83984.3 -114848 22889.5 14638.3 -1920.69 -7.41122 
361 1 13.7608 8.11964 3.06953 6.00086 -217090 -83777 123397 22289.5 4421.98 -51609.3 -7.42603 
362 1 13.0136 6.91432 3.05613 5.99744 -184585 -103587 -89758.3 51718.9 7012.27 -19749.9 -7.41232 
363 1 13.6797 5.6622 3.05868 5.99261 -200676 -105774 87570.4 47725.9 33447.8 -52709.4 -7.42329 
364 1 12.9298 4.45826 3.04383 5.99243 -157301 -130210 -57336 75099.3 5436.61 -32662.4 -7.41332 
365 1 13.5952 3.20615 3.04494 5.97401 -170308 -127607 47646.8 80722.7 59496.2 -49086.2 -7.42002 
366 1 12.8426 2.00365 3.03039 5.99242 -141723 -143122 -29514.7 100616 -5561.69 -35868.2 -7.4143 
367 1 13.5066 0.751097 3.03265 5.97418 -150670 -141408 4994.24 105377 44937.9 -45172.6 -7.41692 
411 1 15.9245 9.28246 3.08407 6.00483 -180644 -88576.8 178491 16973.6 -5526.09 -19583.2 -7.43005 
412 1 15.1776 8.07682 3.07589 6.01559 -192775 -94617.3 -150526 50106 -9588.74 8683.59 -7.40927 
413 1 15.8448 6.82512 3.07908 5.9986 -190494 -92474.5 141064 53721.5 12641.8 -27925.7 -7.42767 
414 1 15.0963 5.62002 3.06871 6.01104 -181049 -113109 -98333.6 86850.6 -10567.4 -12589.5 -7.4117 
415 1 15.7629 4.36839 3.06975 5.97205 -177870 -108520 87399.4 96395.3 53376 -33596.3 -7.42393 
416 1 15.012 3.16452 3.05732 5.99105 -157589 -135896 -49594.7 128164 -6995.31 -26182.2 -7.41372 
417 1 15.6768 1.91244 3.05745 5.9586 -158376 -128631 35275.6 143295 68299.6 -39970 -7.41968 
418 1 14.9235 0.709778 3.04665 5.97602 -145133 -141296 -13163.7 156732 -26876.3 -32218.2 -7.41564 
462 1 17.3416 9.23903 3.08269 6.01925 -155736 -121308 -201687 24827.6 -14973.5 8476.43 -7.40633 
463 1 18.0107 7.9885 3.08577 6.00125 -141865 -121364 180065 42777.2 8836.85 -3548.37 -7.43027 
464 1 17.2615 6.78375 3.08046 6.00844 -166038 -125599 -150200 68303.7 -28974.8 3204.83 -7.40908 
465 1 17.9301 5.53311 3.08058 5.98122 -153092 -119822 127302 85746.8 39609.8 -421.434 -7.42702 
466 1 17.1797 4.32879 3.07386 5.99355 -161966 -139659 -82701.6 118656 -16477.5 -1642.56 -7.41232 
467 1 17.8463 3.07748 3.07071 5.95913 -153552 -124221 65242.8 143109 70152.7 -4493.67 -7.42246 
468 1 17.0938 1.87413 3.06414 5.97673 -150412 -146027 -31005.6 171946 -20095 -3295.22 -7.41481 
469 1 17.7579 0.621971 3.06268 5.9612 -149409 -137424 13018.9 185366 57530.2 -15088.2 -7.41801 
1079 2 9.07688 4.01326 6.39522 6.01921 -143740 -148317 -38171.3 -8015.38 10911.3 -6625.29 -7.41297 
1081 2 9.16549 1.55898 6.40197 6.01632 -149739 -143823 -19899.9 -30189 -3652.11 -2241.6 -7.41384 
1125 2 10.9956 10.2175 6.3424 5.9986 -50780 -241489 -67183.1 31149 23669.4 -10941.8 -7.41301 
1126 2 10.3245 8.96904 6.35513 5.98589 -94514.6 -211670 60924 -952.559 21364.3 -67441.8 -7.42088 
1127 2 11.076 7.76646 6.35697 5.99306 -87258.7 -198823 -65904 7551.44 22167 -23330.8 -7.41309 
1128 2 10.4077 6.51628 6.37062 6.00439 -139147 -172630 52595.3 -22483.7 31858.9 -52469.4 -7.41978 
1129 2 11.1595 5.31377 6.37279 5.99446 -121173 -164082 -54643.3 -13311.7 21417.2 -27030.4 -7.4133 
1130 2 10.4937 4.06201 6.38502 6.00931 -158837 -142855 37107.5 -43448.2 37436.2 -37559.4 -7.41829 
1131 2 11.2463 2.85985 6.38573 5.99955 -141334 -146219 -38508.3 -40621.2 10722.8 -24432.5 -7.41374 
1132 2 10.5823 1.60712 6.3939 6.0076 -155350 -134842 12770.9 -63741.6 31692.9 -24357.4 -7.41634 
1133 2 11.3359 0.405439 6.3898 5.99691 -146672 -143170 -14153.1 -58745.2 -17141.7 -23431.4 -7.41501 
1176 2 12.4135 10.2644 6.32939 5.98781 -65575.7 -227615 106664 -8465.14 18180.2 -47893.2 -7.42515 
1177 2 13.1643 9.06112 6.3319 6.01181 -66193.9 -224223 -113949 -6466.87 8776.38 1013.8 -7.41113 
1178 2 12.4934 7.81266 6.3422 6.00422 -105245 -206180 93483.4 -36673.3 41399.4 -45743.8 -7.42364 
1179 2 13.245 6.60984 6.34487 5.99373 -91780.4 -197212 -90191.9 -26927.9 9238.76 -21739.8 -7.41238 
1180 2 12.5765 5.35981 6.35799 6.00122 -137711 -172878 65233.5 -58497.6 54375.6 -48475.5 -7.42129 
1181 2 13.3288 4.1573 6.35928 5.98277 -121302 -169578 -58770.8 -57410.3 13907.3 -37182.2 -7.41358 
1182 2 12.6632 2.90558 6.37197 5.99477 -150714 -144609 32170.9 -87070.6 52681.1 -46309.5 -7.41858 
1183 2 13.4165 1.70346 6.36919 5.97688 -139912 -151525 -30287.6 -94379.9 -5153.8 -42693.7 -7.41481 
1184 2 12.7528 0.450787 6.37697 5.98966 -145627 -139363 -1102.89 -107853 31500.1 -39154.5 -7.41602 
1227 2 15.2537 10.3538 6.31921 6.01594 -83722.6 -201049 -173956 -3748.85 3151.95 23839.2 -7.40789 
1228 2 14.582 9.1056 6.3212 6.00272 -85198.4 -199981 151800 -34395.8 28965.7 -16629 -7.4282 
1229 2 15.3329 7.9021 6.32453 6.00906 -91026.2 -196555 -150992 -33762.5 -14434.1 3399.02 -7.4093 
1230 2 14.6623 6.65318 6.33106 5.99291 -111243 -185899 119297 -63137.3 50074.4 -30029.7 -7.42579 
1231 2 15.414 5.45007 6.33335 5.99137 -114041 -182588 -99616.9 -66214.9 -6717.46 -21754.9 -7.41186 
1232 2 14.7458 4.19977 6.34379 5.98067 -135041 -157850 71444.6 -99770.5 65069.5 -42452.9 -7.42235 
1233 2 15.4984 2.99697 6.34398 5.97441 -134378 -164878 -50423.9 -116650 -1297.04 -37697.9 -7.41406 
1234 2 14.8334 1.74512 6.35388 5.97418 -144144 -140282 25343.6 -142675 57212.6 -40433.2 -7.4186 
1235 2 15.5871 0.542703 6.34902 5.96426 -146384 -147494 -10586.7 -155250 -33675.2 -42993.6 -7.41626 
1278 2 16.6714 10.399 6.31345 6.00731 -102042 -157239 192419 -7168.41 6922.6 -2272.44 -7.43106 
1279 2 17.4204 9.19452 6.31735 6.01842 -124827 -152144 -201775 -22993.7 -16785.9 6178.1 -7.40633 
1280 2 16.7502 7.94498 6.31616 5.99748 -115017 -153739 173355 -47124.6 22154.9 -5711.16 -7.42971 
1281 2 17.5004 6.74089 6.31993 6.00419 -138463 -153427 -150680 -62236.3 -29320.1 -3427.92 -7.40911 
1282 2 16.8311 5.49092 6.32282 5.98066 -133453 -143770 122143 -87448.8 48888.3 -17707.4 -7.42648 
1283 2 17.5822 4.28712 6.32673 5.98858 -146990 -155952 -83105.5 -113254 -14170.1 -12669 -7.41239 
1284 2 16.9154 3.03606 6.33306 5.96289 -144657 -134332 61607.5 -142968 69901.7 -19135.2 -7.42205 
1285 2 17.6682 1.83292 6.33549 5.97234 -147223 -151631 -30798.5 -170039 -19679.1 -18104.8 -7.41495 
1286 2 17.0041 0.580788 6.33969 5.96598 -146918 -138169 11142.6 -184916 53846.5 -8940.51 -7.41775 
461 1 18.0896 10.444 3.0872 6.01074 -127595 -127554 199122 21.1267 0.107893 0.46641 -7.43152 
512 1 19.5071 10.3988 3.08269 6.01927 -108409 -168648 -201687 2485.86 146.376 -17206.3 -7.40633 
513 1 20.178 9.14982 3.08407 6.00484 -97009.9 -172320 178490 31486.3 19722.7 5005.41 -7.43005 
514 1 19.4278 7.94586 3.08045 6.01125 -115836 -168884 -174473 40103 -25175.7 -4267.24 -7.40791 
515 1 20.0981 6.69654 3.07804 5.98998 -116548 -164214 142741 66060.3 40599 18069.3 -7.42764 
516 1 19.3471 5.49288 3.07495 5.99536 -132596 -166171 -112769 80040.6 -18828 12767.2 -7.41107 
517 1 20.0154 4.24257 3.06805 5.97284 -136172 -146191 86010.5 111158 64349.5 29442.2 -7.42381 
518 1 19.2632 3.0393 3.06591 5.97818 -142588 -159717 -53620.1 136966 -8661.06 24663.3 -7.41383 
519 1 19.9285 1.78761 3.05836 5.96538 -144773 -136872 32270.7 163202 64290.7 25256.6 -7.41945 
520 1 19.1749 0.584876 3.06011 5.9665 -147485 -146267 -9354.59 179076 -37121.8 28410.9 -7.41634 
563 1 22.346 10.3094 3.07908 5.99862 -70677.5 -212341 141064 15770.8 17864.2 24910.8 -7.42767 
564 1 21.5956 9.10575 3.07589 6.01559 -75647.6 -211779 -150527 17210.9 -2726.43 -12646 -7.40927 
565 1 22.2669 7.85741 3.06953 6.00088 -97920 -202912 123399 46857.6 42483.6 29633.1 -7.42603 
566 1 21.5154 6.65433 3.06675 5.99807 -94940.7 -196677 -114849 41711.5 -5656.44 13637.4 -7.41122 
567 1 22.1847 5.40473 3.05617 5.99071 -127159 -175793 85180.5 73847.3 59538.4 42402.4 -7.42319 
568 1 21.4325 4.20197 3.05494 5.98043 -121572 -174928 -68501.1 79659.2 4930.24 35039.3 -7.41327 
569 1 22.0987 2.95068 3.04297 5.98289 -143631 -147332 41934.3 111436 61595.1 46701.8 -7.4198 
570 1 21.3455 1.74828 3.04558 5.9692 -139886 -155572 -30361.7 126079 -10249.2 44670.6 -7.41503 
571 1 22.0093 0.495835 3.03765 5.97805 -144505 -139750 2757.37 140322 39104.4 40066.2 -7.41665 
614 1 23.7639 10.2638 3.06871 6.01107 -54835.9 -239326 -98334.1 -14174.5 16187 -2856.83 -7.4117 
615 1 24.4357 9.01582 3.05868 5.99263 -88234.5 -218143 87571.7 17455.3 28922.7 55321.6 -7.42329 
616 1 23.6844 7.81294 3.05613 5.99744 -78843.3 -209286 -89759.1 8931.9 13596.7 15947.4 -7.41232 
617 1 24.3537 6.56345 3.04308 6.00362 -129362 -185763 69601.7 39142.2 44749.2 50907.1 -7.42152 
618 1 23.6018 5.36086 3.04083 5.98827 -110464 -177320 -66739.6 30787.7 17356.1 31303.6 -7.41322 
619 1 24.2684 4.10966 3.02732 6.0035 -152022 -152306 43573.6 61917.4 50459.4 46527.3 -7.4193 
620 1 23.5157 2.90741 3.02733 5.98496 -134487 -154722 -42533.1 63615.6 10297.7 37104.5 -7.41405 
621 1 24.1799 1.65492 3.0172 5.99741 -151864 -137502 13286.3 86292.7 39689.1 38277.7 -7.41686 
622 1 23.4262 0.453086 3.02282 5.98161 -145614 -145119 -14955.4 87962 -22012.8 38738.4 -7.41547 
665 1 26.6049 10.1707 3.04494 5.97399 -68524.7 -229443 47646.7 -21749.4 12762.5 76068.5 -7.42003 
666 1 25.8533 8.96841 3.04383 5.99243 -71807.3 -215538 -57335.9 -25934.6 25567.4 21039.8 -7.41333 
667 1 26.5224 7.71876 3.0302 5.99593 -122314 -185640 48488.7 4800.82 20681.5 59444.4 -7.41947 
668 1 25.7708 6.51628 3.02842 5.99512 -111184 -173477 -54158.4 -5141.4 22687 24410.2 -7.41323 
669 1 26.4373 5.26497 3.01606 6.00881 -153691 -150554 42160.7 25012.1 28061.3 40529.9 -7.41859 
670 1 25.6853 4.06265 3.01424 6.00468 -138009 -149008 -44139.4 18738.1 16819.8 19681.4 -7.41329 
671 1 26.3498 2.81018 3.00494 6.01324 -159525 -134358 26315.8 47350.9 31163.9 23188.9 -7.41715 
672 1 25.5967 1.60831 3.00572 6.00612 -147220 -142042 -25619.8 42468.7 -1805.64 15006.2 -7.41407 
673 1 26.2605 0.355432 3.00114 6.01013 -149751 -139169 247.785 59820.3 22532 12906.2 -7.41519 
1330 2 18.8377 9.23833 6.31345 6.00731 -149672 -109603 192419 -20393.6 -1492.99 7130.79 -7.43106 
1331 2 19.5857 8.03318 6.31921 6.01593 -174953 -109704 -173957 -48828.2 -22221.2 -9189.24 -7.40789 
1332 2 18.9174 6.7822 6.31658 5.99513 -163176 -107808 154624 -60394.3 16831.7 9933.69 -7.42873 
1333 2 19.6665 5.57734 6.32393 6.00576 -174014 -123289 -111841 -92181.1 -21134.5 3534.74 -7.41098 
1334 2 18.9991 4.32619 6.32452 5.96905 -162827 -114466 94614.7 -109735 56144.4 12569.6 -7.42475 
1335 2 19.7503 3.12224 6.33348 5.98764 -158135 -140623 -53229.7 -144060 -12522.6 11603.5 -7.41363 
1336 2 19.0852 1.87037 6.33528 5.95563 -154141 -128500 37837.8 -164161 70562.3 21646 -7.42009 
1337 2 19.8386 0.667463 6.34243 5.9708 -146988 -142183 -11054.3 -179835 -33237.6 15836.9 -7.41597 
1381 2 21.6693 9.32758 6.32453 6.00905 -199543 -88003.5 -150993 -28571.5 4272.67 -14199.9 -7.4093 
1382 2 21.0025 8.07554 6.3212 6.00269 -200888 -84228.4 151801 -32715.8 -81.3032 33398.8 -7.4282 
1383 2 21.7498 6.87005 6.3319 6.01177 -190499 -99974.6 -113949 -64948.9 -5267.61 7093.34 -7.41113 
1384 2 21.0832 5.6182 6.32939 5.98777 -194197 -98903 106665 -66222.3 32386.8 39689.7 -7.42515 
1385 2 21.8328 4.41376 6.3424 5.9986 -166937 -125447 -67182.1 -98101.6 -2359.03 25969.1 -7.41301 
1386 2 21.1671 3.16183 6.34177 5.96494 -170160 -120169 57035.2 -109263 65401.7 43637.1 -7.42127 
1387 2 21.9195 1.95884 6.35532 5.98559 -146923 -140977 -30354.4 -132348 -10478.6 34096 -7.41452 
1388 2 21.2555 0.706399 6.35322 5.96516 -151629 -139287 9400.21 -140400 52437.7 46295.6 -7.41755 
1432 2 23.0862 9.37129 6.33106 5.99289 -221726 -75384.5 119297 -1066.87 969.444 58380.2 -7.42579 
1433 2 23.8324 8.16557 6.34487 5.99371 -194398 -94634.6 -90192.3 -31895.8 14207 18870.5 -7.41238 
1434 2 23.1665 6.91322 6.3422 6.00419 -212555 -98877.7 93484.3 -25659.1 18915.3 58724.6 -7.42364 
1435 2 23.9152 5.70883 6.35697 5.99307 -164448 -121647 -65904 -51959.6 9121.65 30862.3 -7.41309 
1436 2 23.2495 4.45674 6.35513 5.9859 -183166 -123157 60924.2 -50403.7 47724.2 52223.5 -7.42089 
1437 2 24.001 3.25388 6.37023 5.99364 -142710 -142350 -40757.2 -74107.5 3276.33 33768.5 -7.41369 
1438 2 23.3363 2.00154 6.36921 5.97863 -156731 -138637 23071.5 -79569 53198.4 43595 -7.41792 
1439 2 24.0899 0.799684 6.38142 5.99622 -141456 -142843 -16180.5 -92037 -15729 32890.7 -7.41482 
1483 2 25.9144 9.46441 6.35928 5.98274 -207312 -83552.9 -58770.4 8020.75 25247.4 30635.3 -7.41358 
1484 2 25.2492 8.21165 6.35799 6.00124 -214664 -96003.9 65234.1 13790 14792.3 71329 -7.42129 
1485 2 25.9976 7.00749 6.37279 5.99446 -164970 -120373 -54644 -11829.4 12700.3 32063.1 -7.4133 
1486 2 25.332 5.75519 6.37062 6.00442 -183659 -128215 52594.3 -3410.07 29510.3 53825.3 -7.41978 
1487 2 26.0832 4.55255 6.38378 6.00428 -141245 -145241 -43306.1 -27963.9 3890.11 24492.7 -7.41311 
1488 2 25.4179 3.30033 6.38274 5.99785 -156758 -142961 32622.7 -26293.3 39741.8 32492.6 -7.41794 
1489 2 26.171 2.09866 6.39369 6.01264 -138742 -149752 -25247.2 -49473.5 -7258.27 14621.5 -7.41362 
1490 2 25.5068 0.846061 6.39267 6.00157 -147373 -143947 2982.86 -46084.5 28237.9 17975.6 -7.41582 
716 1 28.0226 10.1202 3.03038 5.99245 -55669.9 -229219 -29515.1 -50896.8 33844.3 13117.4 -7.4143 
717 1 28.6919 8.87049 3.01737 5.99184 -102473 -192987 18923.1 -21145.9 5725.8 52506.7 -7.41715 
718 1 27.9397 7.66861 3.01664 6.00272 -103328 -182210 -36982 -28943.9 21190.2 13899.1 -7.41341 
719 1 28.6064 6.41737 3.00671 6.00816 -136398 -158215 31766.7 -779.07 4483.66 33920.5 -7.41748 
720 1 27.8543 5.21527 3.00561 6.01808 -135083 -157326 -38182.1 -7675.73 11804 4971.64 -7.41286 
721 1 28.5194 3.96312 2.99815 6.01596 -148002 -142094 35090.9 23392 15852.9 16129.9 -7.41735 
722 1 27.7667 2.76126 2.99726 6.02183 -148267 -149466 -27780.6 17549.1 1912.82 -317.756 -7.41318 
723 1 28.4308 1.50864 2.99243 6.01393 -150576 -141672 19665.7 46764.1 21981.2 3892.9 -7.41598 
724 1 27.6773 0.307083 2.99458 6.01558 -149321 -145048 -3111.82 31162.6 -11912.9 1157.3 -7.41467 
767 1 30.8623 10.0199 3.0102 5.9969 -93127.1 -196538 -14152.1 -27835.8 11721.5 26562.2 -7.41501 
768 1 30.1093 8.81863 3.00721 6.00679 -86463.8 -199867 -14772.7 -34149 24361.2 -2788.03 -7.41444 
769 1 30.7762 7.56759 2.9992 6.00988 -117397 -173641 7979.2 -13964.5 -5198.28 21257.3 -7.41567 
770 1 30.0235 6.36603 2.99833 6.0202 -115880 -180590 -21757.9 -21574 7504.08 -7345.05 -7.41338 
771 1 30.6895 5.11446 2.99208 6.01445 -126812 -163169 26539 2182.1 5548.22 17816.3 -7.41651 
772 1 29.9364 3.91301 2.9911 6.02357 -132505 -176390 -22623.4 -568.019 1240.62 -2970.99 -7.41297 
773 1 30.6015 2.66101 2.98465 6.01311 -133472 -159231 26916.8 30487 21583.3 17464.2 -7.41617 
774 1 29.8477 1.45979 2.98572 6.01583 -144556 -164071 -8583.99 23378.1 -5431.88 10349.6 -7.41379 
775 1 30.5116 0.207132 2.9809 6.01539 -151517 -153167 9123.56 48682.9 15031.3 13727.4 -7.41464 
818 1 32.2798 9.96811 3.0061 6.0076 -84756.2 -205344 12771.3 -22992.3 36940.9 -15267.8 -7.41634 
819 1 32.9465 8.71703 2.99803 6.01634 -119114 -174386 -19900.3 -12596.5 115.362 4283.74 -7.41384 
820 1 32.1935 7.5157 2.99462 6.01461 -99606.3 -193824 4527.6 -22015.8 11969.1 -16815.1 -7.41504 
821 1 32.8599 6.26438 2.98863 6.01575 -124865 -175326 2049.71 -14324.2 1997.8 12855 -7.41468 
822 1 32.1067 5.0632 2.98593 6.02041 -111168 -196749 -3484.81 -18995.6 8837.17 -7458.92 -7.41395 
823 1 32.7727 3.81169 2.97734 6.00913 -126224 -174269 13162.9 607.582 25590.2 26880.8 -7.41508 
824 1 32.0186 2.61097 2.97571 6.01242 -126136 -188964 -7380.25 1940 7097.13 18332.1 -7.41341 
825 1 32.6828 1.35857 2.96653 6.01095 -138747 -164082 7072.38 27030.1 21964 34096.4 -7.4143 
826 1 31.9285 0.157815 2.97057 6.00534 -151270 -156307 1116.47 18880.6 -6100.71 39375.1 -7.41407 
860 1 35.1163 9.86743 3.00478 6.01922 -140126 -151836 -38171.4 -6084.14 11193.3 -6136.24 -7.41297 
861 1 34.3638 8.6657 2.99778 6.01525 -107388 -183341 28661.3 -11501.6 21624.2 -14133.7 -7.41691 
862 1 35.0296 7.41398 2.99117 6.02185 -146282 -160614 -21192.9 -16310.3 -1016.58 1286.51 -7.41316 
863 1 34.2772 6.2124 2.98596 6.0133 -110760 -184964 20823.1 -25741.3 19020.4 -13176.7 -7.41572 
864 1 34.9431 4.9607 2.97709 6.01098 -149383 -163189 -5425.08 -23514.6 21020.6 14227.1 -7.4137 
865 1 34.1899 3.75967 2.97056 6.01049 -119981 -186920 5219.8 -22093.8 29009.6 5165.94 -7.41411 
866 1 34.8544 2.50728 2.95899 6.00632 -146910 -159410 -5874.71 -5645.35 33183.4 23688.5 -7.41344 
867 1 34.0998 1.30694 2.95607 6.00683 -138170 -169079 -9444.66 -1844.48 13134.2 28857.3 -7.41312 
868 1 34.7623 0.0534485 2.94953 6.01653 -151064 -152820 -14288.8 9583.64 759.096 22872.7 -7.41289 
1534 2 27.3312 9.51385 6.37197 5.99477 -221432 -73884.9 32169.9 46019.1 13765.2 68777.3 -7.41858 
1535 2 28.0793 8.30967 6.38572 5.99957 -180189 -107278 -38508.4 18254.6 15798.3 21502 -7.41374 
1536 2 27.4145 7.05683 6.38502 6.00932 -184407 -117225 37107.2 28554.6 13809.2 51200.5 -7.41829 
1537 2 28.1651 5.85417 6.39521 6.01924 -154118 -137878 -38172.1 2099.1 282.571 12761.8 -7.41297 
1538 2 27.5001 4.60168 6.39368 6.01286 -159269 -136489 37388.4 8338.52 18332.8 27285.5 -7.41785 
1539 2 28.2524 3.39981 6.40202 6.02421 -150200 -149792 -29132 -22682.8 -6397.76 2515.05 -7.4129 
1540 2 27.5879 2.14722 6.40122 6.01084 -149179 -141248 23441.3 -18218.6 20957.7 9578.29 -7.41661 
1541 2 28.3413 0.945674 6.40733 6.01811 -151912 -147932 -7240.38 -47079.1 -15014.1 -890.482 -7.41405 
1585 2 30.1601 9.61444 6.3898 5.9969 -194828 -94884.9 -14151.8 30854.3 28864.3 -3129.83 -7.41501 
1586 2 29.4962 8.36099 6.39389 6.0076 -195135 -94996.2 12771.3 40693.5 5248.1 39625.5 -7.41634 
1587 2 30.2463 7.15805 6.40196 6.01634 -171445 -122057 -19900.5 17662.1 3767.52 -2042.05 -7.41384 
1588 2 29.5821 5.90495 6.40222 6.01522 -174338 -116430 28660.8 27092.4 -1428.13 25794.2 -7.41691 
1589 2 30.3332 4.70255 6.40883 6.02185 -171163 -135786 -21192.8 -1837.35 605.654 -1523.45 -7.41316 
1590 2 29.6693 3.44948 6.40835 6.01533 -165214 -123517 32519.4 914.16 6191.11 19607.5 -7.41689 
1591 2 30.4215 2.24743 6.41562 6.02161 -169045 -144511 -11993.3 -33592.4 -1024.55 5138.39 -7.41333 
1592 2 29.7581 0.994353 6.41383 6.01267 -156389 -140053 15998.2 -24610.9 11184.7 18894 -7.41555 
1636 2 31.5769 9.66599 6.39279 6.00679 -201086 -85278.5 -14772.8 32073 9766.07 22491.2 -7.41444 
1637 2 32.3269 8.4629 6.40079 6.00986 -171727 -119311 7979.4 17349.7 15810.1 -15130.6 -7.41566 
1638 2 31.6632 7.20952 6.40538 6.0146 -189317 -104038 4527.45 29789.8 -8577.79 18772.9 -7.41504 
1639 2 32.4137 6.00676 6.41137 6.01575 -175175 -125095 2049.85 14689.6 12131.5 -4697.69 -7.41468 
1640 2 31.7501 4.75337 6.41404 6.01328 -188801 -107019 20823 19187.3 -1901.2 23060.7 -7.41572 
1641 2 32.5011 3.55083 6.4229 6.01098 -180057 -132507 -5425.28 -5667.63 22831 11091.1 -7.4137 
1642 2 31.8383 2.29722 6.42405 6.01186 -177243 -120859 18008.7 -6757.91 11577 37304.3 -7.41532 
1643 2 32.5911 1.09556 6.43355 6.00693 -164045 -147270 -3632.26 -30515.9 8768.65 26664.6 -7.41346 
1687 2 34.4079 9.76691 6.39329 6.00815 -153535 -141201 31766.5 9009.07 31618.1 -13076.8 -7.41748 
1688 2 33.7438 8.51397 6.40166 6.02019 -183121 -113405 -21758.1 17257.2 -2608.9 10171.3 -7.41338 
1689 2 34.4947 7.31139 6.40792 6.01443 -152301 -137726 26539.2 16801.5 18203.2 -4103.83 -7.41651 
1690 2 33.8305 6.05842 6.41407 6.02039 -191893 -116097 -3484.37 27594.4 -2041.59 11382.9 -7.41395 
1691 2 34.5813 4.85591 6.42266 6.00908 -161767 -138814 13163.4 21125.6 36074.2 8721.35 -7.41508 
1692 2 33.9178 3.6026 6.42944 6.0105 -189412 -117573 5221.08 17837.7 18978.6 22540.8 -7.41411 
1693 2 34.6702 2.40092 6.441 6.0063 -161205 -145228 -5874.89 2619.6 37105.8 16894.5 -7.41344 
1694 2 34.0079 1.14712 6.4439 6.01516 -166138 -137808 -5644.96 -1440.13 16496.4 34727.7 -7.41344 
1733 2 35.825 9.81717 6.39439 6.01808 -158407 -133979 -38182 5838.54 10208.3 7736.49 -7.41286 
1734 2 35.9117 7.36286 6.40889 6.02356 -165954 -143021 -22623.4 18757.9 -1952.87 2560.14 -7.41297 
1735 2 35.9983 4.90863 6.42429 6.01241 -171540 -143514 -7380.43 28230.2 19424.5 -3019.85 -7.41341 
1736 2 36.087 2.45425 6.44393 6.00682 -162988 -144298 -9444.5 12464.3 31557.7 -3054.02 -7.41312 
44 1 1.41668 20.8428 3.08265 6.0184 -165240 -111633 -201775 277.913 -3042.51 -17626.9 -7.40633 
45 1 0.670124 19.6373 3.08655 6.00731 -137188 -121967 192420 -27479.9 5429.33 -4858.47 -7.43106 
46 1 1.3398 18.387 3.08079 6.01591 -168437 -116288 -173956 -52790.2 -19068.3 -14649.7 -7.40789 
47 1 0.594708 17.1811 3.0788 6.00268 -141655 -143539 151799 -66671.8 28884.5 -16770.1 -7.42821 
48 1 1.26502 15.9312 3.0681 6.0118 -179016 -111528 -113949 -71965.2 3509.4 -8108.65 -7.41113 
49 1 0.519297 14.7259 3.0578 6.00421 -149422 -162160 93483.9 -61786.6 60314.7 -12981.5 -7.42364 
50 1 1.18798 13.4753 3.04303 5.99303 -177453 -108718 -65903.5 -44658.2 31288.4 -7532.34 -7.41309 
51 1 0.439424 12.2715 3.02938 6.00439 -144826 -166922 52595 -25606.7 61369.3 -1355.77 -7.41978 
52 1 1.10538 11.0197 3.01622 6.00425 -168594 -117992 -43305.5 -12367.3 23156.1 -8877.52 -7.41312 
96 1 2.83393 20.7985 3.08384 5.99747 -184759 -83915 173354 -6643.52 6131 22042.9 -7.42971 
97 1 3.50158 19.5467 3.08007 6.00419 -203676 -88187.7 -150678 -24809.5 -17628.8 -23678.2 -7.40911 
98 1 2.75734 18.3402 3.08342 5.99513 -173923 -97136.9 154623 -53980.9 17019.4 9609.08 -7.42873 
99 1 3.4262 17.089 3.07607 6.00577 -215834 -81409.4 -111841 -68250.3 -7505.71 -20069.9 -7.41097 
100 1 2.68247 15.8826 3.07061 5.98781 -179934 -113165 106663 -74149.9 50566.2 8203.95 -7.42515 