ITEM: TIMESTEP
0
ITEM: NUMBER OF ATOMS
1736
ITEM: BOX BOUNDS pp pp pp
0.0000000000000000e+00 3.6179139200000002e+01
0.0000000000000000e+00 6.2664107199999997e+01
0.0000000000000000e+00 1.5000000000000000e+01
ITEM: ATOMS id type x y z c_csym c_2[1] c_2[2] c_2[3] c_2[4] c_2[5] c_2[6] c_3 
53 1 0.333 9.818 3 6.02172 -128661 -135114 37798.6 32032.8 27773.4 5093.45 -7.41631 
54 1 1 8.567 3 6.02492 -117563 -154079 -31028.4 -3263.97 -3148.44 -4402.13 -7.41339 
55 1 0.25 7.364 3 6.0215 -136869 -144668 22422.6 -19182.8 22303.9 -2719.59 -7.41589 
56 1 0.917 6.112 3 6.02221 -164258 -118341 -28240.3 -22684.4 14112.9 -1955.08 -7.41398 
57 1 0.167 4.909 3 6.0253 -146151 -178008 -7863.58 338.515 45299.5 -7499.57 -7.41446 
58 1 0.834 3.658 3 6.02228 -159585 -141327 -38970 11537.4 42146 -7156.84 -7.41326 
59 1 0.083 2.455 3 6.02156 -129223 -118606 -47462.3 -5597.66 47137.8 -3908.81 -7.41257 
60 1 0.75 1.203 3 6.02299 -149894 -127753 -59602.3 -20628.2 25341.7 -15858.8 -7.41208 
61 1 0 0 3 6.02855 -148571 -159500 -65192.5 -4295.01 -5.15512 -6.21887 -7.41183 
105 1 3.168 9.722 3 6.02678 -163972 -149326 -20927 -4054.62 2150.67 -10619 -7.41461 
106 1 2.418 8.519 3 6.02063 -99613.3 -160786 20753.4 -6372.59 18185.8 13155.4 -7.41591 
107 1 3.084 7.267 3 6.02042 -119761 -137387 -14748.1 -11939.9 -5931.19 -9953.55 -7.41407 
108 1 2.334 6.064 3 6.02688 -153797 -175207 2273.56 5357.93 27417.9 -3204.16 -7.4152 
109 1 3.001 4.813 3 6.02798 -171887 -158323 -12749.8 -5758.1 14715.3 -20338.9 -7.41442 
110 1 2.251 3.61 3 6.02192 -144828 -139728 -28391.1 -11530.9 46252.7 -22853.5 -7.4137 
111 1 2.918 2.358 3 6.02088 -145944 -111487 -28016.7 -9791.88 25937.5 -42310.5 -7.41364 
112 1 2.167 1.155 3 6.02226 -144340 -148718 -51670.1 17170 23682.9 -36872 -7.41254 
156 1 4.585 9.674 3 6.02913 -153691 -170479 9019.71 1293.21 24521.5 17370 -7.41586 
157 1 5.252 8.423 3 6.022 -156440 -124558 1572.17 8929.67 -3540.89 -20473 -7.41511 
158 1 4.502 7.219 3 6.02069 -101730 -159659 -6267.75 34884.6 8715.51 10054.5 -7.41411 
159 1 5.168 5.968 3 6.02293 -126923 -175153 11707.4 1908.28 -3902.63 -18296.1 -7.41568 
160 1 4.418 4.765 3 6.02196 -144737 -136209 -21431.1 -9587.52 18399.3 -6623.87 -7.41441 
161 1 5.085 3.513 3 6.02192 -157804 -129675 9351.4 -26311 9734 -29650.3 -7.41535 
162 1 4.335 2.31 3 6.02621 -153307 -174938 -32914.9 10834.4 20406.4 -27323.8 -7.41367 
163 1 5.002 1.059 3 6.02279 -148998 -150714 -9928.9 6558.93 10937.2 -44156.8 -7.41442 
207 1 7.419 9.578 3 6.02317 -159237 -134077 23782.1 14520.2 10437.5 -41993.3 -7.41586 
208 1 6.669 8.374 3 6.02075 -141795 -135688 -15726.6 19127.2 11114.8 1720.62 -7.41406 
209 1 7.336 7.123 3 6.02913 -167477 -162529 28296.8 -10991 3789.11 -30419.3 -7.41675 
210 1 6.586 5.92 3 6.02413 -99025.3 -170814 -27798.6 4343.26 -293.102 2321.79 -7.41373 
211 1 7.253 4.669 3 6.02057 -146420 -117305 30900.7 16328.6 7618.98 -19028.3 -7.41625 
212 1 6.502 3.465 3 6.02072 -134245 -122759 -30646.9 40969.3 1051.63 -2319.3 -7.4135 
213 1 7.169 2.214 3 6.02683 -163376 -167368 17492.6 -10728.3 13314.1 -16470 -7.41577 
214 1 6.419 1.011 3 6.02122 -145891 -131161 -18941.1 -10246.1 -5456.87 -10595.6 -7.4145 
258 1 8.836 9.53 3 6.02059 -137900 -115066 -11881.5 3531.27 22977.1 -17980.5 -7.41428 
260 1 8.753 7.075 3 6.02913 -151382 -161738 -27298.2 4125.22 5679.42 -14250.3 -7.41405 
262 1 8.67 4.62 3 6.02075 -139186 -135920 -32912.9 20219.4 -3238.05 -5439.53 -7.41307 
264 1 8.586 2.166 3 6.02197 -134890 -114604 -24143.4 3382.87 -9150.58 737.56 -7.41398 
874 2 0.417 8.615 6.4 6.02646 -149925 -175223 30694.4 1547.76 20227.5 2819.54 -7.41648 
875 2 0.5 6.161 6.4 6.02223 -141660 -141048 9507.8 19661 30477.9 6400.76 -7.4151 
876 2 0.584 3.706 6.4 6.02169 -141385 -149872 -28272.5 -9494.56 49578.2 -1350.05 -7.41401 
877 2 0.667 1.251 6.4 6.02491 -145441 -133156 -59505.3 -15053.3 26444.4 -14108.2 -7.41173 
878 2 0 0 6.4 6.02853 -148248 -159699 -65187.1 1183.46 8.11763 -24.7779 -7.41184 
921 2 2.501 9.915 6.4 6.022 -145089 -144832 28165.1 21986.1 28206.3 12000.1 -7.41628 
922 2 1.834 8.663 6.4 6.022 -157419 -117340 -27598.3 20803 -2212.55 -813.285 -7.41384 
923 2 2.584 7.46 6.4 6.02701 -150586 -177830 11650 4124.89 13817.3 12575.7 -7.41567 
924 2 1.917 6.209 6.4 6.02072 -152684 -107885 -21574.1 -31039.2 14849.8 -12664.5 -7.4139 
925 2 2.668 5.005 6.4 6.0205 -131991 -128448 -12763.4 -20143.5 25037.8 -2495.71 -7.41436 
926 2 2.001 3.754 6.4 6.02758 -167056 -157198 -28385.7 1289.26 42909.3 -28571.5 -7.4142 
927 2 2.751 2.551 6.4 6.02672 -146032 -137147 -38952.6 29339.5 27291.5 -32919.1 -7.41328 
928 2 2.084 1.299 6.4 6.02243 -153731 -127413 -47566.5 17691.7 26914.7 -38963.6 -7.41257 
929 2 2.834 0.096 6.4 6.02648 -153969 -167054 -45258.2 8663.94 -1274.19 -51920.2 -7.41278 
972 2 3.918 9.963 6.4 6.0244 -157547 -123592 -15842.3 -15421.2 4051.86 -10467.1 -7.41382 
973 2 4.668 8.759 6.4 6.01942 -138397 -144559 1616.44 -9041.84 16021.4 13316.6 -7.41489 
974 2 4.001 7.508 6.4 6.02199 -156513 -139250 -6288.02 -13744.9 -4326.73 -12554.3 -7.41505 
975 2 4.752 6.305 6.4 6.02199 -138196 -157087 -15011.8 -3503.04 5648.23 10026.4 -7.41475 
976 2 4.085 5.054 6.4 6.01942 -158054 -129595 2121.22 -17682.7 16528.3 -22272.8 -7.41488 
977 2 4.835 3.85 6.4 6.02475 -144628 -142718 -27923.3 -5103.02 8673.74 -11409.5 -7.41362 
978 2 4.168 2.599 6.4 6.02931 -167367 -162671 -7946.02 -3734.81 29191.9 -35490.8 -7.41458 
979 2 4.918 1.396 6.4 6.02192 -96444.3 -141172 -28476.8 31243.1 2700.97 -37927.1 -7.4135 
980 2 4.251 0.144 6.4 6.02088 -138364 -115278 -27401.5 -3655.89 6567.04 -39591.5 -7.41376 
1023 2 6.752 10.059 6.4 6.02683 -152607 -168125 -1693.28 9259.16 27669 -1204.92 -7.41528 
1024 2 6.085 8.808 6.4 6.0205 -148610 -111954 8932.41 -28380.5 -2781.13 -29951.1 -7.41505 
1025 2 6.836 7.604 6.4 6.0205 -130508 -121097 -20974.9 -18541.8 10269 3467.32 -7.41359 
1026 2 6.169 6.353 6.4 6.02683 -167958 -159190 20807.2 -4450.08 -2247.6 -22239.6 -7.41634 
1027 2 6.919 5.15 6.4 6.02672 -141914 -133031 -31196.7 29254.7 2299.58 4933.67 -7.41367 
1028 2 6.252 3.898 6.4 6.02188 -160957 -126785 22459.2 11521.3 13415.2 -18011.2 -7.41597 
1029 2 7.002 2.695 6.4 6.02293 -110659 -188001 -27954.2 -212.705 -1873.43 -4486.15 -7.41366 
1030 2 6.336 1.444 6.4 6.02294 -119253 -185763 4899.32 -18158.5 17412.9 -15954.7 -7.41512 
1031 2 7.086 0.241 6.4 6.02143 -148002 -129214 -7932.57 32295.5 -9497.1 -14416 -7.41487 
1074 2 8.169 10.107 6.4 6.02199 -157407 -148875 34308.1 -10096.8 8491.66 -53184.9 -7.41717 
1075 2 8.92 8.904 6.4 6.02319 -140957 -150505 -15415.7 -1858.9 20900.5 -16068.7 -7.41449 
1076 2 8.253 7.653 6.4 6.01942 -157982 -134761 37014.7 -19687.9 3316.45 -43434.1 -7.41685 
1077 2 9.003 6.449 6.4 6.02451 -139786 -135408 -29200.1 -9277 12882.9 -8660.58 -7.41335 
1078 2 8.336 5.198 6.4 6.02688 -171774 -160311 37632.2 -8000.04 9536.1 -26713.4 -7.41719 
1080 2 8.42 2.743 6.4 6.02042 -116154 -147098 25272.6 -1642.76 18367.4 -10833.4 -7.41593 
1082 2 8.503 0.289 6.4 6.02762 -159522 -163060 -603.084 -10183.5 16993.5 -848.968 -7.4149 
259 1 9.503 8.278 3 6.02557 -160693 -135457 52524.2 -24077.6 15899.3 -52001.2 -7.41798 
261 1 9.42 5.824 3 6.022 -161011 -135710 46047.7 1493.16 20887.3 -34525.2 -7.41716 
263 1 9.337 3.369 3 6.02218 -155126 -148088 32590.1 762.551 25911 -16339.2 -7.41708 
265 1 9.253 0.914 3 6.02269 -149328 -131005 7627.13 -27099.2 21078.3 -4854.76 -7.41516 
309 1 11.671 9.433 3 6.02059 -152703 -122751 92871.7 -7472.29 12132.6 -53192.6 -7.42021 
310 1 10.92 8.23 3 6.02218 -145357 -150687 -18602.6 23457.4 15143.4 -24448.9 -7.41412 
311 1 11.587 6.979 3 6.02317 -160948 -144131 76071.6 12614 23679.2 -48382.3 -7.41908 
312 1 10.837 5.775 3 6.022 -140611 -135088 -25354.6 20898.2 7076.34 -23691.2 -7.4135 
313 1 11.504 4.524 3 6.02913 -166997 -170429 53881.3 -11448.4 37086.5 -36209.7 -7.41839 
314 1 10.754 3.321 3 6.02798 -147075 -167765 -23889.9 5124.55 -688.479 -16576.5 -7.41407 
315 1 11.421 2.07 3 6.0205 -141063 -122448 25950.2 19219.1 37385.7 -23506.1 -7.41626 
316 1 10.67 0.866 3 6.02096 -136084 -115886 -8898.15 36378.6 -13685.4 -11885.6 -7.41414 
360 1 13.088 9.385 3 6.02568 -154689 -174277 -22157.6 10552.2 11452.6 -7370.91 -7.41389 
361 1 13.755 8.134 3 6.02303 -160130 -160511 120917 11550.5 9740.63 -34934.4 -7.42168 
362 1 13.004 6.931 3 6.02059 -135025 -121872 -20197.4 4397.17 7858.16 -20462.4 -7.41383 
363 1 13.671 5.679 3 6.02197 -111424 -144016 92767.1 -23561.6 28985.5 -37780.6 -7.41981 
364 1 12.921 4.476 3 6.02913 -152394 -169462 -14282.2 7499.16 7632.69 -27918.4 -7.41442 
365 1 13.588 3.225 3 6.02475 -157482 -144389 58315.1 11126.3 44312.5 -37580.2 -7.41777 
366 1 12.838 2.021 3 6.01996 -138990 -141758 -4985.83 20248.6 -2415.17 -28671.7 -7.41456 
367 1 13.505 0.77 3 6.02202 -143928 -154823 24021.8 8410.08 34158 -36071.2 -7.41659 
411 1 15.922 9.289 3 6.02683 -168349 -175458 159651 -619.471 -924.283 -10449 -7.42353 
412 1 15.172 8.086 3 6.02191 -144806 -136574 -35838.2 -10357.6 -3939.35 -57.222 -7.41347 
413 1 15.839 6.834 3 6.02196 -161031 -139722 136431 -20164.6 11171 -16831.4 -7.42247 
414 1 15.089 5.631 3 6.02293 -110632 -192729 -14230.8 17049.1 -532.869 -14690.1 -7.41432 
415 1 15.755 4.38 3 6.02293 -125639 -196229 99865.9 9079.43 35299.4 -23660.1 -7.41992 
416 1 15.005 3.177 3 6.02188 -144354 -139900 3347.33 -13551.2 2669.2 -23718.1 -7.41533 
417 1 15.672 1.925 3 6.02278 -152341 -143679 59194.8 -22676 42097.9 -30783.5 -7.418 
418 1 14.922 0.722 3 6.02736 -151551 -173349 20718.7 1807.19 -13997.2 -28471.4 -7.41625 
462 1 17.339 9.241 3 6.02199 -135984 -115017 -59903.7 -3589.61 -8459.6 4108.72 -7.41212 
463 1 18.006 7.989 3 6.02192 -158986 -142685 161830 -19092.4 4931.06 -360.697 -7.42331 
464 1 17.256 6.786 3 6.02798 -156103 -172394 -31278.5 964.323 -14002.3 527.486 -7.41352 
465 1 17.923 5.535 3 6.02688 -168596 -176757 130634 -797.267 24668.6 1095.15 -7.42188 
466 1 17.173 4.332 3 6.02042 -104235 -158984 -6.60957 -5594.53 -4087.33 -2474.68 -7.41502 
467 1 17.839 3.08 3 6.01892 -111167 -162670 88940.1 -10215.2 41861.9 -2460.65 -7.41944 
468 1 17.089 1.877 3 6.02705 -152222 -178916 22327.7 1347.72 -7055.48 -4935.64 -7.41647 
469 1 17.756 0.626 3 6.02647 -152883 -178807 50302.1 1722.68 31698.4 -9940.92 -7.4177 
1079 2 9.086 3.995 6.4 6.01892 -97431.3 -148260 -31732.4 17994.4 4982.02 -1396.77 -7.41351 
1081 2 9.17 1.54 6.4 6.02705 -153652 -165640 -18197 9689.42 -7427.37 -46.8241 -7.41433 
1125 2 11.004 10.203 6.4 6.022 -147708 -137273 -7193.88 -987.127 18375.1 -16690.8 -7.41451 
1126 2 10.337 8.952 6.4 6.02683 -169548 -167965 68149.6 19.9149 14237.1 -53760.9 -7.41947 
1127 2 11.087 7.749 6.4 6.02557 -141794 -137052 -19704.7 29288.7 18324.5 -20946.8 -7.41391 
1128 2 10.42 6.497 6.4 6.02184 -153270 -118254 58248.8 -249.653 21077.2 -45679.2 -7.41827 
1129 2 11.171 5.294 6.4 6.02228 -138911 -153832 -24738.8 -3684.57 15181.8 -19806.6 -7.41365 
1130 2 10.504 4.043 6.4 6.02413 -118925 -171789 42240.8 -6484.49 27845.7 -31806 -7.41689 
1131 2 11.254 2.84 6.4 6.02191 -141752 -133156 -20388 26831.5 3590.94 -16520.5 -7.41395 
1132 2 10.587 1.588 6.4 6.02243 -154801 -131314 17247.3 12260.4 25894.9 -17618.3 -7.41585 
1133 2 11.337 0.385 6.4 6.02648 -152578 -167651 -2658.8 9520.34 -18781 -16463.8 -7.41478 
1176 2 12.421 10.252 6.4 6.02075 -160907 -143053 111784 -11979.5 10887.6 -34910.2 -7.42085 
1177 2 13.171 9.048 6.4 6.02317 -144514 -144575 -22925 -6675.39 9994.52 -6440.13 -7.41351 
1178 2 12.504 7.797 6.4 6.02218 -162507 -156484 96921.1 -14978.8 26081.4 -39227.1 -7.42065 
1179 2 13.255 6.594 6.4 6.02059 -133212 -122743 -19624.3 16181.9 10300.9 -19900.5 -7.41401 
1180 2 12.588 5.342 6.4 6.02192 -159773 -140303 73536.6 14801.7 37927.5 -42713.4 -7.41924 
1181 2 13.338 4.139 6.4 6.02913 -151300 -173793 -12070.3 9533.52 9269.32 -30153.2 -7.41435 
1182 2 12.671 2.888 6.4 6.02913 -165810 -172894 44406.1 -3431.92 39360.6 -38526.7 -7.41739 
1183 2 13.421 1.685 6.4 6.02192 -141898 -140945 132.771 23925.2 -7241.63 -34394.4 -7.4149 
1184 2 12.754 0.433 6.4 6.02088 -137589 -117155 15018.4 -2030.72 23873.3 -31057 -7.41574 
1227 2 15.255 10.348 6.4 6.022 -146069 -135205 -45242.7 25498.4 3146.65 11516.2 -7.41283 
1228 2 14.588 9.096 6.4 6.02059 -151656 -124986 141883 5564.2 15226.8 -13929.2 -7.42252 
1229 2 15.339 7.893 6.4 6.02228 -143503 -157414 -35553.6 -4611.79 -4814.38 -1424.69 -7.41327 
1230 2 14.672 6.642 6.4 6.02567 -168241 -179055 118676 -800.538 31101.6 -26385.8 -7.42147 
1231 2 15.422 5.439 6.4 6.02191 -146348 -140624 -13195.4 27867.7 -1342.02 -18925.9 -7.41433 
1232 2 14.755 4.187 6.4 6.022 -158776 -142247 84756.2 17684.2 44074.1 -35776.8 -7.41956 
1233 2 15.505 2.984 6.4 6.02413 -102723 -179090 6536.03 5619.43 -1091.26 -31228.7 -7.4153 
1234 2 14.838 1.733 6.4 6.02073 -141236 -131399 48923.1 -32641.3 38183.4 -34103.3 -7.41717 
1235 2 15.589 0.529 6.4 6.02096 -130819 -127991 26592.5 -22978.4 -21289.9 -34638.9 -7.41629 
1278 2 16.672 10.396 6.4 6.02228 -157738 -159408 169661 -12760.4 2667.25 -1012.2 -7.42385 
1279 2 17.423 9.193 6.4 6.02059 -135651 -115356 -59825.5 7934.63 -8958.79 3072.08 -7.41212 
1280 2 16.756 7.941 6.4 6.02192 -158533 -142527 156605 19153.1 11663.7 -5752.77 -7.42323 
1281 2 17.506 6.738 6.4 6.02798 -157280 -170181 -31113.5 4197.64 -14447 -3484.73 -7.41368 
1282 2 16.839 5.487 6.4 6.02215 -160523 -145288 125563 -17232.8 30284.9 -14603 -7.42138 
1283 2 17.589 4.283 6.4 6.01817 -101422 -163186 575.754 -23659.3 -5006.25 -10379.8 -7.41493 
1284 2 16.923 3.032 6.4 6.02294 -117691 -197136 85106.2 -7416.8 43052.3 -15957 -7.41961 
1285 2 17.673 1.829 6.4 6.02677 -150097 -178216 23587.5 2796.96 -8929.3 -13362.9 -7.41694 
1286 2 17.006 0.578 6.4 6.02182 -143463 -146645 47645.2 -15446.1 29975.8 -9873.28 -7.41724 
461 1 18.09 10.444 3 6.02218 -156794 -155560 174175 11010.6 -101.165 -89.5627 -7.42456 
512 1 19.507 10.396 3 6.02798 -152438 -166422 -59837.3 -5770.92 489.395 -9192.14 -7.41241 
513 1 20.174 9.145 3 6.0205 -147277 -127916 160059 27072.1 9430.92 4445.37 -7.42333 
514 1 19.423 7.941 3 6.02072 -135817 -123774 -44879.4 26000.5 -12448 -923.864 -7.41252 
515 1 20.09 6.69 3 6.02683 -169034 -176802 136339 -72.7275 24067.5 15549.4 -7.42233 
516 1 19.34 5.487 3 6.02191 -146843 -139908 -13796.7 -24644.9 -8216.83 11242.8 -7.41449 
517 1 20.007 4.235 3 6.02192 -158314 -143669 100383 -18895.1 41319.4 23997.2 -7.4202 
518 1 19.257 3.032 3 6.02413 -102649 -183215 11843 -3514.25 -3484.05 20128.2 -7.41538 
519 1 19.924 1.781 3 6.0223 -148879 -165086 61162.4 13713.2 39398.4 21874.7 -7.41806 
520 1 19.173 0.578 3 6.02143 -133256 -125933 33918.9 -8487.83 -20420.4 21400 -7.41682 
563 1 22.341 10.3 3 6.02475 -162774 -144561 136479 15257.8 9007.76 18043.6 -7.42188 
564 1 21.591 9.096 3 6.01942 -141490 -142723 -35971.9 4999.17 2083.39 -3374.51 -7.41313 
565 1 22.258 7.845 3 6.02208 -159580 -156885 120756 12184.1 25180.6 25915.4 -7.42218 
566 1 21.507 6.642 3 6.02199 -134380 -123560 -22300.3 -15171.8 623.804 13726.1 -7.41396 
567 1 22.174 5.39 3 6.02192 -159984 -143209 92702.2 -16499.3 40034.6 37144.4 -7.42003 
568 1 21.424 4.187 3 6.02913 -152535 -176491 -5171.36 -8639 4027.29 29247.9 -7.4148 
569 1 22.091 2.936 3 6.02913 -165120 -176390 58896.5 1425 43394.1 39088.2 -7.4181 
570 1 21.341 1.733 3 6.02192 -141152 -144131 10747.9 -22744.8 -8378.48 36731.4 -7.41564 
571 1 22.008 0.481 3 6.02088 -136725 -121226 26909.8 403.44 26031 33822 -7.41637 
614 1 23.758 10.252 3 6.02196 -149300 -135286 -14092.5 -29664.9 12954.2 6933.52 -7.41445 
615 1 24.425 9 3 6.02557 -161489 -138785 92936.9 -17956.3 18271.6 44005 -7.4204 
616 1 23.675 7.797 3 6.02798 -150352 -172267 -20164.4 -12960.4 13619.6 17057.7 -7.41438 
617 1 24.342 6.546 3 6.0205 -149832 -125125 76254.8 31324.2 30088.5 44704.3 -7.41934 
618 1 23.591 5.342 3 6.02072 -131668 -126025 -18476 20600.6 13603.7 25391.6 -7.41366 
619 1 24.258 4.091 3 6.02413 -120135 -172666 52472 4362.7 37162.3 39829 -7.41769 
620 1 23.508 2.888 3 6.02192 -141716 -136759 -11758.5 -26229 4105.26 28888.6 -7.4144 
621 1 24.175 1.636 3 6.02243 -154040 -134450 23867.3 -14143.6 31115 30037.7 -7.41624 
622 1 23.425 0.433 3 6.02648 -151625 -171147 4972.32 -7725 -20432.5 30353.7 -7.41519 
665 1 26.593 10.155 3 6.02059 -152122 -118407 58242.9 -6782.43 10317.4 57173.4 -7.41815 
666 1 25.842 8.952 3 6.02303 -145127 -151126 -14363.8 2566.81 20304.3 20547 -7.41432 
667 1 26.509 7.701 3 6.02317 -161669 -139317 53956.2 22240.2 12880.6 50201.9 -7.4177 
668 1 25.759 6.497 3 6.02075 -137375 -136557 -25409.4 4996.45 16961.3 18044.2 -7.41371 
669 1 26.426 5.246 3 6.02678 -169894 -162048 46160.6 5657.67 19381.6 35477.4 -7.41821 
670 1 25.676 4.043 3 6.02063 -97239.4 -149127 -27275 -17610.2 9580.18 12056.4 -7.41361 
671 1 26.342 2.791 3 6.02042 -116757 -148490 28359.2 1151.34 24421.9 18392.5 -7.41608 
672 1 25.592 1.588 3 6.02705 -152819 -165951 -15876.5 -8268.05 -7081.06 8709.13 -7.41438 
673 1 26.259 0.337 3 6.02762 -158385 -162382 1522.94 9292.29 19498.5 7166.71 -7.41508 
1330 2 18.84 9.241 6.4 6.02568 -166262 -177497 169318 442.974 -529.213 2944.19 -7.42383 
1331 2 19.59 8.038 6.4 6.02192 -145438 -135197 -44970 13979.3 -11695.6 -3124.98 -7.41292 
1332 2 18.923 6.786 6.4 6.02578 -160619 -139669 146825 19763.4 11203.7 4586.95 -7.42285 
1333 2 19.673 5.583 6.4 6.02293 -110830 -189472 -14334.6 -12078.6 -7201.28 5677.14 -7.41489 
1334 2 19.007 4.332 6.4 6.01938 -115809 -165135 109011 -22417.7 34846.6 8237.53 -7.41994 
1335 2 19.757 3.128 6.4 6.022 -143286 -145556 9914.92 -15533.9 -883.79 11310.8 -7.41552 
1336 2 19.09 1.877 6.4 6.02798 -158351 -179795 67201.1 4640.74 40831.9 15656.8 -7.41868 
1337 2 19.84 0.674 6.4 6.02773 -148414 -177735 30476.2 1857.95 -16228.5 15877.6 -7.41692 
1381 2 21.674 9.337 6.4 6.02683 -155646 -170814 -35561.3 -8838.47 3728.86 -3526.77 -7.41337 
1382 2 21.007 8.086 6.4 6.02072 -151048 -129305 142033 -29876.7 4262.73 20236.4 -7.42229 
1383 2 21.758 6.882 6.4 6.02057 -132577 -126391 -22873.6 -36466.5 515.659 11960 -7.41375 
1384 2 21.091 5.631 6.4 6.02413 -117437 -180031 111376 5335.62 24852.5 26882 -7.42092 
1385 2 21.841 4.428 6.4 6.02913 -150606 -174268 -7309.4 -4729.9 5250.78 24251.7 -7.41499 
1386 2 21.174 3.177 6.4 6.02075 -153894 -146267 72686.6 -9731.62 43372.6 32953 -7.41864 
1387 2 21.924 1.973 6.4 6.02371 -141890 -146444 5950.8 -22599.3 -2338.22 29450.9 -7.41495 
1388 2 21.257 0.722 6.4 6.02221 -145998 -156425 35892.4 -12509.9 34352.3 36960.9 -7.41706 
1432 2 23.091 9.385 6.4 6.02199 -151963 -124361 118725 6849.59 7361.44 40122.5 -7.42154 
1433 2 23.842 8.182 6.4 6.02208 -143751 -152444 -19796.6 -22660.3 12023.9 18875.4 -7.41445 
1434 2 23.175 6.931 6.4 6.01942 -157704 -145732 96975.9 -11089.1 20816.1 42234.2 -7.4204 
1435 2 23.925 5.727 6.4 6.0244 -144494 -139104 -19560.2 -25171.9 8916.93 26431.5 -7.41356 
1436 2 23.258 4.476 6.4 6.02913 -169647 -171731 67813.5 6879.74 39463.3 39267.9 -7.419 
1437 2 24.008 3.273 6.4 6.022 -140607 -136286 -15421.6 11827.8 3447.29 26191.8 -7.41413 
1438 2 23.341 2.021 6.4 6.02087 -143593 -122490 34690.1 11320.5 41843 33974.9 -7.41675 
1439 2 24.092 0.818 6.4 6.02225 -143355 -150242 -1724.52 -17456.3 -12822.8 24590.5 -7.41481 
1483 2 25.926 9.481 6.4 6.0205 -135148 -120148 -11985.9 -37650.6 21379.7 23086.7 -7.41429 
1484 2 25.259 8.23 6.4 6.02798 -169045 -171283 73607.2 5840.4 18045 54172.8 -7.41969 
1485 2 26.009 7.027 6.4 6.02672 -144115 -130856 -24578.2 11836.1 9551.4 23090.1 -7.41368 
1486 2 25.342 5.775 6.4 6.02192 -162880 -135266 58390.9 27985.2 29018.4 41169.4 -7.41824 
1487 2 26.092 4.572 6.4 6.02567 -148536 -168066 -29233.8 -7529.45 1121.21 15525.7 -7.41345 
1488 2 25.425 3.321 6.4 6.02228 -155540 -153839 36862 -4031.15 36021.2 24604.5 -7.41696 
1489 2 26.176 2.118 6.4 6.02057 -134147 -114077 -20997.5 -2112.15 -8175.88 7118.95 -7.41398 
1490 2 25.509 0.866 6.4 6.02269 -147871 -131559 8965.84 25711.1 27265 12489 -7.41539 
716 1 28.01 10.107 3 6.02567 -154164 -169996 -5148.29 -9237.78 25998.1 12208.2 -7.41462 
717 1 28.677 8.856 3 6.02228 -159578 -147205 25858.5 16182.1 1714.27 44181.4 -7.41634 
718 1 27.926 7.653 3 6.02059 -132603 -115505 -23830.7 -13455.3 14734.8 7714.59 -7.41364 
719 1 28.593 6.401 3 6.02557 -160325 -129288 32667.1 -11628 1214.54 30559 -7.4166 
720 1 27.843 5.198 3 6.02913 -149373 -162842 -32893.3 -11572 6312.6 -112.653 -7.4139 
721 1 28.51 3.947 3 6.022 -157574 -130689 30904.3 22938.9 12564.6 16153.2 -7.41647 
722 1 27.76 2.743 3 6.02068 -101773 -153649 -27688.1 19084.5 -1814.46 -1460.6 -7.41321 
723 1 28.426 1.492 3 6.02293 -118955 -183967 11618.5 18806.6 17861 5705.04 -7.41557 
724 1 27.676 0.289 3 6.02393 -154161 -161708 -6144.7 -15037.6 -13026.4 2474.53 -7.41523 
767 1 30.844 10.011 3 6.02913 -167313 -157575 -2637.78 -1966.48 4875.17 24568.2 -7.41479 
768 1 30.094 8.808 3 6.02192 -141470 -136926 -8859.59 -25333.1 17150.5 -5839.23 -7.41449 
769 1 30.761 7.556 3 6.02059 -150353 -106729 7777.43 -1420.75 -6313.56 20684.6 -7.41533 
770 1 30.01 6.353 3 6.02218 -140869 -151992 -24213.1 5425.57 3883.9 -8255.95 -7.41404 
771 1 30.677 5.102 3 6.02317 -160351 -131979 17574.4 23498.1 7710.04 19757.1 -7.41531 
772 1 29.927 3.898 3 6.02075 -140648 -139227 -30322 2228.77 1484.67 2066.09 -7.41372 
773 1 30.594 2.647 3 6.02913 -163969 -165303 9368.1 4281.14 20827 23207.2 -7.41561 
774 1 29.844 1.444 3 6.02413 -102855 -174450 -21527.6 -14801.5 -3454.03 19140.3 -7.41414 
775 1 30.511 0.193 3 6.02032 -138226 -119871 -12595.5 36541.2 10334.9 22849.1 -7.4141 
818 1 32.261 9.963 3 6.02191 -144782 -141372 17064.7 -23732.4 28257.5 -13647.2 -7.41583 
819 1 32.928 8.711 3 6.02191 -158419 -118502 -18235 -19789.8 -3668.34 6436.17 -7.41413 
820 1 32.178 7.508 3 6.02568 -148904 -178174 -522.444 -5713.96 9252.03 -14251.6 -7.41491 
821 1 32.845 6.257 3 6.02228 -160746 -140739 -8173.4 15306.4 7762.76 15437.5 -7.41464 
822 1 32.094 5.054 3 6.02059 -133832 -124065 -18939.5 -14472.3 11908.1 597.482 -7.4142 
823 1 32.761 3.802 3 6.02557 -159234 -127257 -10196.8 -16338.1 32777.8 31526.2 -7.41443 
824 1 32.011 2.599 3 6.02913 -153423 -170770 -32837.7 -14421.2 13501.3 31422.9 -7.41416 
825 1 32.678 1.348 3 6.022 -153062 -134141 -28198.5 15676.2 23547.2 43657.7 -7.41323 
826 1 31.928 0.144 3 6.02155 -144820 -138189 -28488.9 1444.3 -3263 51500.6 -7.41331 
860 1 35.095 9.866 3 6.02 -154752 -133502 -31766.5 -7586.57 3569.79 -3566.1 -7.41356 
861 1 34.345 8.663 3 6.02688 -152248 -178273 25094.7 -3724.43 18520.6 -10496.1 -7.4163 
862 1 35.012 7.412 3 6.02891 -162723 -153488 -27864.1 -2498.86 2919.69 3854.87 -7.41388 
863 1 34.262 6.209 3 6.02221 -142624 -144490 5004.43 -23347.4 22521.4 -7066.39 -7.41515 
864 1 34.929 4.957 3 6.02156 -146469 -104232 -28329.4 -6304.01 34129.4 16614.4 -7.4139 
865 1 34.178 3.754 3 6.02218 -145284 -156033 -27697.1 6444.74 37605.3 14055.8 -7.41387 
866 1 34.845 2.503 3 6.0228 -148391 -130603 -45342.1 17746.7 44277.4 27221.3 -7.41248 
867 1 34.095 1.299 3 6.02244 -143993 -137079 -51531.7 6037.6 20055.6 39045.2 -7.41243 
868 1 34.762 0.048 3 6.02703 -147430 -159957 -59549.5 680.508 1080.91 29964.7 -7.41242 
1534 2 27.343 9.53 6.4 6.01942 -157788 -137533 44237.8 -11338.4 13597.5 53298.2 -7.41728 
1535 2 28.093 8.326 6.4 6.02475 -145402 -134315 -20334.9 -23424.6 12575.2 11386.3 -7.41358 
1536 2 27.426 7.075 6.4 6.02931 -171677 -164460 42179.4 8839.99 13694.7 40022.3 -7.41741 
1537 2 28.176 5.872 6.4 6.02192 -92149.8 -133477 -31703.2 12776.5 -1213.37 4930.62 -7.41312 
1538 2 27.509 4.62 6.4 6.02059 -148921 -115228 37814.4 17130.8 18287.8 21654.9 -7.4169 
1539 2 28.26 3.417 6.4 6.02303 -141586 -151105 -31158.8 -22105.4 -5439.87 -494.443 -7.41367 
1540 2 27.593 2.166 6.4 6.02568 -161660 -169522 20550 11077 20417 9097.35 -7.41585 
1541 2 28.343 0.963 6.4 6.02122 -145751 -128604 -14837.4 10902 -11515 -113.463 -7.4146 
1585 2 30.177 9.626 6.4 6.02672 -146505 -134019 -2497.64 14490.6 23699.3 -8051.42 -7.41483 
1586 2 29.51 8.374 6.4 6.02188 -160999 -124429 17293.7 24778.9 2343.81 31359.1 -7.41593 
1587 2 30.26 7.171 6.4 6.02293 -109488 -187224 -18338.3 -17673.5 3798.24 -6396.7 -7.41388 
1588 2 29.594 5.92 6.4 6.02293 -125652 -180311 25155.4 15.1855 228.643 21264.6 -7.41609 
1589 2 30.344 4.717 6.4 6.02196 -143554 -133427 -27708.6 9718.29 4841.52 607.183 -7.41415 
1590 2 29.677 3.465 6.4 6.02191 -156370 -130455 22402.4 28762.6 8842.59 20666.8 -7.41608 
1591 2 30.427 2.262 6.4 6.02621 -153052 -173808 -28181.6 -11194.4 5515.9 13205.4 -7.41394 
1592 2 29.76 1.011 6.4 6.02279 -149107 -150701 2034.49 -4854.84 11086.3 25382.3 -7.41499 
1636 2 31.594 9.674 6.4 6.02688 -167296 -152449 -8944.53 2914.97 3480.99 17744.7 -7.4148 
1637 2 32.344 8.471 6.4 6.01892 -99493.3 -157721 7775.15 4985.08 14797.6 -15840.7 -7.41532 
1638 2 31.678 7.219 6.4 6.02042 -118832 -139196 -486.585 13779.1 -7739.35 15165.8 -7.41475 
1639 2 32.428 6.016 6.4 6.02688 -152771 -173440 -7955.64 -7280.43 17174.7 -997.894 -7.41483 
1640 2 31.761 4.765 6.4 6.02798 -170601 -160883 4855.06 7947.82 5182.39 23070.3 -7.41511 
1641 2 32.511 3.562 6.4 6.02192 -144910 -140521 -28464.4 8609.08 31650.3 21333.2 -7.41374 
1642 2 31.844 2.31 6.4 6.02088 -145481 -114608 -7941.1 12155.3 16186.8 43085.9 -7.41453 
1643 2 32.595 1.107 6.4 6.02215 -145875 -148317 -38855.5 -20289.4 14799.3 40135.6 -7.4135 
1687 2 34.429 9.77 6.4 6.02268 -143612 -165103 32560.3 -16191.6 26957.2 -14285.1 -7.41641 
1688 2 33.762 8.519 6.4 6.02453 -116476 -157538 -24021.9 4117.07 -5237.39 7469.67 -7.41351 
1689 2 34.512 7.316 6.4 6.02171 -143421 -143615 17538 16254.7 20946.9 -3228.32 -7.41574 
1690 2 33.845 6.064 6.4 6.022 -163738 -119688 -18921.9 23940.5 6389.56 10059.5 -7.41431 
1691 2 34.595 4.861 6.4 6.02664 -154158 -175085 -10020 -4843.13 43593 12556.9 -7.41459 
1692 2 33.928 3.61 6.4 6.02072 -150826 -112117 -26970.3 -27885 30936.5 25537.6 -7.41341 
1693 2 34.679 2.406 6.4 6.02071 -132982 -122239 -45217.2 -32385.4 45518.7 25024.1 -7.4128 
1694 2 34.012 1.155 6.4 6.02837 -155436 -161886 -47679.4 4108.11 20232.2 42843.8 -7.41296 
1733 2 35.846 9.818 6.4 6.02104 -158528 -128892 -33077.3 7609.09 3013.76 5492.66 -7.41358 
1734 2 35.929 7.364 6.4 6.02871 -167444 -149187 -30431.9 3114.81 2534.24 241.937 -7.41375 
1735 2 36.012 4.909 6.4 6.0216 -151200 -99661.3 -32893 6792.21 33806.1 -4021.44 -7.41368 
1736 2 36.096 2.455 6.4 6.01958 -149783 -124606 -51802.8 -13579.9 43780.1 -2113.56 -7.4124 
44 1 1.417 20.84 3 6.02605 -154950 -167076 -59777.5 2846.46 -1781.17 -9122.2 -7.41204 
45 1 0.667 19.637 3 6.0215 -152951 -139467 169776 -21405.6 2279.18 -1978.4 -7.42388 
46 1 1.334 18.385 3 6.02217 -157890 -121577 -44952.4 -19898.8 -8447.23 -8726.42 -7.41306 
47 1 0.584 17.182 3 6.02411 -168083 -193477 141808 11612.4 19529.5 -6368.78 -7.42277 
48 1 1.25 15.931 3 6.02253 -131522 -172564 -22834.3 11256 10614.6 -5386.74 -7.41362 
49 1 0.5 14.728 3 6.021 -151614 -142939 97186.8 -19307.4 47006.4 -3083.43 -7.42064 
50 1 1.167 13.476 3 6.02709 -161352 -117491 -19818.2 -21088.3 27339 -5460.05 -7.41391 
51 1 0.417 12.273 3 6.0285 -152046 -180023 58344.6 -3205.3 50172 4494.44 -7.41862 
52 1 1.084 11.022 3 6.02057 -141869 -104954 -29190.6 26615.6 13998.9 -6867.98 -7.4134 
96 1 2.834 20.792 3 6.02059 -150165 -124232 156591 -6067.05 921.034 12887.6 -7.42327 
97 1 3.501 19.54 3 6.02192 -152048 -133231 -31033.5 -13589.6 -10370.5 -10768.7 -7.41347 
98 1 2.751 18.337 3 6.02798 -170300 -176188 146658 -1930.51 9597.24 7401.44 -7.42259 
99 1 3.418 17.086 3 6.02688 -169675 -159282 -14379.8 2070.61 1276.8 -9024.9 -7.41461 
100 1 2.668 15.883 3 6.02042 -119018 -159217 111611 -7352.49 35729 7997.67 -7.42078 
101 1 3.334 14.631 3 6.01892 -118842 -138374 -7325.04 -7893.03 23618.7 -7625.11 -7.41467 
102 1 2.584 13.428 3 6.02688 -165380 -175044 68021.2 1256.31 53649.5 14569.4 -7.41912 
103 1 3.251 12.177 3 6.02451 -156310 -123546 -15579.1 18237 24351.2 -10072.7 -7.41397 
104 1 2.501 10.973 3 6.02075 -142927 -148014 36687.3 16465.5 39310.2 18905 -7.41705 
147 1 5.669 20.696 3 6.0205 -137814 -122572 -12953.1 37219.5 -17021.7 8364.09 -7.41436 
148 1 4.918 19.492 3 6.02072 -152436 -128771 125507 31191.6 2473.47 33633.1 -7.42116 
149 1 5.585 18.241 3 6.02683 -165668 -165747 738.03 7138.78 -11406.8 950.313 -7.41536 
150 1 4.835 17.038 3 6.02191 -162983 -139428 109366 -18614.1 24590.5 26077 -7.42053 
151 1 5.502 15.786 3 6.02191 -161786 -125710 10041.8 -13811.3 9379.77 -6464.06 -7.41568 
152 1 4.752 14.583 3 6.02413 -118199 -178643 72759 2309.36 50142.3 21143.7 -7.41835 
153 1 5.419 13.332 3 6.02228 -158408 -143125 5915.8 16414.4 24313.1 -16732.4 -7.41527 
154 1 4.668 12.129 3 6.02184 -142645 -123482 34444.6 -890.927 50277.9 19257.6 -7.41672 
155 1 5.335 10.877 3 6.02557 -156273 -124245 -1691.38 -18859.1 14835.6 -23296.8 -7.41483 
198 1 7.086 20.647 3 6.02075 -160570 -143645 84904.9 12253.6 -8954.82 56012.9 -7.41918 
199 1 7.753 19.396 3 6.02218 -152111 -147609 6326.58 21551.3 -27571.8 14689.8 -7.41594 
200 1 7.002 18.193 3 6.02199 -152970 -120486 85189.5 -2299.97 7857.7 45207.2 -7.41931 
201 1 7.669 16.941 3 6.02192 -158991 -131195 23642.7 -9567.66 -16090.8 -1124.53 -7.41624 
202 1 6.919 15.738 3 6.02913 -171071 -170273 67150.9 4159.71 33949.2 27515.7 -7.41829 
203 1 7.586 14.487 3 6.02913 -171371 -162624 30396.1 5276.37 5580.38 -22039.9 -7.41655 
204 1 6.836 13.284 3 6.02192 -155366 -135862 35736.1 -11338.7 49153.9 11239.1 -7.41683 
205 1 7.503 12.032 3 6.02059 -151054 -111361 26968.9 -2609.29 16273.6 -39450 -7.41638 
206 1 6.752 10.829 3 6.02218 -149360 -150302 4970.24 20377 36516.9 2554.27 -7.41536 
254 1 9.003 14.439 3 6.02191 -160103 -130276 33794.6 -10502.6 28787.5 6904.9 -7.41681 
256 1 8.92 11.984 3 6.02568 -161156 -168635 10877.2 9758.43 36049.7 -11088 -7.41559 
869 2 0 20.888 6.4 6.02795 -167202 -168100 174114 2181.02 24.9007 -35.3859 -7.42415 
870 2 0.083 18.433 6.4 6.01873 -113201 -157353 159959 -24657.2 8553.22 5876.16 -7.42306 
871 2 0.167 15.979 6.4 6.02647 -163809 -171914 120621 2668.51 35169.5 8887.84 -7.42219 
872 2 0.25 13.524 6.4 6.02492 -150784 -146045 76151 -17255.7 53727.7 3579.79 -7.41924 
873 2 0.333 11.07 6.4 6.01805 -100953 -159558 46288.7 8829.51 40369.6 -867.47 -7.41752 
913 2 2.167 19.733 6.4 6.02333 -126638 -189590 161716 -8408.23 1956.97 4447.96 -7.42369 