ITEM: TIMESTEP
203
ITEM: NUMBER OF ATOMS
14408
ITEM: BOX BOUNDS pp pp pp
0.0000000000000000e+00 1.0422819400000000e+02
0.0000000000000000e+00 1.8052852700000000e+02
0.0000000000000000e+00 1.8399999999999999e+01
ITEM: ATOMS id type x y z c_csym c_2[1] c_2[2] c_2[3] c_2[4] c_2[5] c_2[6] c_3 
166 1 0.880708 8.57915 7.38678 6.01791 -167766 -148550 -3460.83 -17241.8 12242.6 -3044.55 -7.41379 
167 1 0.14818 7.36536 7.38366 6.02412 -154145 -162433 2366.67 -11982.3 13996.9 -1335.97 -7.41396 
168 1 0.832635 6.1237 7.38112 6.02263 -164420 -151653 -1144.43 -8408.17 8411.5 -2536.39 -7.4137 
169 1 0.0994644 4.91026 7.37898 6.02654 -155221 -161001 839.993 -4997.91 8238.04 -897.279 -7.41372 
170 1 0.783476 3.66838 7.37746 6.02592 -161544 -154277 -52.7879 -3057.13 4830.34 -1913.92 -7.41362 
171 1 0.0499227 2.45514 7.37627 6.02852 -156493 -159472 316.726 -1131.91 3651.06 -460.137 -7.41359 
172 1 0.733714 1.21316 7.37568 6.0288 -159072 -156829 251.978 -638.311 1530.53 -1272.33 -7.41357 
173 1 5.92943e-07 8.24426e-07 7.37539 6.03004 -158023 -157935 261.414 -10.5037 0.0300012 0.00089478 -7.41356 
314 1 2.29823 8.55043 7.38746 6.01979 -161990 -154799 2806.99 -14223.4 16913 -4014.29 -7.41413 
315 1 2.98273 7.30872 7.3849 6.02 -173004 -143276 -1049.3 -11932 10369 -7465.09 -7.41384 
316 1 2.25013 6.09495 7.38176 6.02306 -160019 -156123 856.867 -5487.35 10581.3 -3670.09 -7.41382 
317 1 2.93417 4.85304 7.3802 6.02368 -167278 -148709 200.441 -5039.28 6629.69 -6248.07 -7.41373 
318 1 2.20096 3.6396 7.37806 6.02568 -158831 -157137 144.194 -258.689 5346.28 -3332.17 -7.41365 
319 1 2.88477 2.3976 7.37746 6.02693 -162306 -153551 463.448 -1272.36 3130.41 -5049.02 -7.41364 
320 1 2.15119 1.18436 7.37627 6.02752 -158076 -157635 144.329 2064.64 1218.58 -3068.35 -7.41358 
461 1 5.13197 8.49457 7.39064 6.01711 -184753 -131926 380.711 -14271.4 12721.5 -13145.4 -7.41411 
462 1 4.4002 7.28029 7.3865 6.01715 -167988 -148560 -202.204 -4759.22 13234.9 -6500.76 -7.41395 
463 1 5.08429 6.03835 7.38493 6.02101 -176036 -140418 1500.27 -5604.13 9007.95 -11477.3 -7.41396 
464 1 4.35164 4.82455 7.38175 6.0215 -163811 -152303 -852.965 2032.28 7342.27 -6342.97 -7.41374 
465 1 5.03547 3.58254 7.38115 6.02467 -168190 -148041 1422.92 -494.766 5315.6 -9753.49 -7.41382 
466 1 4.30224 2.36907 7.37897 6.02439 -160537 -155405 -534.111 5558.58 2533.07 -6244.27 -7.41365 
467 1 4.98603 1.12708 7.37928 6.02547 -161102 -154922 619.202 1687.36 1716.83 -8198.36 -7.41372 
608 1 6.5494 8.46673 7.39317 6.00972 -179176 -137681 -2741.59 -2655.55 15971.5 -9222 -7.41407 
609 1 7.23354 7.22475 7.39165 6.01709 -187789 -128842 4318.33 -4493.02 11727 -17453.1 -7.41434 
610 1 6.50172 6.01043 7.38744 6.01553 -171863 -144410 -3106.63 5984.87 9606.5 -9467.09 -7.41384 
611 1 7.1856 4.76838 7.38685 6.02194 -177019 -139483 3647.09 2209.79 8036.05 -15410.3 -7.41414 
612 1 6.45292 3.55454 7.38362 6.02004 -165586 -150343 -2233.75 10945 4100.28 -9656.64 -7.41374 
613 1 7.13675 2.31254 7.38397 6.02284 -166984 -149309 2014.98 5559.36 4278.69 -13410.9 -7.41396 
614 1 6.4035 1.09903 7.38175 6.02217 -160200 -155805 -665.574 12931.9 -477.582 -9972.59 -7.41374 
755 1 9.38165 8.41273 7.40013 6.01016 -202593 -114394 8971.59 -1550.03 14419.5 -23664.4 -7.41489 
756 1 8.65093 7.1977 7.39502 6.0081 -183151 -133450 -6971.67 11680.6 11874.6 -12375.8 -7.41391 
757 1 9.33486 5.95563 7.39448 6.01663 -188923 -127960 7550.5 7002.21 11033.1 -21618.2 -7.41462 
758 1 8.60301 4.74123 7.39026 6.01478 -173863 -142452 -5357.56 18389 5845.13 -13071.4 -7.41382 
759 1 9.28689 3.49922 7.39064 6.01992 -175982 -140790 4884.61 11881 7316.38 -19409.6 -7.41435 
760 1 8.55419 2.2853 7.38741 6.01838 -165349 -150770 -2751 21725.6 600.765 -13747.9 -7.41384 
761 1 9.23823 1.04345 7.38873 6.0165 -163551 -153061 1507.96 13663.4 3400.26 -17277 -7.41411 
902 1 10.799 8.38684 7.40412 5.99982 -197333 -119285 -12659.4 19100 13776.9 -14638.4 -7.41393 
903 1 11.483 7.14475 7.40366 6.00985 -203652 -113517 13344.3 13869.9 13955 -27691.1 -7.41528 
904 1 10.7522 5.92963 7.39863 6.00777 -185156 -131353 -10203 27843.2 7512.88 -16036.3 -7.41386 
905 1 11.4362 4.68762 7.39905 6.01606 -188012 -129320 9566.59 20503.5 10565.3 -25580.1 -7.41492 
906 1 10.7043 3.47312 7.39493 6.01368 -173742 -142839 -6421.57 32818.6 1763.92 -17251.5 -7.41392 
907 1 11.3884 2.23129 7.39626 6.01217 -172635 -144624 4752.92 23701.6 6791.04 -23305.8 -7.41457 
908 1 10.6557 1.01728 7.39313 6.01551 -162795 -153816 -1899.93 34586.5 -3312.7 -18448.3 -7.41408 
1049 1 13.6298 8.3362 7.41373 6.00217 -219562 -96859.6 20955 22443 16485.6 -32909.6 -7.41609 
1050 1 12.9003 7.12019 7.4082 6.00013 -199220 -117439 -16883.3 38865.4 8804.11 -18123.6 -7.41383 
1051 1 13.5844 5.8782 7.40862 6.00956 -202132 -115139 16150 31219 13700.4 -31166.6 -7.41565 
1052 1 12.8535 4.66297 7.40386 6.00841 -185073 -131818 -11913.1 45927.8 2805.54 -19994.2 -7.41394 
1053 1 13.5377 3.42117 7.40516 6.00799 -184391 -133226 9914.21 36167 10316.8 -29032 -7.41519 
1054 1 12.8058 2.20657 7.40131 6.01194 -171182 -145766 -5830.79 49281 -2686.33 -21681.7 -7.41416 
1055 1 13.4904 0.965074 7.4035 6.00311 -166567 -151031 2864.45 37684.7 6487.37 -26674.1 -7.41475 
1196 1 15.047 8.31326 7.41823 5.99261 -214517 -101866 -25245.1 50463.5 9517.06 -19116.4 -7.41371 
1197 1 15.7313 7.07134 7.41861 6.00239 -217233 -99297.4 24424.5 43154.5 16440.9 -35533 -7.41652 
1198 1 15.0016 5.85523 7.41352 6.00209 -198529 -118486 -19230.4 60112.6 3526.19 -21630.4 -7.41387 
1199 1 15.686 4.61351 7.41473 6.00329 -197992 -119501 16960.8 50334.3 13676.7 -33761.1 -7.41596 
1200 1 14.9551 3.39816 7.41044 6.00863 -182279 -135001 -11679.2 65608.7 -2175.25 -23851.6 -7.41417 
1201 1 15.6398 2.15674 7.41251 5.99806 -178158 -139775 8243.63 53584.5 10319.8 -31554.1 -7.4154 
1202 1 14.9078 0.942029 7.4091 6.00609 -165978 -151465 -3254.04 67296.1 -7355.77 -25865.5 -7.41456 
1343 1 17.8768 8.26725 7.42826 5.99523 -232034 -82796.7 33921.3 55319 18606.3 -38330.4 -7.41747 
1344 1 17.1485 7.05019 7.42314 5.99561 -212780 -103672 -28089.3 74323.6 3828.74 -22072.6 -7.41371 
1345 1 17.8331 5.80858 7.42418 5.99771 -212293 -104415 25568.5 65072.4 16622.2 -37031.6 -7.41684 
1346 1 17.1033 4.59239 7.41977 6.00459 -195111 -122204 -19337 82368.1 -1882.15 -24759.2 -7.41407 
1347 1 17.7882 3.35108 7.42164 5.99383 -191363 -126364 15489.2 70596.9 13904.9 -35160.7 -7.41617 
1348 1 17.0571 2.13563 7.41801 6.00184 -176852 -140721 -9246.78 86170.7 -7201.45 -27152.5 -7.41455 
1349 1 17.7426 0.894728 7.42066 5.9878 -169694 -148577 4375.71 72056.9 10581.4 -32809.2 -7.4155 
1490 1 19.2939 8.24796 7.43205 5.99001 -226711 -88620.6 -37956.9 87389 3736.48 -21470.6 -7.41346 
1491 1 19.9788 7.00652 7.43286 5.99273 -225593 -89015.4 35198.1 79314.4 18996.7 -38698.2 -7.41778 
1492 1 19.2503 5.78942 7.42854 6.00018 -208475 -108273 -28404.1 98368.1 -1826.86 -24468.7 -7.41387 
1493 1 19.9354 4.54827 7.43015 5.98926 -204700 -111889 24191.7 87437.9 17025.6 -37246.1 -7.41703 
1494 1 19.2055 3.332 7.42658 5.99842 -189208 -128235 -17031.7 104692 -7151.74 -27147.4 -7.41442 
1495 1 19.8911 2.09123 7.42895 5.9834 -182442 -135203 11651.2 91118.4 14353 -35214.4 -7.41624 
1496 1 19.16 0.875679 7.42613 5.99161 -169221 -148374 -4582.39 106523 -11962.5 -29533.9 -7.41507 
1637 1 22.1233 8.20728 7.44037 5.98737 -237346 -74588.3 45236.1 92057.9 20731.4 -38889.4 -7.41872 
1638 1 21.396 6.98928 7.43626 5.99547 -220804 -94460 -38287.2 112495 -1954.86 -23227.7 -7.41359 
1639 1 22.0815 5.74832 7.43755 5.9842 -217360 -97488.6 33776.6 102981 19549.3 -37843.7 -7.41793 
1640 1 21.3527 4.5312 7.43419 5.99595 -201590 -115088 -26121.6 121652 -7183.25 -26050.7 -7.41419 
1641 1 22.0386 3.2906 7.43625 5.9802 -195543 -121152 20321.5 109236 17585 -36195.9 -7.41705 
1642 1 21.3084 2.07427 7.43363 5.98774 -181168 -136072 -12374.6 125985 -11998.9 -28574.7 -7.41492 
1643 1 21.995 0.834134 7.43635 5.97368 -172379 -145347 5609.61 110890 14916.2 -33994.1 -7.41616 
1784 1 23.5404 8.19184 7.44268 5.99103 -231515 -81691.1 -48359.6 124069 -2180.38 -21350.8 -7.41326 
1785 1 24.2263 6.95114 7.44363 5.9801 -227881 -84113.6 43648.9 116402 21428.2 -37180.8 -7.41881 
1786 1 23.4987 5.73317 7.44051 5.99277 -213151 -102254 -35896.8 136179 -7242.14 -24175.6 -7.41389 
1787 1 24.1849 4.49279 7.44226 5.97644 -207520 -107417 29798.9 125435 20182.4 -35905.8 -7.41789 
1788 1 23.4558 3.27565 7.43992 5.98497 -193221 -123340 -21400.7 143251 -12012.6 -26723.8 -7.41465 
1789 1 24.1426 2.03569 7.44235 5.97069 -185238 -131399 14217.1 129593 18184 -34076.4 -7.41691 
1790 1 23.4123 0.819285 7.4407 5.97732 -172064 -144796 -5653.5 145265 -16207.5 -29001.3 -7.41553 
1931 1 26.37 8.15652 7.44844 5.97708 -235983 -72708.7 53311.8 127171 22678.1 -35565.1 -7.41966 
1932 1 25.6435 6.93775 7.4455 5.98938 -222566 -90652.2 -45766.9 147630 -7269.79 -21839.4 -7.41353 
1933 1 26.3302 5.69762 7.44692 5.97255 -217598 -94846.9 39516.2 138980 22126.4 -34605.6 -7.41871 
1934 1 25.6021 4.47969 7.44483 5.98322 -204024 -111182 -31044.9 157580 -11958.3 -24312.5 -7.41432 
1935 1 26.2893 3.23993 7.44699 5.96886 -197055 -117986 23604.7 145869 20786.8 -33136.5 -7.41769 
1936 1 25.5599 2.02278 7.44566 5.97452 -183833 -132212 -14604.6 162319 -16166.6 -26540.8 -7.41523 
1937 1 26.2477 0.783471 7.44837 5.96252 -174653 -141679 6325.32 147795 18692 -31190.3 -7.41662 
2078 1 27.7871 8.14468 7.44933 5.98688 -229563 -80957.7 -55278.2 155932 -7224.1 -19299.1 -7.41317 
2080 1 27.7473 5.68619 7.44849 5.98153 -212930 -100473 -40762.5 168667 -11801.7 -21624.9 -7.41394 
2081 1 28.4349 4.44666 7.45039 5.96608 -206955 -106055 33233 159201 22740.1 -31421.4 -7.41846 
2082 1 27.7065 3.22878 7.44929 5.97279 -194480 -120533 -24157.6 176174 -16012.4 -23740.9 -7.41485 
2083 1 28.3945 1.98965 7.45181 5.96092 -186586 -128498 15670.5 163777 21260.6 -29832.4 -7.41735 
2084 1 27.665 0.772464 7.4514 5.96505 -174377 -140958 -6235.27 178379 -19590.5 -25646.9 -7.41588 
2079 1 28.4744 6.90485 7.45044 5.96973 -225050 -84248.1 49022.1 149544 23454.7 -32577.5 -7.4195 
2225 1 30.6176 8.11419 7.45314 5.96791 -229664 -76011.9 58018.1 157113 24236.3 -30070.8 -7.42024 
2226 1 29.8915 6.89487 7.45116 5.97909 -219196 -91622.4 -50154.3 176423 -11522.6 -18867.8 -7.41354 
2227 1 30.5795 5.65561 7.45282 5.96348 -214278 -95966.3 42689.3 169415 24102.2 -29166.2 -7.41919 
2228 1 29.852 4.43705 7.4518 5.97195 -203065 -110314 -33810.4 186711 -15720.3 -20830.7 -7.41444 
2229 1 30.5404 3.19813 7.45413 5.95929 -196517 -116839 25283.8 176698 23199.7 -27892 -7.41807 
2230 1 29.8118 1.98027 7.45392 5.96346 -185043 -129483 -15751.4 191676 -19380.2 -22612.5 -7.41547 
2231 1 30.5007 0.741748 7.45669 5.95389 -176488 -138167 6527.67 178919 21531.1 -26276.1 -7.41691 
2372 1 32.0347 8.10544 7.45324 5.97752 -222682 -85003.7 -58974.5 181094 -11116.5 -16173.6 -7.41316 
2373 1 32.7232 6.86649 7.45467 5.96184 -218698 -88205.2 51704.1 176540 24952.4 -26566.2 -7.41989 
2374 1 31.9966 5.64732 7.45354 5.97178 -209132 -102073 -43203.2 193971 -15279.4 -17959.2 -7.41402 
2375 1 32.6854 4.40863 7.4557 5.95834 -203862 -107122 34782.9 186522 24582.2 -25553.3 -7.41877 
2376 1 31.9576 3.19016 7.45549 5.96272 -193615 -119566 -25418.6 201677 -19014.2 -19596.5 -7.41502 
2377 1 32.6468 1.9518 7.45814 5.95239 -186641 -126623 16170.2 191400 23460.4 -24249.9 -7.41759 
2378 1 31.918 0.733944 7.45868 5.95547 -176132 -137423 -6352.61 204069 -22086.1 -21081.1 -7.41613 
2519 1 34.8662 8.079 7.45632 5.96104 -220162 -82864.7 60134.5 180804 25372.7 -23770 -7.42054 
2520 1 34.1403 6.85931 7.45491 5.97061 -212346 -95990.8 -52117.3 198182 -14690.1 -15212.3 -7.41361 
2521 1 34.8296 5.62088 7.45689 5.95684 -208479 -99666.9 43922.4 193284 25490.9 -22964.4 -7.41944 
2522 1 34.1026 4.40186 7.45649 5.96262 -199623 -111684 -34907.4 208513 -18482.6 -16693.9 -7.41456 
2523 1 34.7921 3.16369 7.45901 5.9517 -194331 -117155 25765.6 200817 24871.4 -21925.4 -7.41826 
2524 1 34.0641 1.94527 7.45948 5.95485 -184937 -127790 -16075.8 213653 -21703.4 -18047.1 -7.41564 
2525 1 34.754 0.707431 7.46225 5.947 -177743 -135066 6355.25 203349 23498.6 -20676.6 -7.41706 
2666 1 36.2833 8.07274 7.45628 5.9699 -212705 -92204.3 -60443.8 199583 -13960.3 -12636 -7.41322 
2667 1 36.9731 6.83459 7.45809 5.95614 -209998 -94566.9 52570.8 197177 26003.7 -20237.2 -7.42007 
2668 1 36.2467 5.6151 7.45733 5.96298 -202944 -106006 -44012.4 212397 -17784.7 -13953.3 -7.41411 
2669 1 36.9366 4.37714 7.45969 5.95128 -199103 -109936 35089.3 207303 25843.9 -19414.5 -7.41891 
2670 1 36.2093 3.15823 7.45989 5.95484 -191200 -120125 -25703.3 220168 -21141.8 -15171.2 -7.41515 
2671 1 36.8995 1.92053 7.46254 5.94637 -185750 -125688 16052.1 212470 24955.3 -18424.5 -7.4177 
2672 1 36.1713 0.702138 7.46354 5.94845 -177303 -134423 -6199.24 222766 -23827.9 -16280.9 -7.41629 
2813 1 39.116 8.04946 7.45958 5.9562 -208644 -91889.9 60674.9 198419 26186.9 -17448.5 -7.42067 
2814 1 38.3902 6.8296 7.45834 5.96365 -203257 -102541 -52625.4 213512 -16926.4 -11397.2 -7.41369 
2815 1 39.0806 5.59188 7.46053 5.9511 -201002 -104958 44016.6 210979 26449.7 -16800.2 -7.41953 
2816 1 38.3538 4.37256 7.46028 5.95526 -194569 -114629 -35039.8 223848 -20398.3 -12474.3 -7.41467 
2817 1 39.0443 3.13502 7.46278 5.94623 -190981 -118616 25566.6 218708 26003.8 -16026.1 -7.41834 
2818 1 38.3167 1.91619 7.46344 5.94851 -183882 -127010 -15952.7 229097 -23283.8 -13464.4 -7.41577 
2819 1 39.0075 0.67889 7.46598 5.94253 -178387 -132468 5982.03 221552 24824.5 -15143.9 -7.41712 
2960 1 40.5332 8.04508 7.45976 5.96401 -200820 -101366 -60704 212102 -15918.3 -9033.85 -7.4133 
2961 1 41.224 6.80762 7.46178 5.95114 -199888 -102422 52489.7 211984 26747 -14138.4 -7.42013 
2962 1 40.4978 5.58797 7.46099 5.95599 -195207 -111514 -43977.3 224843 -19475.7 -9962.75 -7.41421 
2963 1 41.1886 4.35063 7.46329 5.94607 -193255 -113870 34779.7 222290 26707.7 -13543.1 -7.41895 
2964 1 40.4615 3.13143 7.46345 5.94897 -187655 -121741 -25507.2 232693 -22545.7 -10829.4 -7.41525 
2965 1 41.1525 1.89425 7.46582 5.94246 -184150 -125536 15646.7 227700 25960.8 -12868.3 -7.41774 
2966 1 40.4248 0.675454 7.46681 5.94366 -177867 -132015 -5936.05 235468 -24949.4 -11622.8 -7.4164 
3107 1 43.3671 8.0241 7.46358 5.95147 -195880 -102160 60490.5 210545 26778.7 -11461.3 -7.42071 
3108 1 42.6412 6.80422 7.46219 5.95671 -192892 -110572 -52464 223331 -18380.7 -7637.27 -7.41377 
3109 1 43.3325 5.56708 7.46431 5.94608 -192572 -111451 43630.6 223229 27117.5 -11015.5 -7.41956 
3110 1 42.6058 4.34761 7.46386 5.94971 -188540 -118792 -34753.8 233658 -21613.1 -8373.42 -7.41476 
3111 1 43.2971 3.11057 7.46602 5.9424 -186851 -120959 25107.3 231195 26769.1 -10515.4 -7.41835 
3112 1 42.5697 1.89146 7.46646 5.94412 -182144 -127037 -15648.4 239075 -24257.1 -9054.5 -7.41586 
3113 1 43.2612 0.654563 7.46847 5.93999 -178601 -130593 5552.91 234303 25704.9 -9971.55 -7.41714 
3254 1 44.7843 8.02103 7.46399 5.95722 -187836 -111845 -60478.2 219444 -17124.2 -5494.48 -7.41337 
3255 1 45.476 6.78412 7.46592 5.94636 -188909 -111309 52086 221704 27272.3 -8463.34 -7.42014 
3256 1 44.7497 5.56446 7.46483 5.95043 -186568 -118138 -43632.5 232173 -20489.3 -6091.73 -7.41429 
3257 1 45.4413 4.32758 7.46677 5.94238 -186571 -118716 34296.5 232197 27294.3 -8112.53 -7.41896 
3258 1 44.7143 3.10825 7.46656 5.94484 -183366 -124293 -25146.1 240136 -23360 -6653.68 -7.41533 
3259 1 45.4059 1.87144 7.46836 5.94007 -181869 -126178 15184.4 237881 26623.3 -7733.6 -7.41775 
3260 1 44.6784 0.652389 7.46898 5.94067 -177973 -130446 -5636.32 243186 -25573.6 -7169.63 -7.41647 
3402 1 46.8933 6.78173 7.46643 5.95095 -181727 -119641 -52113 228318 -19180 -3978.87 -7.41384 
3404 1 46.8585 4.32557 7.46728 5.94552 -181694 -123835 -34365.9 238776 -22256.7 -4413.19 -7.41482 
3406 1 46.8231 1.86965 7.46879 5.94135 -179783 -128096 -15299.5 244435 -24748 -4815.99 -7.41591 
3401 1 47.6194 8.00149 7.46814 5.94692 -182442 -113415 60127.8 217843 27197.3 -5891.17 -7.4207 
3403 1 47.5852 5.54503 7.46817 5.94257 -183367 -118704 43172.9 230733 27570.1 -5670.41 -7.41955 
3405 1 47.5503 3.08888 7.46884 5.93995 -182096 -124166 24640 238946 27266.8 -5434.46 -7.41835 
3407 1 47.5149 0.633008 7.47004 5.93898 -178358 -129697 5148.76 242402 26258.7 -5189.09 -7.41714 
3548 1 49.0367 7.99918 7.46863 5.9517 -174200 -123260 -60171.2 222207 -17694.2 -2027.88 -7.41342 
3549 1 49.7291 6.76269 7.47019 5.94304 -177206 -120967 51704.1 226867 27620.4 -3187.4 -7.42012 
3550 1 49.0025 5.54316 7.46866 5.94602 -177228 -125709 -43264.2 235059 -20947.7 -2325.85 -7.41434 
3551 1 49.6946 4.30661 7.46999 5.94006 -179277 -124455 33870.3 237651 27665.3 -3078 -7.41894 
3552 1 48.9675 3.0873 7.46924 5.94197 -178519 -127937 -24778.4 243262 -23705.7 -2607.05 -7.41538 
3553 1 49.6595 1.85072 7.47025 5.93885 -179041 -127910 14775.6 243677 27022.7 -2966.73 -7.41773 
3554 1 48.9322 0.631556 7.4703 5.93919 -177651 -130006 -5323.68 246592 -25813 -2862.7 -7.41651 
3695 1 51.873 7.98029 7.47272 5.94381 -168274 -125411 59857.3 220724 27461.1 -653.058 -7.42069 
3696 1 51.1464 6.76079 7.47064 5.94673 -169874 -129684 -51806.5 229024 -19435.1 -384.687 -7.41388 
3697 1 51.8389 5.5244 7.47178 5.94043 -173547 -126954 42832.4 233922 27841.5 -657.957 -7.41953 
3698 1 51.1119 4.30508 7.47036 5.94239 -174289 -130034 -34022.7 239696 -22440.4 -534.469 -7.41486 
3699 1 51.804 3.0686 7.47115 5.93882 -176661 -128425 24270.9 242510 27546.1 -666.763 -7.41833 
3700 1 51.0768 1.8494 7.47048 5.93975 -176838 -130223 -14963 245647 -24861.3 -669.264 -7.41595 
3701 1 51.7688 0.612884 7.47085 5.93857 -177436 -129887 4795.54 246295 26547.5 -683.896 -7.41712 
3842 1 53.2904 7.97821 7.47308 5.94772 -159907 -135895 -59957.5 220655 -17723.5 1414.42 -7.41345 
3843 1 53.9832 6.742 7.47407 5.94109 -164920 -131690 51479.9 227809 27809.6 1837.97 -7.42011 
3844 1 53.2562 5.52275 7.4721 5.94306 -167289 -134469 -42988 233817 -20946.9 1408.2 -7.41436 
3845 1 53.9486 4.28639 7.47268 5.93888 -171395 -131315 33583.7 238976 27848.7 1719.33 -7.41892 
3846 1 53.2213 3.06724 7.47135 5.94008 -173011 -132723 -24463.8 242302 -23673.1 1405.53 -7.4154 
3847 1 53.9134 1.83077 7.47148 5.93806 -175660 -130782 14453 245353 27194.7 1588.77 -7.41771 
3848 1 53.1861 0.611642 7.47088 5.93883 -176689 -130768 -5002.84 245936 -25747.3 1413.83 -7.41654 
3989 1 56.1277 7.95918 7.47667 5.94202 -153570 -138718 59755.6 219334 27576.2 4426.61 -7.42067 
3990 1 55.4006 6.74008 7.47428 5.94398 -157516 -141154 -51623.7 225531 -19221.6 3222.11 -7.4139 
3991 1 56.0933 5.50386 7.47471 5.93901 -163109 -136440 42657.5 233005 27944.4 4204.45 -7.41951 
3992 1 55.3659 4.28483 7.47281 5.94064 -166325 -137478 -33770.5 236536 -22234.9 3366.32 -7.41487 
3993 1 56.0582 3.04844 7.47275 5.9378 -170653 -133925 24022.7 241984 27622.8 3969.07 -7.41831 
3994 1 55.3307 1.82941 7.47147 5.93905 -173372 -133603 -14655.4 242804 -24658.3 3512.88 -7.41597 
3995 1 56.0228 0.592897 7.47093 5.93838 -175973 -131374 4492.19 246103 26587.1 3712.77 -7.4171 
4136 1 57.5453 7.95681 7.47667 5.94522 -145176 -150078 -59866.1 214848 -17263.4 4900.51 -7.41345 
4137 1 58.2383 6.72077 7.47701 5.93949 -152095 -143816 51415.2 224584 27839.7 6805.43 -7.42008 
4138 1 57.5107 5.50194 7.47471 5.94149 -156792 -144648 -42822.4 228384 -20533.6 5210.52 -7.41437 
4139 1 58.2033 4.26565 7.47449 5.93783 -162912 -139470 33435.3 236202 27844.1 6469.46 -7.4189 
4140 1 57.4755 3.04679 7.47265 5.93951 -166922 -138788 -24209.2 237223 -23300.9 5513.39 -7.41541 
4141 1 58.1677 1.81031 7.47191 5.93801 -171672 -134891 14212.6 242961 27134.5 6111.95 -7.41768 
4142 1 57.44 0.591364 7.47071 5.93875 -175141 -132764 -4669.3 241199 -25405.4 5813.78 -7.41655 
4283 1 60.3837 7.93687 7.47923 5.9404 -138588 -153416 59749.4 213741 27530.9 9542.54 -7.42063 
4284 1 59.6558 6.71831 7.47675 5.94267 -144652 -154003 -51537.6 217771 -18557.9 6924.88 -7.41388 
4285 1 60.3486 5.48214 7.47644 5.93821 -152292 -147237 42599.8 227886 27863.7 9105.89 -7.41948 
4286 1 59.6206 4.26354 7.47422 5.94016 -157814 -146329 -33591.5 229165 -21652.3 7406.92 -7.41487 
4287 1 60.3129 3.02712 7.47332 5.93793 -164257 -140763 23866.2 237321 27474.4 8649.86 -7.41827 
4288 1 59.585 1.8084 7.47158 5.93888 -169359 -138347 -14364.3 235797 -24144.5 7878.32 -7.41597 
4289 1 60.2768 0.571766 7.47017 5.93955 -174068 -134114 4227.59 241840 26344.9 8160.35 -7.41706 
4430 1 61.8013 7.93371 7.47858 5.94426 -130220 -165562 -59791.7 204682 -16301.3 8483.99 -7.41343 
4431 1 62.4944 6.6977 7.47825 5.93907 -139143 -157152 51380.1 217071 27680.2 11898.1 -7.42004 
4432 1 61.7661 5.47942 7.47588 5.94129 -145956 -156118 -42699.2 218622 -19690 9173.17 -7.41435 
4433 1 62.4585 4.24308 7.47489 5.93825 -154122 -148852 33344.5 229171 27611.9 11341.3 -7.41885 
4434 1 61.7302 3.02467 7.47278 5.93942 -160466 -146184 -23975.9 227855 -22567.8 9842.84 -7.4154 
4435 1 62.4221 1.78804 7.47122 5.93939 -167223 -140240 14016.1 236367 26791 10753.4 -7.41763 
4436 1 61.6941 0.569429 7.46962 5.9395 -173138 -135943 -4311.43 232174 -24764.2 10491.4 -7.41654 
4577 1 64.6407 7.91208 7.4795 5.94053 -123778 -169232 59578.9 203760 27286.4 14867.6 -7.42056 
4578 1 63.912 6.69418 7.47724 5.94293 -131771 -168087 -51382.8 205542 -17395 10778.2 -7.41385 
4579 1 64.6047 5.45795 7.47624 5.93907 -141409 -159161 42483.4 218370 27547 14203.9 -7.41941 
4580 1 63.876 4.23991 7.47401 5.9405 -149043 -156335 -33384.6 217295 -20641.2 11677.6 -7.41484 
4581 1 64.568 3.00332 7.47236 5.93966 -157498 -148602 23704.1 228274 27034.8 13514.3 -7.4182 
4582 1 63.8395 1.78507 7.47043 5.93999 -164862 -144140 -14047.2 224320 -23269.5 12547.1 -7.41595 
4583 1 64.5309 0.548175 7.46831 5.94228 -171667 -137876 3975.37 233169 25740.5 12777.1 -7.41699 
4724 1 66.0585 7.90759 7.47788 5.94506 -115537 -182015 -59423.9 189890 -14755.2 12176 -7.4134 
4726 1 66.0223 5.45389 7.47486 5.94224 -135129 -168551 -42408.8 204158 -18332.1 13339.6 -7.41431 
4728 1 65.9854 2.99953 7.47119 5.94103 -153746 -154536 -23654.5 213731 -21391.8 14464.8 -7.41536 
4730 1 65.9482 0.544486 7.46731 5.9419 -170715 -140123 -3915.84 218415 -23748.7 15536.7 -7.41651 
4725 1 66.7514 6.6715 7.47694 5.94055 -126478 -171328 51049 204947 27277 17255.5 -7.41993 
4727 1 66.7144 4.21736 7.47319 5.94049 -145348 -159113 33103.4 217454 27078.3 16457.1 -7.41875 
4729 1 66.6768 1.76263 7.46897 5.94253 -162548 -146481 13769.4 225071 26073.6 15615.4 -7.41754 
4870 1 68.2055 9.11943 7.4774 5.94788 -98016.6 -197822 -66524.9 171825 -11767.8 13308.1 -7.41298 
4871 1 68.8988 7.88351 7.47659 5.94283 -109900 -185430 58725.9 188912 26804.3 20499.4 -7.42039 
4872 1 68.1691 6.66636 7.47491 5.94478 -119296 -182741 -50788.1 188330 -15615.1 14772.2 -7.41382 
4873 1 68.8615 5.42993 7.47331 5.94204 -130959 -171498 41939.6 203865 26926.3 19590.6 -7.41927 
4874 1 68.1319 4.21257 7.47147 5.94279 -140348 -166961 -32921.2 200385 -19084.9 16189.5 -7.4148 
4875 1 68.8234 2.97568 7.46925 5.94341 -150814 -157082 23326.6 214135 26212.3 18638.7 -7.41807 
4876 1 68.0942 1.75802 7.46755 5.94295 -160170 -150666 -13621.2 207703 -21923.2 17543.8 -7.4159 
4877 1 68.785 0.520724 7.46493 5.94692 -168935 -142348 3685.79 219390 24665 17619.4 -7.41687 
5017 1 71.0468 9.09375 7.47489 5.94603 -92282.7 -200935 65128.7 170340 26145.1 23904.2 -7.42076 
5018 1 70.3166 7.8771 7.47379 5.94804 -101957 -198506 -58176.1 169914 -12475 15905.6 -7.41337 
5019 1 71.0092 6.64078 7.47231 5.94447 -114885 -185449 49852.3 187488 26589.9 22899.8 -7.41971 
5020 1 70.2791 5.42394 7.47089 5.94544 -124909 -181227 -41546 184312 -16308.6 17651.1 -7.41427 
5021 1 70.9707 4.18709 7.46872 5.94508 -137070 -169503 32337.4 200295 26167 21839.2 -7.41857 
5022 1 70.2409 2.96995 7.46722 5.9448 -147152 -163216 -23035.8 194131 -19624.4 19324.7 -7.4153 
5023 1 70.9317 1.73263 7.46459 5.94789 -157885 -153112 13310.7 208205 24879.2 20707.9 -7.41738 
5024 1 70.2023 0.515079 7.46333 5.94636 -167979 -144829 -3474.43 199092 -22220 20891 -7.41644 
5164 1 72.4648 9.08588 7.47129 5.95109 -83944.8 -215643 -64149.7 149114 -8908.17 16655 -7.41298 
5165 1 73.1577 7.84972 7.46997 5.94795 -97985.3 -200710 56407.8 168508 26097.5 26320 -7.42006 
5166 1 72.427 6.63341 7.4691 5.94846 -108054 -196926 -49129.2 165541 -13034.5 18764.8 -7.41378 
5167 1 73.1188 5.39663 7.46704 5.94772 -121725 -183355 40397.5 183520 25958.3 25173.8 -7.41899 
5168 1 72.3883 4.18004 7.46596 5.94758 -132294 -177462 -31812.4 177654 -16797.6 20791.7 -7.41474 
5169 1 73.0791 2.94271 7.46336 5.94972 -144636 -165433 22413.4 193997 24922.3 23938.2 -7.41784 
5170 1 72.3491 1.72574 7.46233 5.9483 -155564 -157378 -12953.3 185182 -19923.1 22701.2 -7.41581 
5171 1 73.0391 0.487902 7.45948 5.95395 -166009 -147214 3308.52 199483 23004.8 22595.7 -7.41667 
5311 1 75.3068 9.05654 7.46623 5.9526 -81212 -216788 61134 147156 25502.5 29711.4 -7.42028 
5312 1 74.5756 7.84076 7.46597 5.95159 -90631.4 -213654 -55197.4 144301 -9252.26 19430.1 -7.41337 
5313 1 75.2676 6.60407 7.46401 5.9515 -105703 -198116 47027.3 164033 25625 28534.1 -7.4193 
5314 1 74.5365 5.38806 7.46346 5.95017 -116074 -192940 -39503.3 158491 -13403.8 21839.7 -7.41422 
5315 1 75.2274 4.15074 7.46093 5.95261 -130196 -179043 30546.7 176753 24822.5 27225.4 -7.41823 
5316 1 74.4966 2.93437 7.46031 5.9508 -141192 -171535 -21804.2 168299 -17045.3 24121.2 -7.41521 
5317 1 75.1866 1.69647 7.45745 5.95598 -153561 -159517 12446.9 184779 23108 25785.7 -7.4171 
5318 1 74.4564 0.479636 7.45703 5.95339 -165039 -149671 -2985.57 173429 -19963.1 26217.3 -7.4163 
5458 1 76.7249 9.04581 7.46155 5.95585 -73563.1 -230675 -59253 121096 -4973.44 19534.6 -7.41304 
5459 1 77.4171 7.80924 7.45967 5.95656 -89952.3 -213244 51724.4 142153 25225.1 31726.6 -7.41948 
5460 1 76.6855 6.59379 7.45965 5.95364 -99458.6 -209049 -45591.1 136869 -9429.24 22347.6 -7.41377 
5461 1 77.3765 5.3565 7.45715 5.95673 -115077 -193226 37193 156704 24622.6 30407.5 -7.4185 
5462 1 76.645 4.14074 7.45702 5.95347 -125814 -186645 -29533 148657 -13542 25019.1 -7.41465 
5463 1 77.3349 2.90281 7.45415 5.95914 -139739 -172733 20608.9 166979 23082.8 28911.3 -7.41744 
5464 1 76.604 1.68662 7.45414 5.95544 -151405 -163617 -11859.7 156101 -17027.3 27496.7 -7.41566 
5465 1 77.293 0.448104 7.45118 5.96378 -163059 -151970 2839.49 172469 20637 27236.9 -7.41636 
5605 1 79.5673 9.012 7.45427 5.963 -75903.8 -227952 54026.4 118466 24833.9 34474.5 -7.41949 
5606 1 78.8351 7.79706 7.45464 5.95832 -83436.5 -225096 -49553.9 113338 -4896.22 22189.7 -7.41342 
5607 1 79.5263 6.55984 7.45212 5.96221 -100742 -207279 41824.2 134344 24383.3 33233.1 -7.41863 
5608 1 78.7942 5.34466 7.45244 5.95733 -110074 -202022 -35588.4 126715 -9405.8 25250.5 -7.41417 
5609 1 79.4842 4.10671 7.44952 5.9636 -125843 -186238 27241 146401 22974.8 31748.3 -7.41767 
5610 1 78.7525 2.89117 7.44993 5.95846 -136677 -178330 -19586.8 136087 -13427.3 28109.2 -7.41506 
5611 1 79.4414 1.65257 7.44688 5.9672 -150140 -164925 11017 154092 20642.7 30040.5 -7.41666 
5612 1 78.7104 0.436519 7.4476 5.96172 -162209 -154355 -2439 141148 -16749.7 30693.3 -7.41605 
5752 1 80.9854 8.99779 7.4488 5.96435 -69292 -240031 -50949.8 88679.3 128.703 21260.8 -7.4132 
5753 1 81.6767 7.76063 7.44616 5.96908 -88147.3 -220284 43990.4 110340 24168.2 35386.4 -7.41859 
5754 1 80.9441 6.54599 7.44674 5.96251 -95385.6 -216788 -39444.2 103121 -4679.26 24681.1 -7.41379 
5755 1 81.6341 5.30804 7.4437 5.96945 -112759 -199130 31805.4 123666 22838.4 33993.5 -7.41774 
5756 1 80.9018 4.0931 7.44446 5.96275 -122110 -192869 -25595.7 113973 -9173.55 27889.2 -7.41454 
5757 1 81.5906 2.85444 7.44125 5.97194 -137118 -177666 17636.3 133113 20574.3 32322.9 -7.41683 
5758 1 80.8589 1.63907 7.44233 5.96512 -148326 -168528 -10162.2 120932 -13077.7 30827.3 -7.4154 
5759 1 81.5466 0.399762 7.43924 5.97653 -160461 -156147 2301.55 138244 17432.4 30394.8 -7.41591 
5899 1 83.8277 8.95887 7.43978 5.97728 -78817.5 -231153 43402.7 85565.7 24024.9 36556.8 -7.41837 
5900 1 83.0947 7.74467 7.44037 5.96905 -82652.1 -229876 -40699 78744.1 531.906 23225.7 -7.41354 
5901 1 83.7848 6.50673 7.4371 5.97663 -101935 -210308 33884.8 99664.9 22725.3 35318 -7.41765 
5902 1 83.0519 5.29233 7.438 5.96842 -108601 -206226 -29378.6 90660.3 -4344.78 26709.2 -7.41412 
5903 1 83.7407 4.05361 7.43456 5.97802 -125457 -189308 22166.6 110329 20480.2 33751.6 -7.41686 
5904 1 83.0082 2.83887 7.43587 5.96986 -134617 -182170 -16150.4 99033 -8775.5 29929.4 -7.41483 
5905 1 83.6959 1.59946 7.43253 5.98139 -148421 -168250 8928.65 117142 17367.3 31898.6 -7.41604 
5906 1 82.9641 0.38424 7.43436 5.97335 -159825 -158006 -1835.39 103623 -12572.3 32824 -7.41563 
6046 1 85.2457 8.94075 7.43391 5.97691 -73342.8 -240351 -39154.9 54578.6 6061.89 20897.9 -7.41343 
6048 1 85.2026 6.48886 7.43105 5.97542 -97597.5 -217444 -30598.7 67144.6 907.811 24535.5 -7.41383 
6050 1 85.1584 4.03589 7.42859 5.97594 -122497 -194193 -19935.3 76498.7 -3966.91 27913.2 -7.41437 
6052 1 85.1134 1.58182 7.42688 5.97844 -147049 -170814 -7848.94 82489.8 -8315.09 31002.8 -7.41501 
6047 1 85.9359 7.70283 7.43029 5.98499 -94362.9 -218914 33273.8 75400.5 22659.5 35461.1 -7.4174 
6049 1 85.8914 5.2501 7.42731 5.98529 -116090 -198836 24249.6 86820.3 20396.6 34030 -7.41673 
6051 1 85.8459 2.79641 7.42497 5.98745 -137720 -178752 13476.4 94823.6 17282.6 32301.4 -7.41602 
6053 1 85.8 0.341696 7.42361 5.99142 -158615 -158846 1667.39 99137.5 13404.4 30317 -7.41533 
6193 1 88.0872 8.89649 7.42393 5.9942 -90831.8 -224103 30023 51835.6 22621 34324.7 -7.41701 
6194 1 87.3538 7.68282 7.42424 5.9836 -89908.6 -225653 -29165 44475.3 6369.08 21477.6 -7.41369 
6195 1 88.0425 6.44403 7.42014 5.99347 -110170 -205382 23787.3 63737.6 20331.5 33004.6 -7.41646 
6196 1 87.3091 5.23023 7.42111 5.98323 -112821 -203645 -21264.3 54508.7 1145.65 24843.3 -7.41404 
6197 1 87.9966 3.99067 7.41718 5.99447 -129713 -186800 15671.7 72481.9 17201.3 31399.9 -7.41587 
6198 1 87.2635 2.77662 7.41888 5.98474 -135846 -181680 -11718.5 61466.1 -3670.98 27953.8 -7.41451 
6199 1 87.95 1.53639 7.41534 5.99712 -148794 -168541 6272.45 77955.5 13364.2 29580.7 -7.41529 
6200 1 87.2174 0.321944 7.41782 5.98805 -158284 -159881 -1226.4 65219.3 -7937.78 30806.3 -7.41507 
6340 1 89.5052 8.87447 7.41823 5.99262 -86138.5 -230071 -25245 23499.1 11796.3 17800 -7.41371 