ITEM: TIMESTEP
0
ITEM: NUMBER OF ATOMS
14408
ITEM: BOX BOUNDS pp pp pp
0.0000000000000000e+00 1.0422819400000000e+02
0.0000000000000000e+00 1.8052852700000000e+02
0.0000000000000000e+00 1.8399999999999999e+01
ITEM: ATOMS id type x y z c_csym c_2[1] c_2[2] c_2[3] c_2[4] c_2[5] c_2[6] c_3 
166 1 0.810214 8.58705 7.5 6.03193 -145479 -132068 -152962 -464.067 15860.4 -2686.57 -7.41081 
167 1 0.0868086 7.36749 7.5 6.03192 -134393 -142059 -152311 168.549 16301.4 -552.828 -7.41086 
168 1 0.781277 6.13122 7.5 6.03193 -142418 -133257 -155272 -464.498 11311.1 -2292.64 -7.4107 
169 1 0.0578724 4.91166 7.5 6.03192 -134716 -140258 -155695 113.998 10299.5 -404.251 -7.41069 
170 1 0.752341 3.67539 7.5 6.03193 -139816 -134600 -156981 -465.3 6813.6 -1899.04 -7.41062 
171 1 0.0289362 2.45583 7.5 6.03192 -135562 -138506 -157542 58.0135 4906.21 -220.303 -7.41059 
172 1 0.723405 1.21956 7.5 6.03191 -137697 -136094 -157929 -466.165 2277.37 -1530.97 -7.41058 
173 1 0 0 7.5 6.0319 -136943 -136952 -158104 59.9999 0.0208944 0.0788903 -7.41057 
314 1 2.22809 8.57034 7.5 6.03194 -134447 -143120 -149873 2124.69 19225.9 -4113.09 -7.41098 
315 1 2.92256 7.33408 7.5 6.03194 -143873 -133011 -153063 -1340.93 13734.3 -7605.66 -7.41081 
316 1 2.19915 6.11451 7.5 6.03194 -134508 -141306 -154031 1934.97 12904.3 -4110.28 -7.41077 
317 1 2.89362 4.87825 7.5 6.03194 -141054 -134275 -155256 -1512.58 9171.63 -6837.12 -7.4107 
318 1 2.17022 3.65868 7.5 6.03194 -135094 -139521 -156527 1727.83 7214.16 -4105.93 -7.41064 
319 1 2.86468 2.42242 7.5 6.03191 -138704 -135700 -156762 -1687.51 4612.44 -6117.57 -7.41063 
320 1 2.14128 1.20286 7.5 6.03191 -136217 -137921 -157615 1568.76 2084.23 -4111.99 -7.41059 
461 1 5.06384 8.53693 7.5 6.03194 -145446 -133186 -149159 -2023.91 16525.1 -13362.6 -7.411 
462 1 4.34043 7.31737 7.5 6.03194 -134607 -142746 -151698 3890.33 15563.6 -7780.21 -7.41088 
463 1 5.0349 6.0811 7.5 6.03194 -142445 -134364 -151979 -2364.12 11898.8 -12238.9 -7.41087 
464 1 4.31149 4.86154 7.5 6.03194 -134934 -140934 -154757 3545.56 9530.82 -7938.05 -7.41073 
465 1 5.00596 3.62527 7.5 6.03194 -139893 -135702 -154182 -2714.27 7271.16 -11159.4 -7.41076 
466 1 4.28256 2.40571 7.5 6.03191 -135767 -139180 -156278 3172.88 4095.12 -8133.74 -7.41065 
467 1 4.97703 1.16944 7.5 6.03191 -137842 -137302 -155599 -3126.91 2571.18 -10181.2 -7.41069 
608 1 6.48171 8.52022 7.5 6.03194 -134920 -144561 -148855 5954.14 18278.2 -11452.8 -7.41101 
609 1 7.17618 7.28396 7.5 6.03194 -143953 -134866 -146901 -3001.46 14972.2 -18125.2 -7.41113 
610 1 6.45277 6.0644 7.5 6.03194 -134999 -142734 -152394 5492.12 11903.6 -11794.3 -7.41083 
611 1 7.14724 4.82813 7.5 6.03194 -141229 -136116 -149934 -3527.38 10281.3 -16722.3 -7.41098 
612 1 6.42384 3.60857 7.5 6.03194 -135579 -140935 -154265 4977.65 6115.37 -12173.6 -7.41075 
613 1 7.11831 2.3723 7.5 6.03191 -138955 -137536 -152257 -4062.64 5524.17 -15404.8 -7.41086 
614 1 6.3949 1.15274 7.5 6.03191 -136676 -139324 -154716 4486.12 859.568 -12628.4 -7.41073 
755 1 9.31746 8.48681 7.5 6.03194 -145537 -135771 -139807 -3410.72 18298.1 -24407.8 -7.41149 
756 1 8.59405 7.26725 7.5 6.03194 -135273 -144881 -149588 7538.07 14321.8 -15660.2 -7.41096 
757 1 9.28852 6.03098 7.5 6.03194 -142684 -136926 -143781 -4107.04 13604.2 -22767.5 -7.41129 
758 1 8.56512 4.81142 7.5 6.03194 -135611 -143065 -151728 6903.18 8182.57 -16255.5 -7.41086 
759 1 9.25958 3.57515 7.5 6.03194 -140251 -138251 -147131 -4825.72 8802.24 -21161.3 -7.41112 
760 1 8.53618 2.35559 7.5 6.03191 -136425 -141305 -152314 6206.1 2581.15 -16912.5 -7.41084 
761 1 9.23065 1.11932 7.5 6.03191 -138290 -139846 -149665 -5608.41 3856.95 -19667.8 -7.41098 
902 1 10.7353 8.47011 7.5 6.03194 -135727 -147304 -146488 9638 16713 -19423.3 -7.4111 
903 1 11.4298 7.23384 7.5 6.03194 -144217 -138107 -135531 -4440.84 17132 -29140.1 -7.41172 
904 1 10.7064 6.01428 7.5 6.03194 -135850 -145501 -148813 8913.54 10275.9 -20303.1 -7.41099 
905 1 11.4009 4.77801 7.5 6.03194 -141664 -139337 -140001 -5338.58 12351.2 -27343.3 -7.41148 
906 1 10.6775 3.55845 7.5 6.03194 -136431 -143717 -149455 8091.65 4334.47 -21201.7 -7.41097 
907 1 11.3719 2.32218 7.5 6.03191 -139521 -140742 -143751 -6253.23 7399.12 -25592.7 -7.41128 
908 1 10.6485 1.10262 7.5 6.03191 -137488 -142117 -148656 7259.54 -1131.51 -22168.8 -7.41102 
1049 1 13.5711 8.43669 7.5 6.03194 -145782 -139614 -125077 -4527.46 20698.9 -35580.3 -7.41226 
1050 1 12.8477 7.21713 7.5 6.03194 -136258 -148150 -145672 10956.4 12316.6 -24147.1 -7.41113 
1051 1 13.5421 5.98086 7.5 6.03194 -143159 -140746 -130713 -5588.59 16052.3 -33729.1 -7.41197 
1052 1 12.8187 4.7613 7.5 6.03194 -136634 -146391 -146291 10044.6 6090.13 -25357 -7.41111 
1053 1 13.5132 3.52503 7.5 6.03194 -140907 -142049 -135751 -6687.84 11165.7 -31827.8 -7.4117 
1054 1 12.7898 2.30547 7.5 6.03191 -137433 -144674 -145341 9026 316.817 -26578.6 -7.41117 
1055 1 13.4843 1.0692 7.5 6.03191 -139077 -143619 -139967 -7851.16 6045.15 -29961.3 -7.41147 
1196 1 14.989 8.41999 7.5 6.03194 -136786 -150878 -142478 12958.1 14182.4 -27554.4 -7.41127 
1197 1 15.6834 7.18372 7.5 6.03194 -144692 -142416 -119210 -5579.14 19736.2 -40007.2 -7.41257 
1198 1 14.96 5.96416 7.5 6.03194 -136998 -149199 -142987 12003.2 7766.97 -29160.9 -7.41126 
1199 1 15.6545 4.72789 7.5 6.03194 -142376 -143623 -125558 -6845.48 15029.1 -38093.6 -7.41223 
1200 1 14.9311 3.50833 7.5 6.03194 -137607 -147513 -141812 10895 1743.28 -30704 -7.41134 
1201 1 15.6255 2.27206 7.5 6.03191 -140408 -144993 -131221 -8137.21 10035.6 -36107.5 -7.41192 
1202 1 14.9021 1.0525 7.5 6.03191 -138631 -145987 -139189 9733.77 -3869.66 -32228.5 -7.41149 
1343 1 17.8247 8.38657 7.5 6.03194 -146211 -144260 -105545 -5330.47 23207.2 -45817.5 -7.41329 
1344 1 17.1013 7.16701 7.5 6.03194 -137471 -151990 -139728 13886.4 9248.91 -32355.6 -7.4114 
1345 1 17.7958 5.93074 7.5 6.03194 -143888 -145376 -113169 -6733.11 18820 -44043.2 -7.41288 
1346 1 17.0724 4.71118 7.5 6.03194 -137931 -150405 -138251 12740.7 3067.25 -34294.6 -7.4115 
1347 1 17.7668 3.47492 7.5 6.03194 -141865 -146641 -120277 -8190.14 14066.4 -42075.3 -7.41249 
1348 1 17.0434 2.25535 7.5 6.03191 -138743 -148827 -135215 11435.4 -2741.84 -36133 -7.41167 
1349 1 17.7379 1.01909 7.5 6.03191 -140187 -148147 -126610 -9708.57 8987.79 -39990.9 -7.41215 
1490 1 19.2426 8.36987 7.5 6.03194 -137984 -154588 -136715 15598.6 10409.5 -34691.1 -7.41154 
1491 1 19.937 7.1336 7.5 6.03194 -145393 -147209 -98700.7 -6375.32 22352.2 -49309.4 -7.41365 
1492 1 19.2136 5.91404 7.5 6.03194 -138349 -153176 -134860 14476.8 4182.84 -37088.1 -7.41165 
1493 1 19.9081 4.67777 7.5 6.03194 -143365 -148384 -107190 -7963.16 17970.8 -47503.4 -7.41318 
1494 1 19.1847 3.45821 7.5 6.03194 -139033 -151711 -131347 13142.1 -1736.04 -39302 -7.41186 
1495 1 19.8792 2.22194 7.5 6.03191 -141598 -149684 -115091 -9581.48 13201.4 -45459 -7.41275 
1496 1 19.1558 1.00238 7.5 6.03191 -140051 -150360 -126417 11706 -7293.14 -41359.8 -7.41213 
1637 1 22.0783 8.33646 7.5 6.03194 -146835 -149004 -82390.2 -5814.19 25448.8 -53555 -7.41451 
1638 1 21.3549 7.11689 7.5 6.03194 -138793 -155645 -131848 16004.2 4983.47 -38858.2 -7.41179 
1639 1 22.0494 5.88063 7.5 6.03194 -144864 -150104 -92136.2 -7486.72 21574.2 -52039.8 -7.41399 
1640 1 21.326 4.66106 7.5 6.03194 -139401 -154374 -127802 14705.8 -945.396 -41490.7 -7.41202 
1641 1 22.0204 3.4248 7.5 6.03194 -143094 -151305 -101516 -9225.02 17234.9 -50170.6 -7.41347 
1642 1 21.297 2.20523 7.5 6.03191 -140275 -153054 -122243 13194.2 -6552.63 -43888.6 -7.41233 
1643 1 21.9915 0.968967 7.5 6.03191 -141571 -152691 -110237 -11018.4 12493.1 -48008.3 -7.41299 
1784 1 23.4962 8.31975 7.5 6.03194 -139190 -157637 -129422 17222.2 5386.26 -39456.7 -7.4119 
1785 1 24.1907 7.08348 7.5 6.03194 -146308 -151687 -75405.3 -6807.71 24718.5 -55388.8 -7.41488 
1786 1 23.4673 5.86392 7.5 6.03194 -139779 -156634 -124798 16027.5 -454.927 -42515.8 -7.41216 
1787 1 24.1617 4.62765 7.5 6.03194 -144592 -152811 -86111.7 -8616.49 20926.8 -53810 -7.41429 
1788 1 23.4383 3.40809 7.5 6.03194 -140599 -155515 -118575 14567.4 -6028.81 -45278.7 -7.41251 
1789 1 24.1328 2.17182 7.5 6.03191 -143027 -153997 -96397.4 -10454.2 16671.2 -51832.9 -7.41373 
1790 1 23.4094 0.95226 7.5 6.03191 -141657 -154444 -111009 12960.4 -11257.8 -47748.4 -7.41293 
1931 1 26.3319 8.28634 7.5 6.03194 -147641 -153024 -57383.6 -5983.54 27281.6 -57345.7 -7.41585 
1932 1 25.6085 7.06677 7.5 6.03194 -140094 -158331 -122533 17012 -320.139 -42289.5 -7.41227 
1933 1 26.303 5.83051 7.5 6.03194 -146041 -154091 -69211.6 -7806.2 24137.7 -56138.3 -7.4152 
1934 1 25.5796 4.61095 7.5 6.03194 -140916 -157490 -115630 15672.3 -5784.74 -45405.9 -7.41265 
1935 1 26.2741 3.37468 7.5 6.03194 -144525 -155190 -80885.5 -9696.11 20466.6 -54449.2 -7.41456 
1936 1 25.5507 2.15512 7.5 6.03191 -141910 -156530 -107295 14076.3 -10935.6 -48180.9 -7.41311 
1937 1 26.2451 0.918848 7.5 6.03191 -143133 -156401 -92081.3 -11630.4 16334.3 -52322.3 -7.41395 
2078 1 27.7498 8.26963 7.5 6.03194 -140278 -159349 -121165 17577.8 -552.695 -40834.3 -7.41233 
2080 1 27.7209 5.8138 7.5 6.03194 -141154 -158841 -113595 16419.2 -5849.88 -44250.6 -7.41275 
2081 1 28.4153 4.57753 7.5 6.03194 -145976 -156095 -64064 -8741.15 23758.2 -55685.2 -7.41547 
2082 1 27.6919 3.35797 7.5 6.03194 -142175 -158152 -104504 14961.2 -10870.4 -47303.4 -7.41325 
2083 1 28.3864 2.1217 7.5 6.03191 -144589 -157121 -76699.3 -10646.7 20237.2 -53848.4 -7.41477 
2084 1 27.663 0.902141 7.5 6.03191 -143327 -157436 -94180 13323 -15526.2 -49974.5 -7.41382 
2079 1 28.4443 7.03336 7.5 6.03194 -147387 -155054 -51228.1 -6856.01 26766.6 -57018.5 -7.41617 
2225 1 30.5856 8.23622 7.5 6.03194 -148579 -155638 -32625.7 -5830.94 28758.3 -56422.4 -7.41718 
2226 1 29.8622 7.01666 7.5 6.03194 -141248 -159486 -112603 16737.8 -6210.18 -41902 -7.4128 
2227 1 30.5566 5.78039 7.5 6.03194 -147334 -156640 -46359.6 -7652.59 26464.6 -55473 -7.41643 
2228 1 29.8332 4.56083 7.5 6.03194 -142343 -159123 -102802 15476.7 -11067.7 -45166.6 -7.41333 
2229 1 30.5277 3.32456 7.5 6.03194 -146043 -157599 -60189.3 -9532.18 23611.6 -53982.9 -7.41567 
2230 1 29.8043 2.105 7.5 6.03191 -143512 -158574 -91669.7 13936.8 -15578.2 -48044.6 -7.41394 
2231 1 30.4988 0.868729 7.5 6.03191 -144742 -158589 -73760.1 -11442.9 20255.3 -51982.8 -7.41492 
2372 1 32.0034 8.21951 7.5 6.03194 -141152 -159404 -112716 16586.7 -6807.95 -38543 -7.41279 
2373 1 32.6979 6.98324 7.5 6.03194 -148544 -156793 -28233.4 -6496.3 28547 -53845.7 -7.41742 
2374 1 31.9745 5.76368 7.5 6.03194 -142356 -159392 -102289 15563.8 -11491.4 -41920.2 -7.41336 
2375 1 32.669 4.52741 7.5 6.03194 -147404 -157715 -42979.9 -8294.36 26393.3 -52722.4 -7.41661 
2376 1 31.9456 3.30785 7.5 6.03194 -143625 -159147 -90424.1 14235 -15849 -44931 -7.41401 
2377 1 32.64 2.07158 7.5 6.03191 -146152 -158545 -57768.4 -10099.7 23697.7 -51070 -7.41579 
2378 1 31.9166 0.852022 7.5 6.03191 -144921 -158807 -77448.4 12714.2 -19792.3 -47544.4 -7.41472 
2519 1 34.8392 8.1861 7.5 6.03194 -149565 -156559 -10150.5 -5335.39 30006.2 -50918.8 -7.41841 
2520 1 34.1158 6.96654 7.5 6.03194 -142169 -158980 -102994 15193 -12067.4 -37790.2 -7.41333 
2521 1 34.8102 5.73027 7.5 6.03194 -148628 -157460 -25518.7 -6999.55 28558.2 -50150.2 -7.41756 
2522 1 34.0868 4.51071 7.5 6.03194 -143567 -159063 -90510.2 14112.1 -16283.9 -40833.1 -7.414 
2523 1 34.7813 3.27444 7.5 6.03194 -147515 -158250 -41236.3 -8705.65 26536.8 -48859.3 -7.4167 
2524 1 34.0579 2.05488 7.5 6.03191 -144953 -158908 -76795.1 12756.7 -20092.7 -43513.3 -7.41475 
2525 1 34.7524 0.81861 7.5 6.03191 -146260 -159000 -56919.8 -10431.2 23980 -47069.6 -7.41584 
2666 1 36.2571 8.16939 7.5 6.03194 -141764 -157966 -104862 14367.8 -12694.6 -33044.5 -7.41324 
2667 1 36.9515 6.93312 7.5 6.03194 -149671 -156871 -8245.59 -5710.1 30116.5 -46413.6 -7.41851 
2668 1 36.2281 5.71356 7.5 6.03194 -143302 -158373 -91915.1 13549.7 -16796.4 -36005.2 -7.41394 
2669 1 36.9226 4.47729 7.5 6.03194 -148746 -157646 -24590.7 -7268.79 28761 -45470.1 -7.41761 
2670 1 36.1992 3.25773 7.5 6.03194 -144840 -158512 -77599.2 12449.3 -20502.7 -38653.2 -7.41471 
2671 1 36.8937 2.02147 7.5 6.03191 -147580 -158269 -41208.4 -8821.71 26843.6 -44047.5 -7.4167 
2672 1 36.1703 0.801904 7.5 6.03191 -146314 -158512 -62286 11170.3 -23730.1 -40955.5 -7.41555 
2813 1 39.0928 8.13598 7.5 6.03194 -150499 -156014 8430.01 -4479.77 31103.8 -41694 -7.41943 
2814 1 38.3694 6.91642 7.5 6.03194 -142818 -157185 -94548.9 12561.4 -17280.6 -30721.5 -7.41381 
2815 1 39.0639 5.68015 7.5 6.03194 -149803 -156788 -8242.72 -5850.57 30388.5 -41065.5 -7.41851 
2816 1 38.3405 4.46059 7.5 6.03194 -144514 -157616 -79809.3 11725.3 -20926.6 -33230.6 -7.4146 
2817 1 39.0349 3.22432 7.5 6.03194 -148813 -157399 -25489.3 -7245.7 29091.7 -39994.6 -7.41757 
2818 1 38.3115 2.00476 7.5 6.03191 -146128 -157783 -63918.5 10647.2 -24095.5 -35451.6 -7.41546 
2819 1 39.006 0.768491 7.5 6.03191 -147561 -157921 -42900.6 -8655.46 27231.6 -38502.5 -7.41661 
2960 1 40.5107 8.11927 7.5 6.03194 -142124 -155647 -98255.7 11188.9 -17626.9 -25243 -7.41362 
2961 1 41.2052 6.88301 7.5 6.03194 -150654 -155760 7430.44 -4504.85 31458.5 -35824.3 -7.41938 
2962 1 40.4817 5.66344 7.5 6.03194 -143967 -156344 -83300.7 10604.7 -21256.4 -27511.7 -7.41442 
2963 1 41.1762 4.42718 7.5 6.03194 -149879 -156383 -10144.3 -5705.15 30749.2 -35074.6 -7.41841 
2964 1 40.4528 3.20761 7.5 6.03194 -145759 -156764 -67024.8 9789.5 -24421.1 -29553.2 -7.4153 
2965 1 41.1473 1.97135 7.5 6.03191 -148756 -156813 -28181.6 -6891.92 29460.6 -33945.8 -7.41742 
2966 1 40.4239 0.751785 7.5 6.03191 -147414 -157025 -49839.3 8834.71 -27043.5 -31341.5 -7.41624 
3107 1 43.3464 8.08586 7.5 6.03194 -151276 -154662 22096.4 -3275.55 32023.4 -29919 -7.42019 
3108 1 42.623 6.8663 7.5 6.03194 -143211 -154852 -87889.3 9132.82 -21385.9 -21733.6 -7.41419 
3109 1 43.3175 5.63003 7.5 6.03194 -150748 -155306 4478.54 -4252.42 31858.9 -29452.3 -7.41922 
3110 1 42.5941 4.41047 7.5 6.03194 -145164 -155508 -71449.9 8565.24 -24598.1 -23505.9 -7.41508 
3111 1 43.2886 3.1742 7.5 6.03194 -149831 -155756 -13885 -5240.43 31104.7 -28657.3 -7.41821 
3112 1 42.5652 1.95464 7.5 6.03191 -146984 -155894 -53913.2 7812.72 -27272.3 -25086.3 -7.41603 
3113 1 43.2596 0.718372 7.5 6.03191 -148556 -156088 -32563.9 -6249.43 29761.9 -27553.9 -7.41719 
3254 1 44.7643 8.06915 7.5 6.03194 -142287 -153298 -93349.7 7373.07 -21223.2 -16087.3 -7.41391 
3255 1 45.4588 6.83289 7.5 6.03194 -151393 -154263 18071.7 -2932.18 32475 -23276.7 -7.41997 
3256 1 44.7354 5.61332 7.5 6.03194 -144365 -154159 -76986.6 7020.01 -24524.4 -17516.2 -7.41479 
3257 1 45.4298 4.37706 7.5 6.03194 -150712 -154752 -335.225 -3695.28 32210.3 -22779.4 -7.41896 
3258 1 44.7064 3.1575 7.5 6.03194 -146364 -154746 -59328.5 6508.99 -27306.9 -18809.1 -7.41574 
3259 1 45.4009 1.92123 7.5 6.03191 -149600 -155029 -19336.8 -4445.91 31350.4 -22023.9 -7.41792 
3260 1 44.6775 0.701666 7.5 6.03191 -148172 -155171 -40818.5 5918.01 -29498.2 -19952.4 -7.41675 
3402 1 46.8766 6.81618 7.5 6.03194 -143400 -152864 -83394 5214.39 -24113.8 -11741.1 -7.41446 
3404 1 46.8477 4.36035 7.5 6.03194 -145535 -153633 -65861.3 4911.54 -27048.9 -12682 -7.4154 
3406 1 46.8188 1.90452 7.5 6.03191 -147505 -154135 -47261.4 4498.56 -29405.1 -13526 -7.4164 
3401 1 47.6001 8.03574 7.5 6.03194 -151806 -153340 30370.4 -1779.44 32659.1 -16675.4 -7.42065 
3403 1 47.5711 5.57991 7.5 6.03194 -151377 -153878 12178.5 -2300.49 32834.4 -16435.2 -7.41965 
3405 1 47.5422 3.12408 7.5 6.03194 -150497 -154208 -6865.67 -2826.07 32411.9 -15991.6 -7.41861 
3407 1 47.5132 0.668253 7.5 6.03191 -149197 -154408 -26317.3 -3390.2 31380.6 -15361.7 -7.41755 
3548 1 49.0179 8.01904 7.5 6.03194 -142322 -151746 -90413.8 3215.39 -23301.3 -6290.04 -7.41409 
3549 1 49.7124 6.78277 7.5 6.03194 -151815 -153196 23402.2 -1092.2 33042.6 -9729.06 -7.42027 
3550 1 48.989 5.56321 7.5 6.03194 -144542 -152669 -73259.4 3077.54 -26416.6 -6830.19 -7.41501 
3551 1 49.6835 4.32694 7.5 6.03194 -151179 -153597 4571.36 -1375.77 33006.9 -9555.61 -7.41924 
3552 1 48.9601 3.10738 7.5 6.03194 -146666 -153326 -54820.9 2867.79 -28983 -7317.75 -7.416 
3553 1 49.6545 1.87111 7.5 6.03191 -150069 -153777 -14921.6 -1656.42 32364.4 -9248.12 -7.41817 
3554 1 48.9311 0.651547 7.5 6.03191 -148572 -153823 -35561.1 2652.53 -30931.3 -7753.58 -7.41705 
3695 1 51.8537 7.98562 7.5 6.03194 -152031 -152743 33116.2 -97.7573 32908.8 -2754.89 -7.42081 
3696 1 51.1303 6.76606 7.5 6.03194 -143438 -151949 -81257.3 1068.52 -25348.1 -1338.96 -7.41458 
3697 1 51.8247 5.52979 7.5 6.03194 -151638 -153224 14725.2 -132.591 33205.8 -2803.11 -7.4198 
3698 1 51.1013 4.31023 7.5 6.03194 -145657 -152746 -63239.3 1020.5 -28154.1 -1425.84 -7.41555 
3699 1 51.7958 3.07396 7.5 6.03194 -150771 -153492 -4555.15 -171.061 32900.6 -2773.48 -7.41874 
3700 1 51.0724 1.8544 7.5 6.03191 -147698 -153280 -44166.4 946.608 -30365.1 -1502.72 -7.41658 
3701 1 51.7669 0.618134 7.5 6.03191 -149461 -153626 -24274.5 -273.568 31975.4 -2678.04 -7.41766 
3842 1 53.2715 7.96892 7.5 6.03194 -142282 -151531 -89586 -1054.46 -23799.6 3732.01 -7.41414 
3843 1 53.966 6.73265 7.5 6.03194 -151877 -153091 23375.2 874.746 33089.2 4178.48 -7.42027 
3844 1 53.2426 5.51309 7.5 6.03194 -144533 -152448 -72245.8 -986.357 -26857.8 4080.23 -7.41507 
3845 1 53.9371 4.27682 7.5 6.03194 -151248 -153464 4532.86 1085.67 33064.7 3983.96 -7.41924 
3846 1 53.2137 3.05726 7.5 6.03194 -146686 -153099 -53624.2 -899.237 -29362.5 4403.29 -7.41607 
3847 1 53.9081 1.82099 7.5 6.03191 -150143 -153614 -14973.5 1285.51 32429.8 3799.84 -7.41817 
3848 1 53.1847 0.601428 7.5 6.03191 -148616 -153591 -34188.8 -736.921 -31247.2 4685.88 -7.41712 
3989 1 56.1073 7.9355 7.5 6.03194 -151920 -153165 30331.4 1628.7 32747.8 11287.6 -7.42065 
3990 1 55.3839 6.71594 7.5 6.03194 -143352 -152455 -81565.2 -3094.94 -25049.7 9144.75 -7.41456 
3991 1 56.0784 5.47967 7.5 6.03194 -151508 -153650 12119.5 2084.62 32944.1 10933 -7.41965 
3992 1 55.355 4.26011 7.5 6.03194 -145548 -153214 -63661.4 -2888.77 -27864.2 9901.5 -7.41552 
3993 1 56.0494 3.02384 7.5 6.03194 -150638 -153924 -6948.73 2536.27 32539.9 10528.6 -7.4186 
3994 1 55.326 1.80428 7.5 6.03191 -147571 -153707 -44700.5 -2622.53 -30093.2 10582.3 -7.41655 
3995 1 56.0205 0.568015 7.5 6.03191 -149344 -154064 -26427.7 2896.74 31517.3 10068.4 -7.41754 
4136 1 57.5252 7.9188 7.5 6.03194 -142174 -152756 -90919.8 -5250.31 -22698.2 13711.2 -7.41405 
4137 1 58.2196 6.68253 7.5 6.03194 -151571 -153987 18011.7 2806.89 32636.6 17957.5 -7.41997 
4138 1 57.4962 5.46297 7.5 6.03194 -144345 -153607 -73995.7 -4968.11 -25825 14930.5 -7.41496 
4139 1 58.1907 4.2267 7.5 6.03194 -150913 -154399 -425.822 3505.22 32399.2 17403.5 -7.41896 
4140 1 57.4673 3.00714 7.5 6.03194 -146427 -154184 -55784.8 -4579.19 -28418.5 16042 -7.41594 
4141 1 58.1618 1.77087 7.5 6.03191 -149817 -154591 -19463.9 4179.71 31558 16732.4 -7.41791 
4142 1 57.4384 0.551309 7.5 6.03191 -148305 -154598 -36745.1 -4037.63 -30414.1 17017 -7.41698 
4283 1 60.3609 7.88538 7.5 6.03194 -151480 -154386 22053 3248.91 32245.7 24908.8 -7.42019 
4284 1 59.6375 6.66582 7.5 6.03194 -143131 -154238 -84338.6 -7081.81 -23211.5 19420.1 -7.41439 
4285 1 60.332 5.42956 7.5 6.03194 -150991 -154935 4403.39 4174.86 32111 24285 -7.41922 
4286 1 59.6086 4.20999 7.5 6.03194 -145201 -154890 -67152.1 -6610.03 -26177.7 20989.7 -7.41532 
4287 1 60.303 2.97373 7.5 6.03194 -150104 -155283 -14000.6 5099.12 31383.6 23479.2 -7.41821 
4288 1 59.5796 1.75416 7.5 6.03191 -147122 -155270 -48889.1 -5998.92 -28591.4 22389.1 -7.41631 
4289 1 60.2741 0.517896 7.5 6.03191 -148847 -155505 -32727.8 5910.54 30052.3 22490.7 -7.41718 
4430 1 61.7788 7.86868 7.5 6.03194 -141960 -155049 -94395.4 -9173.64 -20002.2 23287.2 -7.41384 
4431 1 62.4733 6.63241 7.5 6.03194 -150918 -155425 7388.94 4543.86 31781.9 30997.2 -7.41938 
4432 1 61.7499 5.41285 7.5 6.03194 -143950 -155754 -78500.5 -8658.59 -23337.7 25335.7 -7.4147 
4433 1 62.4443 4.17658 7.5 6.03194 -150190 -155935 -10223.9 5696.39 31101.4 30140.5 -7.41841 
4434 1 61.7209 2.95702 7.5 6.03194 -145877 -156179 -61299.5 -7959.28 -26182.7 27183.5 -7.41563 
4435 1 62.4154 1.72075 7.5 6.03191 -149100 -156240 -28310.2 6819.09 29832 29035.9 -7.41742 
4436 1 61.692 0.50119 7.5 6.03191 -147641 -156439 -43227.3 -7042.2 -28472.2 28791 -7.41661 
4577 1 64.6145 7.83527 7.5 6.03194 -150756 -155758 8432.2 4628.13 31512.9 37335 -7.41943 
4578 1 63.8911 6.6157 7.5 6.03194 -142727 -156703 -89518.2 -10666.9 -19879.4 28978.3 -7.41409 
4579 1 64.5856 5.37944 7.5 6.03194 -150126 -156416 -8269.5 5972.48 30818.4 36511.1 -7.41851 
4580 1 63.8622 4.15987 7.5 6.03194 -144588 -157157 -73658.7 -9918.13 -23157.6 31288.6 -7.41495 
4581 1 64.5567 2.92361 7.5 6.03194 -149190 -156898 -25558.7 7323.66 29543.2 35376.3 -7.41756 
4582 1 63.8333 1.70404 7.5 6.03191 -146344 -157340 -56679.6 -8966.52 -25935.5 33328.8 -7.41587 
4583 1 64.5277 0.467777 7.5 6.03191 -147977 -157277 -43026.6 8549.96 27689.1 33933.6 -7.41661 
4724 1 66.0324 7.81856 7.5 6.03194 -141579 -157659 -99887 -12572.1 -15801.7 31813.9 -7.41352 
4726 1 66.0035 5.36273 7.5 6.03194 -143310 -158114 -85635.5 -11813 -19502.4 34585.9 -7.41429 
4728 1 65.9745 2.9069 7.5 6.03194 -145022 -158292 -70037.2 -10809.8 -22773.5 37064.2 -7.41513 
4730 1 65.9456 0.451071 7.5 6.03191 -146635 -158318 -53492.8 -9542.42 -25546.2 39203.1 -7.41603 
4725 1 66.7269 6.58229 7.5 6.03194 -149975 -156616 -8213.52 5949.59 30630.8 42363.8 -7.41851 
4727 1 66.6979 4.12646 7.5 6.03194 -149126 -157265 -24587.7 7488.17 29290.8 41280.4 -7.41761 
4729 1 66.669 1.67063 7.5 6.03191 -148022 -157746 -41250.7 8999.94 27383.5 39830.8 -7.4167 
4870 1 68.1737 9.02141 7.5 6.03194 -140545 -158553 -109289 -14311.1 -11126.2 33753.9 -7.413 
4871 1 68.8682 7.78515 7.5 6.03194 -149817 -156446 -10065.6 5668.74 30613.1 47470.8 -7.41841 
4872 1 68.1448 6.56559 7.5 6.03194 -142091 -158975 -96892.5 -13578 -15225.8 36965.5 -7.41367 
4873 1 68.8392 5.32932 7.5 6.03194 -148978 -157235 -25443.2 7341.07 29163.8 46505.8 -7.41757 
4874 1 68.1158 4.10976 7.5 6.03194 -143690 -159125 -82947.6 -12564 -18980.8 39867.8 -7.41442 
4875 1 68.8103 2.87349 7.5 6.03194 -147952 -157893 -41187.6 9033.69 27149.6 45127.3 -7.4167 
4876 1 68.0869 1.65393 7.5 6.03191 -145248 -159023 -67811 -11305.2 -22300.3 42414.4 -7.41524 
4877 1 68.7813 0.417658 7.5 6.03191 -146768 -158492 -56917.5 10600.9 24589.4 43341.1 -7.41584 
5017 1 71.0094 8.988 7.5 6.03194 -149736 -155851 -13766.9 5185.91 30808.5 51628.7 -7.41821 
5018 1 70.286 7.76844 7.5 6.03194 -140972 -159681 -107098 -15147.7 -10364.1 38346.3 -7.4131 
5019 1 70.9805 6.53217 7.5 6.03194 -148826 -156739 -28098.6 6929.31 29224.1 50826.1 -7.41742 
5020 1 70.2571 5.31261 7.5 6.03194 -142401 -159769 -95054 -14161.6 -14578.7 41633.2 -7.41376 
5021 1 70.9516 4.07634 7.5 6.03194 -147799 -157548 -42847.9 8744.35 27066.6 49577.3 -7.41661 
5022 1 70.2282 2.85678 7.5 6.03194 -143872 -159605 -81598.1 -12897.1 -18433.2 44559.5 -7.41449 
5023 1 70.9226 1.62051 7.5 6.03191 -146645 -158245 -57658.8 10542.4 24369.5 47885.8 -7.4158 
5024 1 70.1992 0.400952 7.5 6.03191 -145329 -159325 -67090.5 -11345.4 -21853 47080.4 -7.41528 
5164 1 72.4273 8.9713 7.5 6.03194 -139988 -160188 -115938 -16456.6 -4983.94 38694.6 -7.41262 
5165 1 73.1218 7.73503 7.5 6.03194 -148757 -155752 -32455.9 6316.67 29499.5 54057.2 -7.41719 
5166 1 72.3984 6.51547 7.5 6.03194 -141200 -160179 -106011 -15534.8 -9619.38 42298.8 -7.41316 
5167 1 73.0928 5.2792 7.5 6.03194 -147645 -156669 -46165.6 8187.85 27182.3 52969.9 -7.41644 
5168 1 72.3694 4.05964 7.5 6.03194 -142521 -159928 -94479.2 -14306.5 -13980.5 45548.6 -7.41379 
5169 1 73.0639 2.82337 7.5 6.03194 -146480 -157519 -59989.2 10094.3 24323.8 51422.7 -7.41568 
5170 1 72.3405 1.60381 7.5 6.03191 -143882 -159469 -81659.6 -12818 -17972.4 48403.4 -7.41449 
5171 1 73.035 0.367539 7.5 6.03191 -145290 -158376 -73575.6 11883.9 20958.8 49425.3 -7.41493 
5311 1 75.2631 8.93788 7.5 6.03194 -148851 -154289 -38353.1 5574.1 29981.6 56078.8 -7.41688 
5312 1 74.5397 7.71832 7.5 6.03194 -140123 -160335 -115503 -16620.6 -4187.81 41864.8 -7.41264 
5313 1 75.2341 6.48205 7.5 6.03194 -147577 -155263 -51003.8 7434.02 27508.4 55155.3 -7.41618 
5314 1 74.5107 5.26249 7.5 6.03194 -141245 -159967 -106099 -15467.1 -9011.43 45353.3 -7.41315 
5315 1 75.2052 4.02622 7.5 6.03194 -146316 -156226 -63803.2 9378.74 24484.8 53772.5 -7.41548 
5316 1 74.4818 2.80666 7.5 6.03194 -142483 -159396 -95200.2 -14029.1 -13538.6 48470.6 -7.41375 
5317 1 75.1762 1.57039 7.5 6.03191 -145068 -157149 -76420.6 11319.4 20958.8 51941 -7.41479 
5318 1 74.4528 0.350833 7.5 6.03191 -143809 -158771 -83125.7 -12305.2 -17690.2 51181.1 -7.41441 
5458 1 76.6809 8.92118 7.5 6.03194 -139201 -160239 -123263 -17367.2 1601.78 40401.4 -7.41222 
5459 1 77.3754 7.68491 7.5 6.03194 -147676 -153383 -57165.9 6557.49 28022.1 56062.2 -7.41586 
5460 1 76.652 6.46535 7.5 6.03194 -140082 -159727 -116144 -16320.4 -3628.01 44020.2 -7.41261 
5461 1 77.3465 5.22908 7.5 6.03194 -146243 -154405 -68928.8 8472.31 24847.8 54834.4 -7.41521 
5462 1 76.6231 4.00952 7.5 6.03194 -141144 -159026 -107353 -14972.6 -8638.1 47300.7 -7.41309 
5463 1 77.3175 2.77325 7.5 6.03194 -144891 -155437 -80551.6 10432.8 21172.2 53178 -7.41457 
5464 1 76.5941 1.55369 7.5 6.03191 -142340 -158181 -97169.3 -13375.8 -13332.2 50218.7 -7.41365 
5465 1 77.2886 0.31742 7.5 6.03191 -143649 -156556 -91714.4 12290.2 17036.6 51109.9 -7.41396 
5605 1 79.5167 8.88776 7.5 6.03194 -148007 -151113 -64411.1 5631.29 28674.1 55703.2 -7.41548 
5606 1 78.7933 7.6682 7.5 6.03194 -139069 -159235 -124360 -16820 2041.84 41672.5 -7.41217 
5607 1 79.4877 6.43193 7.5 6.03194 -146337 -152146 -75142.1 7454.25 25377.2 54597.4 -7.41489 
5608 1 78.7643 5.21237 7.5 6.03194 -139912 -158386 -117811 -15595.7 -3388.33 44997.5 -7.41253 
5609 1 79.4588 3.9761 7.5 6.03194 -144805 -153238 -85767.3 9365.06 21578.2 53096.8 -7.41431 
5610 1 78.7354 2.75654 7.5 6.03194 -140957 -157400 -109686 -14109 -8561.64 48012.6 -7.41298 
5611 1 79.4299 1.52028 7.5 6.03191 -143417 -154369 -95983.3 11282.2 17329.4 51224.2 -7.41374 
5612 1 78.7065 0.300714 7.5 6.03191 -142195 -156436 -100267 -12359.9 -13402.1 50700.5 -7.4135 
5752 1 80.9346 8.87106 7.5 6.03194 -138228 -158532 -130571 -16936.8 7855.89 38498.5 -7.41184 
5753 1 81.629 7.63479 7.5 6.03194 -146663 -149560 -82185.5 6398.2 26017.3 53136.3 -7.41452 
5754 1 80.9056 6.41523 7.5 6.03194 -138820 -157526 -126345 -15859.9 2072.58 41742.4 -7.41208 
5755 1 81.6001 5.17896 7.5 6.03194 -144888 -150662 -91826.2 8199.35 22129.8 51753 -7.414 
5756 1 80.8767 3.9594 7.5 6.03194 -139669 -156395 -120387 -14515.9 -3509.52 44730 -7.41241 
5757 1 81.5712 2.72313 7.5 6.03194 -143317 -151844 -101105 10048.9 17806 50048.3 -7.41349 
5758 1 80.8477 1.50357 7.5 6.03191 -140749 -155194 -112948 -12955.9 -8801.06 47462.1 -7.41282 
5759 1 81.5422 0.267301 7.5 6.03191 -141982 -153191 -109735 11809.9 13078.5 48048.5 -7.41301 
5899 1 83.7703 8.83765 7.5 6.03194 -147266 -146777 -89784.5 5363.37 26708.4 50594.2 -7.41412 
5900 1 83.0469 7.61808 7.5 6.03194 -137898 -156508 -132811 -15746.8 7600.56 37774.7 -7.41174 
5901 1 83.7414 6.38182 7.5 6.03194 -145202 -147847 -98465.1 7008.94 22768 49283.4 -7.41365 
5902 1 83.018 5.16225 7.5 6.03194 -138516 -155232 -129073 -14567.4 1679.2 40610.9 -7.41195 
5903 1 83.7124 3.92599 7.5 6.03194 -143385 -149035 -106830 8733.5 18409.2 47704.6 -7.4132 
5904 1 82.989 2.70642 7.5 6.03194 -139426 -153888 -123698 -13169.4 -3985.29 43260.1 -7.41225 
5905 1 83.6835 1.47016 7.5 6.03191 -141827 -150332 -114607 10469.8 13672 45894.9 -7.41277 
5906 1 82.9601 0.250595 7.5 6.03191 -140631 -152643 -116942 -11547.6 -9333.47 45727.9 -7.41263 
6046 1 85.1882 8.82094 7.5 6.03194 -137166 -155395 -137157 -15255.8 13062.4 33360.6 -7.41151 
6048 1 85.1592 6.36511 7.5 6.03194 -137529 -153987 -135640 -14253.3 6863.03 35938.4 -7.41161 
6050 1 85.1303 3.90928 7.5 6.03194 -138230 -152515 -132354 -13036.6 896.381 38386 -7.4118 
6052 1 85.1014 1.45345 7.5 6.03191 -139251 -151040 -127534 -11651.7 -4767.99 40731.5 -7.41207 
6047 1 85.8826 7.58467 7.5 6.03194 -145786 -144931 -105415 5851.68 23439 45879.5 -7.41329 
6049 1 85.8537 5.12884 7.5 6.03194 -143680 -146088 -112901 7409.17 19078.5 44385.2 -7.41289 
6051 1 85.8248 2.67301 7.5 6.03194 -141880 -147378 -119861 9009.01 14374.5 42721.4 -7.41251 
6053 1 85.7958 0.217182 7.5 6.03191 -140421 -148892 -126040 10531.8 9333.07 40923.3 -7.41217 
6193 1 88.0239 8.78753 7.5 6.03194 -146658 -142043 -112414 4767 24110.1 41751.9 -7.41293 
6194 1 87.3005 7.56796 7.5 6.03194 -136729 -152731 -140081 -13582.3 11921.9 31002 -7.41139 
6195 1 87.995 6.3317 7.5 6.03194 -144238 -143142 -119063 6131.1 19768.7 40315.6 -7.41257 
6196 1 87.2716 5.11213 7.5 6.03194 -137193 -151148 -138860 -12555.8 5708.56 33154.1 -7.41146 
6197 1 87.9661 3.87587 7.5 6.03194 -142152 -144397 -125251 7556.8 15125.9 38760.3 -7.41224 
6198 1 87.2426 2.65631 7.5 6.03194 -138028 -149554 -135977 -11365.6 -202.202 35265.8 -7.41163 
6199 1 87.9371 1.42004 7.5 6.03191 -140418 -145803 -130737 8994.46 10193.7 37134.2 -7.41194 
6200 1 87.2137 0.200476 7.5 6.03191 -139246 -148117 -131676 -9996.61 -5783.4 37364 -7.41188 
6340 1 89.4418 8.77082 7.5 6.03194 -136133 -151531 -142478 -12580.7 16771.6 26059.5 -7.41127 
6341 1 90.1363 7.53455 7.5 6.03194 -145077 -140320 -125077 4934.87 20464 35715.9 -7.41226 
6342 1 89.4129 6.31499 7.5 6.03194 -136339 -149863 -143258 -11743 10347.6 27859.3 -7.41124 
6343 1 90.1073 5.07872 7.5 6.03194 -142682 -141516 -130546 6165.14 15890.7 34252.6 -7.41197 
6344 1 89.3839 3.85916 7.5 6.03194 -136955 -148177 -142265 -10752.2 4237.21 29657.2 -7.41131 
6345 1 90.0784 2.62289 7.5 6.03194 -140669 -142874 -135395 7426.41 11087.4 32765.3 -7.41171 
6346 1 89.355 1.40333 7.5 6.03191 -137970 -146536 -139731 -9644.46 -1522.74 31502.2 -7.41146 
6347 1 90.0495 0.167063 7.5 6.03191 -139078 -144489 -139397 8617.52 6018.68 31293.1 -7.41149 
6487 1 92.2775 8.73741 7.5 6.03194 -146189 -137716 -130713 3839.34 21184.1 30766.3 -7.41197 
6488 1 91.5541 7.51785 7.5 6.03194 -135688 -148720 -145672 -10627.4 14753.7 22740.1 -7.41113 
6489 1 92.2486 6.28158 7.5 6.03194 -143480 -138844 -135531 4866.26 16670.1 29406.8 -7.41172 