ITEM: TIMESTEP
0
ITEM: NUMBER OF ATOMS
14408
ITEM: BOX BOUNDS pp pp pp
0.0000000000000000e+00 1.0437723699999999e+02
0.0000000000000000e+00 1.8078667700000000e+02
0.0000000000000000e+00 1.8399999600000001e+01
ITEM: ATOMS id type x y z c_csym c_2[1] c_2[2] c_2[3] c_2[4] c_2[5] c_2[6] c_3 
1 1 0 0 7.5 6.04905 5061.99 4877.27 -158736 -44.8096 0.0527671 0.312948 -7.40754 
2 1 2.14434 1.20458 7.5 6.04912 4156.07 6291.35 -158115 -2144.61 3391.29 -6009.01 -7.40757 
3 1 3.56424 1.18785 7.5 6.04918 6395.51 3945.33 -157417 3656.94 2869.45 -9308.91 -7.40761 
4 1 6.40405 1.15438 7.5 6.04918 4307.5 5472.12 -154425 -6091.13 4328.1 -17255.3 -7.40779 
5 1 7.82395 1.13765 7.5 6.04918 6302.26 3398.18 -153086 7634.09 1024.32 -19291.4 -7.40787 
50 1 0.0289776 2.45934 7.5 6.04907 2573.3 7436.21 -158163 -86.4734 6496.08 -55.566 -7.40757 
51 1 1.44888 2.44261 7.5 6.04912 7555.75 2940.91 -157941 1545.94 6788.15 -3691.54 -7.40758 
52 1 2.17332 3.66392 7.5 6.04913 1578.37 8795.89 -156953 -2069.05 9537.11 -6323.48 -7.40764 
53 1 3.59322 3.64719 7.5 6.0492 8605.38 1709.98 -156324 3799.47 9784.41 -8673.96 -7.40768 
54 1 4.28868 2.40915 7.5 6.04918 2970.52 7234.5 -156186 -4045.21 6829.25 -12119.1 -7.40769 
55 1 5.70858 2.39242 7.5 6.04918 7510.48 2698.07 -155368 5783.67 5477.04 -14028.3 -7.40774 
56 1 6.43302 3.61373 7.5 6.0492 1708.43 7837.18 -152889 -5804 10179.6 -18087.5 -7.40789 
57 1 7.85292 3.597 7.5 6.0492 8548.87 1378.31 -152611 7897.55 7618.71 -17881 -7.4079 
58 1 8.54839 2.35896 7.5 6.04918 3114.59 6021.09 -150520 -7697.48 8068.6 -22776 -7.40803 
148 1 0.0579552 4.91868 7.5 6.04908 -51.5593 9838.41 -156560 -169.839 12319.1 -100.758 -7.40767 
149 1 1.47786 4.90195 7.5 6.04913 9574.23 574.845 -156043 1670.53 13791 -3457.65 -7.40769 
150 1 2.2023 6.12326 7.5 6.04913 -1061.38 11152.8 -154863 -2022.77 14891.3 -6546.48 -7.40777 
151 1 3.6222 6.10653 7.5 6.0492 10466.1 -579.147 -153907 3964.49 16677.6 -7928.08 -7.40782 
152 1 4.31766 4.86849 7.5 6.0492 324.772 9575.63 -154399 -3893.07 12493.4 -12609.1 -7.40779 
153 1 5.73756 4.85176 7.5 6.0492 9555.54 475.563 -153889 6022.7 12291.2 -12901.5 -7.40783 
154 1 6.462 6.07307 7.5 6.0492 -959.802 10067.5 -150470 -5521.15 15252.9 -18680.2 -7.40803 
155 1 7.8819 6.05634 7.5 6.0492 10448 -685.27 -150873 8147.04 14231.6 -16243.7 -7.40801 
156 1 8.57736 4.8183 7.5 6.0492 431.563 8165.74 -148220 -7344.08 13329.1 -23705.1 -7.40817 
246 1 0.0869327 7.37802 7.5 6.04908 -2665.25 12172.2 -154135 -248.299 17243.6 -138.873 -7.40782 
247 1 1.50683 7.36129 7.5 6.04913 11237.9 -1727.15 -152783 1776.52 20628.2 -3183.79 -7.40789 
248 1 2.23127 8.5826 7.5 6.04913 -3634.74 13423.7 -152068 -1956.45 19266 -6688.25 -7.40794 
249 1 3.65118 8.56587 7.5 6.0492 11943.8 -2780.62 -150131 4088.1 23291.6 -7084.33 -7.40805 
250 1 4.34664 7.32783 7.5 6.0492 -2308.09 11849.6 -151810 -3706.94 17271.3 -12935.9 -7.40795 
251 1 5.76654 7.3111 7.5 6.0492 11246.9 -1677.11 -151087 6202.49 18969.5 -11611.5 -7.40799 
252 1 6.49098 8.53241 7.5 6.0492 -3564.22 12228.9 -147390 -5190.37 19372.8 -19052.7 -7.40822 
253 1 7.91088 8.51568 7.5 6.0492 11962.3 -2655.83 -147825 8318.34 20619 -14411.1 -7.40819 
254 1 8.60634 7.27764 7.5 6.0492 -2241.05 10265.6 -145182 -6928.96 17729.6 -24345.9 -7.40835 
6 1 10.6638 1.10419 7.5 6.04918 4477.9 4116.5 -147513 -9563.83 6257.58 -26524.9 -7.40821 
7 1 12.0837 1.08746 7.5 6.04918 6265.58 2431.51 -146045 11009.2 -1959.45 -27068.2 -7.4083 
8 1 14.9235 1.054 7.5 6.04918 4673.84 2391.5 -138161 -12317.8 9051.27 -33083 -7.40877 
9 1 16.3434 1.03727 7.5 6.04918 6294.9 1142.64 -137032 13557 -5829.54 -32202.5 -7.40884 
59 1 9.96829 2.34223 7.5 6.04918 7466.53 2066.12 -150002 9548.84 2818.23 -22659.9 -7.40806 
60 1 10.6927 3.56354 7.5 6.0492 1834.09 6215.98 -145264 -9115.21 11605.6 -27840 -7.40834 
61 1 12.1126 3.54681 7.5 6.0492 8564.01 748.097 -146583 11355.7 4127.81 -25030.7 -7.40826 
62 1 12.8081 2.30877 7.5 6.04918 3271.31 4299.89 -141832 -10773.8 10163.5 -30977.9 -7.40855 
63 1 14.228 2.29204 7.5 6.04918 7489.56 1117.15 -142452 12566.4 -934.38 -28869.5 -7.40851 
64 1 14.9524 3.51334 7.5 6.0492 1975.03 4132.92 -134903 -11766.1 13784.8 -34816.6 -7.40896 
65 1 16.3723 3.49661 7.5 6.0492 8646.62 -131.523 -138892 13946.7 -342.315 -29727.1 -7.40873 
66 1 17.0678 2.25858 7.5 6.04918 3456.18 2241.41 -131014 -13064.2 13005.1 -36292.1 -7.4092 
67 1 18.4877 2.24185 7.5 6.04918 7576.99 -103.367 -133459 14659 -5448.94 -32527.9 -7.40905 
157 1 9.99727 4.80157 7.5 6.0492 9558.23 132.144 -149388 9875.52 9231.98 -20776.3 -7.4081 
158 1 10.7217 6.02288 7.5 6.0492 -881.691 8205.59 -142217 -8644.48 16194.8 -28813.5 -7.40853 
159 1 12.1416 6.00615 7.5 6.0492 10514.4 -966.583 -145947 11663.7 10297 -22698.7 -7.4083 
160 1 12.8371 4.76811 7.5 6.0492 535.247 6141.09 -138714 -10276.4 14858.7 -32325.1 -7.40874 
161 1 14.257 4.75138 7.5 6.0492 9634.86 -431.614 -143068 12946.8 4945.44 -26429.2 -7.40848 
162 1 14.9814 5.97269 7.5 6.0492 -802.391 5791.25 -130957 -11173.1 17777.8 -36164.4 -7.4092 
163 1 16.4013 5.95596 7.5 6.0492 10645.6 -1430.66 -139680 14288 5300.75 -26940.8 -7.40868 
164 1 17.0968 4.71792 7.5 6.0492 659.233 3704.11 -126818 -12485.3 17072.3 -38004.7 -7.40945 
165 1 18.5167 4.70119 7.5 6.0492 9767.27 -1223.85 -135571 15064.1 -146.544 -29751.5 -7.40893 
255 1 10.0262 7.26091 7.5 6.0492 11295 -1723.42 -147520 10112.3 15572.6 -18642.9 -7.40821 
256 1 10.7507 8.48222 7.5 6.0492 -3537.61 10154.7 -138593 -8099.89 19870.7 -29468.3 -7.40874 
257 1 12.1706 8.46549 7.5 6.0492 12075 -2583.89 -144071 11869.9 16324.8 -20114.2 -7.40842 
258 1 12.866 7.22745 7.5 6.0492 -2195.54 7966.29 -134958 -9693.28 18725.8 -33310.8 -7.40896 
259 1 14.2859 7.21072 7.5 6.0492 11420.9 -1895.52 -142518 13220.3 10834.7 -23700.8 -7.40851 
260 1 15.0104 8.43203 7.5 6.0492 -3528.81 7438.79 -126541 -10484.2 20899.2 -37147.7 -7.40947 
261 1 16.4303 8.4153 7.5 6.0492 12246.9 -2631.58 -139311 14519.1 10899.8 -23887.8 -7.4087 
262 1 17.1258 7.17726 7.5 6.0492 -2143.53 5177.29 -122099 -11803.9 20339.1 -39337.4 -7.40974 
263 1 18.5457 7.16053 7.5 6.0492 11590.6 -2258.62 -136609 15360.7 5252.02 -26691.7 -7.40886 
10 1 19.1832 1.00381 7.5 6.04918 4901.84 410.866 -127264 -14183.7 12519.8 -36816.7 -7.40943 
11 1 20.6031 0.987083 7.5 6.04918 6388.65 -437.26 -126839 15147 -10283.2 -34803.8 -7.40945 
12 1 23.4429 0.953622 7.5 6.04918 5155.61 -1812.78 -115665 -15073.7 16426.7 -38052 -7.41012 
13 1 24.8628 0.936892 7.5 6.04918 6529.79 -2360.15 -116175 15736.3 -15005 -35265.7 -7.41009 
14 1 27.7026 0.903431 7.5 6.04918 5413.73 -4331.04 -104069 -14976.7 20507.4 -37234 -7.41083 
68 1 19.2121 3.46315 7.5 6.0492 2148.64 1740.53 -122763 -13584 16624.4 -38869 -7.4097 
69 1 20.632 3.44642 7.5 6.0492 8779.65 -1280.38 -130234 15549.6 -5398.88 -32086.6 -7.40925 
70 1 21.3275 2.20839 7.5 6.04918 3676 -70.0687 -118988 -14435.5 16421 -38844.8 -7.40992 
71 1 22.7474 2.19166 7.5 6.04918 7712.68 -1630.64 -123740 15750.5 -10372.3 -33926.5 -7.40964 
72 1 23.4718 3.41296 7.5 6.0492 2359.9 -910.417 -109759 -14466.3 19955.8 -40288.7 -7.41048 
73 1 24.8917 3.39623 7.5 6.0492 8934.97 -2782.98 -121222 16135.2 -10665.6 -32487.2 -7.40979 
74 1 25.5872 2.1582 7.5 6.04918 3922.05 -2646.29 -106571 -14831.8 20182.2 -39049.9 -7.41067 
75 1 27.0071 2.14147 7.5 6.04918 7868.76 -3549.49 -113892 15837.9 -15371.4 -33471.8 -7.41023 
76 1 27.7315 3.36277 7.5 6.0492 2597.37 -3839.87 -96676.3 -14386 23543.6 -39495.8 -7.41127 
166 1 19.2411 5.9225 7.5 6.0492 -697.2 3007.06 -117689 -12932.5 20000 -40543.1 -7.41 
167 1 20.661 5.90577 7.5 6.0492 10809.5 -2146.96 -132659 15907.2 -286.751 -29081.1 -7.4091 
168 1 21.3565 4.66773 7.5 6.0492 820.555 975.797 -113515 -13829.3 19880.7 -40826.7 -7.41025 
169 1 22.7764 4.651 7.5 6.0492 9925.49 -2322.7 -127507 16162.6 -5618.16 -31019.2 -7.40941 
170 1 23.5008 5.8723 7.5 6.0492 -550.663 -59.4428 -103386 -13807.2 22757.8 -42186.9 -7.41087 
171 1 24.9207 5.85557 7.5 6.0492 10967 -3234.4 -125394 16502.3 -6037.69 -29461 -7.40954 
172 1 25.6162 4.61754 7.5 6.0492 1021.37 -2019.68 -99690.7 -14234.5 23103.3 -41163 -7.41109 
173 1 27.0361 4.60081 7.5 6.0492 10073.7 -3837.72 -119382 16249.1 -11097.9 -30606.5 -7.4099 
174 1 27.7605 5.82211 7.5 6.0492 -364.021 -3395.33 -88907.9 -13753.4 25845.6 -41468.9 -7.41174 
264 1 19.2701 8.38184 7.5 6.0492 -3508.08 4289.09 -112258 -12169.7 22536 -41854.1 -7.41033 
265 1 20.69 8.36511 7.5 6.0492 12431.7 -2920.3 -134010 16160.1 4874.62 -25826.4 -7.40902 
266 1 21.3855 7.12707 7.5 6.0492 -2060.23 2050.98 -107630 -13112.1 22556.5 -42452.1 -7.41061 
267 1 22.8054 7.11034 7.5 6.0492 11761.3 -2933.58 -130293 16476.1 -690.334 -27859.6 -7.40924 
268 1 23.5298 8.33165 7.5 6.0492 -3451.64 823.75 -96763 -13030.8 24736.3 -43754 -7.41127 
269 1 24.9497 8.31492 7.5 6.0492 12581.8 -3599.22 -128572 16778.8 -1283.23 -26217.9 -7.40935 
270 1 25.6452 7.07688 7.5 6.0492 -1932.97 -1353.64 -92497.9 -13528.9 25243.6 -42963.8 -7.41152 
271 1 27.0651 7.06015 7.5 6.0492 11891 -4050.41 -123976 16578.7 -6589.85 -27527.5 -7.40962 
272 1 27.7895 8.28146 7.5 6.0492 -3349.3 -2908.47 -80981 -13008.1 27324.6 -43154.7 -7.41222 
15 1 29.1225 0.886701 7.5 6.04918 6690.35 -4693.26 -105621 15346.5 -19691.7 -33954.8 -7.41073 
16 1 31.9623 0.853241 7.5 6.04918 5646.94 -7160.14 -93059.7 -13935.5 24491.9 -34659.2 -7.41149 
17 1 33.3822 0.836511 7.5 6.04918 6840.79 -7420.76 -95669.1 14038.5 -24064.5 -31022.9 -7.41133 
18 1 36.222 0.80305 7.5 6.04918 5828.17 -10180.7 -83167.4 -12038.4 28123.2 -30394.9 -7.41209 
19 1 37.6419 0.78632 7.5 6.04918 6961.43 -10360.3 -86793.7 11903.4 -27872.6 -26427.3 -7.41187 
77 1 29.1514 3.34604 7.5 6.0492 9079.18 -4726.82 -112348 15732.3 -15816.7 -31271.5 -7.41033 
78 1 29.8469 2.10801 7.5 6.04918 4171.55 -5521.49 -94442.8 -14264.8 24024.2 -37295.8 -7.41141 
79 1 31.2668 2.09128 7.5 6.04918 8014.19 -5905.15 -104400 14968.5 -20151.1 -31424.1 -7.4108 
80 1 31.9913 3.31258 7.5 6.0492 2836.33 -7042.01 -84186.7 -13378.1 27115.8 -36778.5 -7.41203 
81 1 33.4112 3.29585 7.5 6.0492 9185.98 -7101.75 -104016 14400.2 -20578.7 -28571.9 -7.41083 
82 1 34.1066 2.05782 7.5 6.04918 4394.94 -8646.98 -83196.7 -12801.2 27676 -33762.4 -7.41209 
83 1 35.5265 2.04109 7.5 6.04918 8126.37 -8607.32 -95695.3 13214.8 -24452.4 -27815.7 -7.41133 
84 1 36.251 3.26239 7.5 6.0492 3047.98 -10383.1 -72916 -11532.5 30402.9 -32215 -7.41271 
85 1 37.6709 3.24566 7.5 6.0492 9245.92 -9731.29 -96608.9 12220.4 -24714.2 -24333.9 -7.41127 
175 1 29.1804 5.80538 7.5 6.0492 11081.9 -4792.88 -118285 16104.6 -11607.4 -28381.8 -7.40997 
176 1 29.8759 4.56735 7.5 6.0492 1247.31 -5288.4 -86109.1 -13700.4 26488.3 -39374.8 -7.41191 
177 1 31.2958 4.55062 7.5 6.0492 10181 -5822.65 -111593 15371.8 -16284.6 -28744.3 -7.41037 
178 1 32.0202 5.77192 7.5 6.0492 -154.003 -6966.72 -75014 -12795.7 28993.9 -38654.8 -7.41259 
179 1 33.4401 5.75519 7.5 6.0492 11133.4 -6812.87 -111649 14768.2 -16726.8 -25948.7 -7.41037 
180 1 34.1356 4.51716 7.5 6.0492 1472.42 -8759.93 -73456.1 -12288 29757.1 -35639.1 -7.41268 
181 1 35.5555 4.50043 7.5 6.0492 10232.9 -8189.86 -104480 13594.5 -20930.5 -25448.2 -7.4108 
182 1 36.2799 5.72173 7.5 6.0492 52.9421 -10620.4 -62428 -11022.6 31925.2 -33831.2 -7.41335 
183 1 37.6998 5.705 7.5 6.0492 11124 -9121.5 -105776 12559.3 -21168.6 -22099 -7.41072 
273 1 29.2094 8.26473 7.5 6.0492 12660.1 -4775.58 -123303 16404.3 -7214.79 -25307.6 -7.40966 
274 1 29.9049 7.02669 7.5 6.0492 -1765.61 -5009.57 -77546.4 -13039.6 28164.3 -41188.5 -7.41243 
275 1 31.3248 7.00996 7.5 6.0492 11951.3 -5665.58 -117965 15712.3 -12140.8 -25885.1 -7.40999 
276 1 32.0492 8.23126 7.5 6.0492 -3206.85 -6840.92 -65758.7 -12115.3 30038.7 -40286.5 -7.41315 
277 1 33.4691 8.21453 7.5 6.0492 12652.9 -6437.3 -118433 15080.3 -12653.6 -23168.9 -7.40996 
278 1 34.1646 6.9765 7.5 6.0492 -1576.72 -8819.96 -63555.2 -11697.2 31037.9 -37292.1 -7.41328 
279 1 35.5845 6.95977 7.5 6.0492 11937.4 -7690.09 -112514 13928.2 -17102.8 -22930.6 -7.41031 
280 1 36.3089 8.18107 7.5 6.0492 -3044.39 -10797.8 -51919.8 -10435.9 32600.6 -35242.3 -7.41399 
281 1 37.7288 8.16434 7.5 6.0492 12575.4 -8412.13 -114159 12857 -17376.7 -19734.8 -7.41021 
20 1 40.4817 0.75286 7.5 6.04918 5942.94 -13099.1 -74925.6 -9405.5 31170.9 -24398.6 -7.41259 
21 1 41.9016 0.736129 7.5 6.04918 7048.05 -13160.2 -79490.9 9061.66 -30898 -20112.8 -7.41231 
22 1 44.7414 0.702669 7.5 6.04918 5993.7 -15495.8 -68866.3 -6194.73 33441.1 -16737.5 -7.41296 
23 1 46.1613 0.685939 7.5 6.04918 7109.78 -15376 -74256.6 5673.03 -32965.1 -12229.4 -7.41263 
86 1 38.3663 2.00763 7.5 6.04918 4567.82 -11809.7 -73409.6 -10548 30886.9 -28447.2 -7.41268 
87 1 39.7862 1.9909 7.5 6.04918 8199.53 -11388.9 -88213 10677.4 -28045.6 -22563.5 -7.41178 
88 1 40.5107 3.2122 7.5 6.0492 3209.78 -13558.7 -63496.8 -8977.91 33169.8 -25790 -7.41329 
89 1 41.9306 3.19547 7.5 6.0492 9270.49 -12274.7 -90524.5 9300.87 -28009.1 -18493.5 -7.41164 
90 1 42.626 1.95743 7.5 6.04918 4677.01 -14636 -65668.5 -7649.42 33445 -21350 -7.41315 
91 1 44.0459 1.9407 7.5 6.04918 8244.03 -13843.4 -82407.6 7490.16 -30730.6 -15684.9 -7.41213 
92 1 44.7704 3.16201 7.5 6.0492 3309.4 -16140.2 -56556.4 -5877.85 35232.7 -17608.3 -7.41371 
93 1 46.1903 3.14528 7.5 6.0492 9283.87 -14305.2 -86163.2 5799.22 -30276.2 -11186.1 -7.41191 
94 1 46.8857 1.90724 7.5 6.04918 4725.53 -16682.3 -60526.2 -4280 35185 -12686.1 -7.41346 
184 1 38.3953 4.46697 7.5 6.0492 1668.9 -12206.9 -62407.8 -10109.1 32650.4 -29974.5 -7.41335 
185 1 39.8152 4.45024 7.5 6.0492 10237.4 -10678.9 -98383.9 11004.4 -24814.2 -20629.7 -7.41117 
186 1 40.5396 5.67154 7.5 6.0492 229.395 -14040.4 -51883.5 -8567.17 34403.4 -27016.8 -7.41399 
187 1 41.9595 5.65481 7.5 6.0492 11080.8 -11390.9 -100966 9575.23 -24718.3 -16769.4 -7.41101 
188 1 42.655 4.41678 7.5 6.0492 1815.12 -15248.8 -53649.9 -7314.34 34960.1 -22418.4 -7.41389 
189 1 44.0749 4.40005 7.5 6.0492 10222.8 -12901.5 -93659.5 7726.61 -27730 -14300 -7.41145 
190 1 44.7993 5.62135 7.5 6.0492 354.179 -16792.4 -44102.3 -5596.95 36256.7 -18361.9 -7.41447 
191 1 46.2192 5.60462 7.5 6.0492 11044.8 -13219 -97517.3 5968.51 -27173.7 -10086.6 -7.41122 
192 1 46.9147 4.36659 7.5 6.0492 1899.15 -17433 -47823 -4080.02 36537.3 -13229.4 -7.41424 
282 1 38.4243 6.92631 7.5 6.0492 -1393.1 -12541.6 -51302.3 -9614.94 33602.3 -31317.1 -7.41403 
283 1 39.8442 6.90958 7.5 6.0492 11871.8 -9871.08 -107866 11299 -21258.3 -18577.1 -7.41059 
284 1 40.5686 8.13088 7.5 6.0492 -2889.04 -14449.7 -40300.8 -8103.58 34779.1 -28080.1 -7.4147 
285 1 41.9885 8.11415 7.5 6.0492 12469.2 -10388.2 -110678 9819.52 -21164 -14950.5 -7.41042 
286 1 42.684 6.87612 7.5 6.0492 -1241.81 -15784 -41572.8 -6945.67 35656.8 -23346.3 -7.41462 
287 1 44.1039 6.85939 7.5 6.0492 11798 -11842.2 -104271 7941.29 -24391.2 -12837.9 -7.41081 
288 1 44.8283 8.08069 7.5 6.0492 -2767.6 -17358.4 -31717.1 -5286.18 36416.8 -19002.9 -7.41523 
289 1 46.2482 8.06396 7.5 6.0492 12388.4 -11996.2 -108181 6117.66 -23795.2 -8939.99 -7.41057 
290 1 46.9437 6.82593 7.5 6.0492 -1143.55 -18094.5 -35093.1 -3866.11 37070 -13687.1 -7.41502 
24 1 49.0011 0.652478 7.5 6.04918 5994.92 -16947.2 -65449.6 -2596.07 34782.5 -7766.2 -7.41316 
25 1 50.421 0.635748 7.5 6.04918 7159.14 -16603.9 -71507.8 1938.38 -33956.5 -3252.19 -7.4128 
26 1 53.2608 0.602288 7.5 6.04918 5963.26 -17164.5 -64964.8 1168.19 35095.2 1843.98 -7.41319 
27 1 54.6807 0.585557 7.5 6.04918 7201.62 -16607.2 -71487.4 -1906.89 -33825.1 6066.79 -7.4128 
95 1 48.3056 1.89051 7.5 6.04918 8281.07 -15538.4 -78703.8 3835.89 -32350.3 -7476.5 -7.41236 
96 1 49.0301 3.11182 7.5 6.0492 3348.3 -17696.2 -52634.3 -2420.27 36460.2 -8064.8 -7.41395 
97 1 50.45 3.09509 7.5 6.0492 9313.25 -15437.6 -83864.6 1924.2 -31376.8 -2858.32 -7.41204 
98 1 51.1454 1.85705 7.5 6.04918 4723.37 -17571.6 -58403 -644.343 35990.1 -2995.81 -7.41359 
99 1 52.5653 1.84032 7.5 6.04918 8325.64 -16146.9 -77412.1 -59.1963 -32811.1 1448.94 -7.41244 
100 1 53.2898 3.06163 7.5 6.0492 3332.5 -17931.9 -52068.8 1186.04 36768.3 2130.82 -7.41398 
101 1 54.7097 3.0449 7.5 6.0492 9370.06 -15448.1 -83829.5 -2067.98 -31248.4 5779.46 -7.41205 
102 1 55.4051 1.80686 7.5 6.04918 4681.15 -17122.4 -59485.5 3037.39 35794.2 6914.63 -7.41353 
103 1 56.825 1.79013 7.5 6.04918 8377.5 -15554.2 -78651.7 -3938.87 -32099.6 10288.2 -7.41236 
193 1 48.3346 4.34986 7.5 6.0492 10223 -14447 -90639.8 3947.57 -29501.8 -6736.4 -7.41163 
194 1 49.059 5.57116 7.5 6.0492 416.11 -18441.2 -39699.9 -2295.91 37372.7 -8305.34 -7.41474 
195 1 50.4789 5.55443 7.5 6.0492 11053.9 -14247.2 -95687.3 1960.24 -28374.5 -2468.42 -7.41133 
196 1 51.1744 4.31639 7.5 6.0492 1920.05 -18380.3 -45411.3 -602.372 37284.3 -2987.31 -7.41439 
197 1 52.5943 4.29966 7.5 6.0492 10264.4 -15009 -89571.7 -90.8478 -30015.7 1486.25 -7.4117 
198 1 53.3188 5.52097 7.5 6.0492 411.961 -18692 -39060.3 1139.35 37682.3 2409.6 -7.41478 
199 1 54.7387 5.50424 7.5 6.0492 11126 -14267.5 -95631.6 -2172.25 -28242.1 5425.27 -7.41133 
200 1 55.4341 4.2662 7.5 6.0492 1881.67 -17906.4 -46630.2 2914.46 37143.9 7469.18 -7.41431 
201 1 56.854 4.24947 7.5 6.0492 10348.9 -14479.4 -90553.9 -4108.28 -29249.8 9616.38 -7.41164 
291 1 48.3636 6.8092 7.5 6.0492 11764.1 -13224.1 -101965 4044.98 -26304.5 -5973.55 -7.41095 
292 1 49.088 8.0305 7.5 6.0492 -2700.31 -19090.5 -26857.4 -2162.91 37421.2 -8495.06 -7.41552 
293 1 50.5079 8.01377 7.5 6.0492 12381 -12909.4 -106838 1984.69 -25086.9 -2089.85 -7.41065 
294 1 51.2034 6.77574 7.5 6.0492 -1109.9 -19092.3 -32408.1 -563.647 37762.4 -2957.87 -7.41518 
295 1 52.6233 6.75901 7.5 6.0492 11803.6 -13736.1 -101126 -129.568 -26863.8 1484.26 -7.411 
296 1 53.3477 7.98031 7.5 6.0492 -2697.14 -19353.2 -26149 1081.62 37736.4 2671.12 -7.41557 
297 1 54.7676 7.96358 7.5 6.0492 12468.7 -12942.7 -106755 -2279.9 -24945.2 4998.93 -7.41066 
298 1 55.4631 6.72555 7.5 6.0492 -1142.74 -18594.9 -33759.7 2772.51 37684.2 7977.75 -7.4151 
299 1 56.883 6.70882 7.5 6.0492 11920.7 -13278.8 -101833 -4277.1 -26039.1 8846.14 -7.41096 
28 1 57.5205 0.552097 7.5 6.04918 5908.61 -16093.9 -67452 4864.34 34339.3 11241.3 -7.41304 
29 1 58.9404 0.535367 7.5 6.04918 7228.06 -15396.4 -74201.9 -5617.55 -32599.7 14887.9 -7.41263 
30 1 61.7802 0.501906 7.5 6.04918 5830.55 -13937.2 -72688 8262.58 32542.2 19624.8 -7.41273 
31 1 63.2001 0.485176 7.5 6.04918 7217.59 -13222 -79422.6 -8959.69 -30378.4 22517.5 -7.41232 
32 1 66.0399 0.451716 7.5 6.04918 5722.97 -11086.1 -80243.8 11161.4 29800.3 26450.7 -7.41227 
104 1 57.5495 3.01144 7.5 6.0492 3268.74 -16792.7 -54909.6 4726.98 36118.4 12092.5 -7.41381 
105 1 58.9694 2.99471 7.5 6.0492 9443.61 -14346.1 -86068.3 -5908.75 -29919.5 13936.6 -7.41191 
106 1 59.6648 1.75667 7.5 6.04918 4604.01 -15412.7 -63673.3 6539.67 34587 16171.2 -7.41327 
107 1 61.0847 1.73994 7.5 6.04918 8417.84 -13893.4 -82320.2 -7551.38 -30284.8 18270.9 -7.41214 
108 1 61.8092 2.96125 7.5 6.0492 3161.69 -14485.7 -60901.5 7990.78 34523.6 20988.6 -7.41344 
109 1 63.2291 2.94452 7.5 6.0492 9503.54 -12369.3 -90401.7 -9346.84 -27504.4 20965.8 -7.41165 
110 1 63.9245 1.70648 7.5 6.04918 4492.23 -12756.7 -70603.9 9653.62 32421.1 24066.6 -7.41285 
111 1 65.3444 1.68975 7.5 6.04918 8416.87 -11499.5 -88125.8 -10672.2 -27504.8 24864.8 -7.41179 
112 1 66.0689 2.91106 7.5 6.0492 3016.76 -11411.1 -69548.7 10785.2 32060.3 28247.2 -7.41292 
202 1 57.5785 5.47078 7.5 6.0492 345.913 -17490.3 -42241.5 4512.01 37147 12872 -7.41458 
203 1 58.9984 5.45405 7.5 6.0492 11249 -13288.1 -97365.9 -6135.03 -26806 12863.2 -7.41123 
204 1 59.6938 4.21601 7.5 6.0492 1789.98 -16091.3 -51367.8 6263.82 36098.2 17238.5 -7.41402 
205 1 61.1137 4.19928 7.5 6.0492 10452.1 -12982.6 -93513.3 -7830.51 -27282.5 16937 -7.41146 
206 1 61.8382 5.42059 7.5 6.0492 226.912 -15045 -48957.6 7626.43 35765.4 22227.6 -7.41417 
207 1 63.2581 5.40386 7.5 6.0492 11384 -11528.4 -100765 -9657.98 -24197.6 19250.6 -7.41102 
208 1 63.9535 4.16582 7.5 6.0492 1653.39 -13254 -59212 9250.27 34181.1 25586.7 -7.41355 
209 1 65.3734 4.14909 7.5 6.0492 10532.2 -10833.3 -98228.6 -11020.8 -24273.3 22958.7 -7.41118 
210 1 66.0979 5.3704 7.5 6.0492 70.0563 -11760 -58648.8 10299 33594.3 29877.5 -7.41358 
300 1 57.6074 7.93012 7.5 6.0492 -2757.05 -18094.5 -29657.2 4267.13 37323.4 13569.1 -7.41535 
301 1 59.0273 7.91339 7.5 6.0492 12638.5 -12100.8 -107954 -6355.4 -23400.8 11665.3 -7.41059 
302 1 59.7228 6.67535 7.5 6.0492 -1235.35 -16683.6 -39024.5 5952.46 36809.7 18200.2 -7.41478 
303 1 61.1427 6.65862 7.5 6.0492 12086.8 -11964.1 -104043 -8099.59 -23918.9 15457.5 -7.41082 
304 1 61.8671 7.87993 7.5 6.0492 -2867.43 -15522.1 -37066.3 7212.11 36166.4 23329.8 -7.4149 
305 1 63.287 7.8632 7.5 6.0492 12845.1 -10579.1 -110370 -9952.32 -20602.9 17372.7 -7.41044 
306 1 63.9825 6.62516 7.5 6.0492 -1372.76 -13677.7 -47742.9 8793.01 35154 26953.7 -7.41425 
307 1 65.4024 6.60843 7.5 6.0492 12249.5 -10079.7 -107613 -11347.1 -20684.9 20873.8 -7.41061 
308 1 66.1268 7.82974 7.5 6.0492 -3006.13 -12038.8 -47754.7 9741.63 34302 31328.3 -7.41425 
33 1 67.4598 0.434985 7.5 6.04918 7147.19 -10487.9 -86749.8 -11735.4 -27314.9 28564.7 -7.41187 
34 1 70.2996 0.401525 7.5 6.04918 5583.16 -7994.6 -89584.8 13392.6 26273.9 31508.3 -7.4117 
35 1 71.7195 0.384795 7.5 6.04918 7004.33 -7617.47 -95704.9 -13784.3 -23602.9 32939.4 -7.41133 
36 1 74.5593 0.351334 7.5 6.04918 5419.94 -5042.66 -100163 14825.1 22176.7 34824.2 -7.41106 
113 1 67.4888 2.89433 7.5 6.0492 9512.06 -9903.45 -96512 -12179.4 -24178.7 26512.8 -7.41128 
114 1 68.1842 1.65629 7.5 6.04918 4347.03 -9600.74 -79741.9 12194.2 29417.3 30211.7 -7.4123 
115 1 69.6042 1.63956 7.5 6.04918 8347.23 -8795.81 -95663.5 -13124 -23944.6 29856.7 -7.41133 
116 1 70.3286 2.86087 7.5 6.0492 2845.34 -8032.77 -80227.6 12940.4 28877 33631 -7.41227 
117 1 71.7485 2.84414 7.5 6.0492 9440.16 -7355.9 -104018 -14253.5 -20149.6 30511.9 -7.41083 
118 1 72.444 1.6061 7.5 6.04918 4178 -6382.29 -90489.4 14011 25761.7 34524.5 -7.41165 
119 1 73.8639 1.58937 7.5 6.04918 8197.42 -6158.18 -104495 -14771.8 -19816 33265.7 -7.4108 
120 1 74.5883 2.81068 7.5 6.0492 2668.33 -4739.47 -92293.2 14318.5 25191 37143.7 -7.41154 
211 1 67.5178 5.35367 7.5 6.0492 11479.6 -9348.12 -105599 -12532.6 -20615.9 24266.7 -7.41073 
212 1 68.2132 4.11563 7.5 6.0492 1485.41 -9847.48 -69549.1 11692.6 31495.9 32095.8 -7.41292 
213 1 69.6331 4.0989 7.5 6.0492 10546 -8433.18 -104389 -13503.8 -20427.3 27495.4 -7.4108 
214 1 70.3576 5.32021 7.5 6.0492 -102.273 -8103.82 -70604.6 12359.4 30769.6 35551.7 -7.41285 
215 1 71.7775 5.30348 7.5 6.0492 11490.7 -7133.07 -111589 -14613.4 -16283.4 27861.5 -7.41037 
216 1 72.4729 4.06544 7.5 6.0492 1307.59 -6316.87 -81687.6 13435.9 28224.3 36654.4 -7.41218 
217 1 73.8928 4.04871 7.5 6.0492 10465.6 -6144.36 -111657 -15155.5 -15962.6 30581 -7.41037 
218 1 74.6173 5.27002 7.5 6.0492 -261.1 -4473.03 -84082.6 13665.2 27511.2 39221.7 -7.41204 
309 1 67.5467 7.81301 7.5 6.0492 13025.9 -8703.68 -113868 -12855.5 -16774.5 21832.2 -7.41023 
310 1 68.2422 6.57497 7.5 6.0492 -1532.1 -10031.9 -59225.5 11117.3 32802.5 33788.8 -7.41355 
311 1 69.6621 6.55824 7.5 6.0492 12351.5 -7998.42 -112333 -13845.1 -16564.2 24929.8 -7.41033 
312 1 70.3865 7.77955 7.5 6.0492 -3143.61 -8114.41 -60926.5 11687.3 31852.3 37256.6 -7.41344 
313 1 71.8064 7.76282 7.5 6.0492 13121.9 -6832.55 -118275 -14926.7 -12156.2 25000.7 -7.40997 
314 1 72.5019 6.52478 7.5 6.0492 -1683.94 -6195.98 -72687.1 12768.4 29930.8 38556.6 -7.41273 
315 1 73.9218 6.50805 7.5 6.0492 12349.5 -6063.8 -117968 -15482.3 -11784 27664.2 -7.40999 
316 1 74.6463 7.72936 7.5 6.0492 -3247.7 -4152.42 -75740.9 12904.8 29035.7 41045.8 -7.41254 
408 1 68.2712 9.03431 7.5 6.0492 -4611.54 -10156.9 -48991.1 10451.9 33253.4 35277 -7.41417 
409 1 69.6911 9.01758 7.5 6.0492 13716.2 -7480.21 -119363 -14146.7 -12503.7 22171.3 -7.4099 
412 1 72.5309 8.98412 7.5 6.0492 -4699.53 -6024.36 -63706.4 11992.3 30798 40218.1 -7.41328 
413 1 73.9508 8.96739 7.5 6.0492 13792.5 -5907.23 -123300 -15752.7 -7433.39 24535.3 -7.40967 
37 1 75.9792 0.334604 7.5 6.04918 6794.32 -4926.74 -105802 -14985.8 -19465.4 35693.5 -7.41072 
38 1 78.819 0.301144 7.5 6.04918 5255.47 -2445.9 -111454 15359.2 17761.7 36451.8 -7.41038 
39 1 80.2389 0.284413 7.5 6.04918 6539.8 -2558.76 -116559 -15249.1 -15148.6 36797.7 -7.41007 
40 1 83.0787 0.250953 7.5 6.04918 5119.28 -249.946 -122930 14927.9 13307.5 36272 -7.40969 
41 1 84.4986 0.234223 7.5 6.04918 6271.45 -505.436 -127452 -14521 -10918.1 35996.4 -7.40941 
121 1 76.0082 2.79395 7.5 6.0492 9279.29 -5032.68 -112533 -15461.2 -15636.9 33031.8 -7.41031 
122 1 76.7037 1.55591 7.5 6.04918 4006.24 -3409.86 -102262 14983.3 21695 37064.8 -7.41093 
123 1 78.1236 1.53918 7.5 6.04918 7976.45 -3815.82 -114186 -15516.2 -15348.8 35137.7 -7.41021 
124 1 78.848 2.76049 7.5 6.0492 2514.47 -1756.63 -105127 14813 21269.7 38821.3 -7.41076 
125 1 80.2679 2.74375 7.5 6.0492 9043.91 -3069.92 -121668 -15720.9 -10872.1 34057.6 -7.40976 
126 1 80.9634 1.50572 7.5 6.04918 3860.75 -814.461 -114495 15026.5 17491.5 37811.6 -7.41019 
127 1 82.3833 1.48899 7.5 6.04918 7710.67 -1823.05 -124289 -15285.7 -10792.4 35344.5 -7.4096 
128 1 83.1077 2.71029 7.5 6.0492 2412.64 855.556 -118109 14359.5 17399.2 38537 -7.40998 
129 1 84.5276 2.69356 7.5 6.0492 8764.21 -1448.19 -130984 -14978.4 -6112.62 33347.6 -7.4092 
130 1 85.2231 1.45553 7.5 6.04918 3769.18 1410.74 -126587 14095.4 13435.6 36524.2 -7.40947 
219 1 76.0372 5.25329 7.5 6.0492 11393.9 -5178.27 -118447 -15807.2 -11418.9 30111.3 -7.40996 
220 1 76.7326 4.01525 7.5 6.0492 1148.57 -2980.04 -94945.1 14353.1 24616.9 39297.9 -7.41138 
221 1 78.1525 3.99852 7.5 6.0492 10288.1 -4188.59 -119696 -15890.9 -11099.3 32273.5 -7.40988 
222 1 78.877 5.21983 7.5 6.0492 -375.674 -1105.85 -98366.2 14106.9 24098.3 40902.5 -7.41117 
223 1 80.2969 5.2031 7.5 6.0492 11193.3 -3616.88 -125876 -16044.9 -6241.45 31014.4 -7.40951 
224 1 80.9923 3.96506 7.5 6.0492 1038.31 18.005 -108663 14359.3 20960.6 39993.1 -7.41055 
225 1 82.4122 3.94833 7.5 6.0492 10034 -2614.33 -128143 -15644.5 -6072.91 32461.7 -7.40937 
226 1 83.1367 5.16964 7.5 6.0492 -421.419 1917.14 -112745 13627.1 20821.8 40467 -7.4103 
227 1 84.5566 5.15291 7.5 6.0492 10916.2 -2424.28 -133525 -15276.2 -999.679 30355.2 -7.40905 
228 1 85.252 3.91487 7.5 6.0492 999.04 2662.27 -122152 13418.4 17534.6 38504.1 -7.40973 
317 1 76.0662 7.71263 7.5 6.0492 13095.5 -5247.94 -123407 -16088 -6969.72 26953.2 -7.40966 
318 1 76.7616 6.47459 7.5 6.0492 -1796.85 -2498.5 -87345.9 13616.5 26795.8 41261 -7.41184 
319 1 78.1815 6.45786 7.5 6.0492 12227.3 -4491.65 -124277 -16189.1 -6558.06 29141 -7.40961 
320 1 78.906 7.67917 7.5 6.0492 -3290.47 -407.007 -91381.4 13285.8 26138.1 42686.8 -7.41159 
321 1 80.3259 7.66244 7.5 6.0492 12939.6 -4082.98 -129055 -16285.7 -1425.38 27699.8 -7.40932 
322 1 81.0213 6.4244 7.5 6.0492 -1844.32 896.934 -102447 13579.4 23693.2 41858.2 -7.41092 
323 1 82.4412 6.40767 7.5 6.0492 11997.6 -3331.35 -130986 -15910.4 -1110.09 29270.7 -7.4092 
324 1 83.1657 7.62898 7.5 6.0492 -3255.53 3015.87 -107046 12780.9 23450.4 42059.2 -7.41064 
325 1 84.5856 7.61225 7.5 6.0492 12676.4 -3313.54 -134956 -15477.4 4235.04 27059.7 -7.40896 
326 1 85.281 6.37421 7.5 6.0492 -1812.72 3948.33 -117215 12632.2 20894.1 40130.1 -7.41003 
416 1 76.7906 8.93393 7.5 6.0492 -4730.31 -1974.13 -79680.9 12760.4 28145.6 42945 -7.4123 
417 1 78.2105 8.9172 7.5 6.0492 13730.7 -4717.2 -127812 -16413.3 -1885.59 25771.2 -7.40939 
420 1 81.0503 8.88374 7.5 6.0492 -4685.29 1807.91 -96061.9 12679.4 25593.9 43404.1 -7.41131 
421 1 82.4702 8.86701 7.5 6.0492 13534.7 -3963.65 -132713 -16086.7 3923.74 25813.8 -7.4091 
424 1 85.31 8.83355 7.5 6.0492 -4562.23 5248.71 -111990 11736.1 23402.3 41407.3 -7.41035 
42 1 87.3384 0.200762 7.5 6.04918 5037.66 1596.58 -133986 13507 9104.02 33941.1 -7.40902 
43 1 88.7583 0.184032 7.5 6.04918 6016.56 1300.18 -137841 -12795.5 -7051.11 32851.8 -7.40879 
44 1 91.5981 0.150572 7.5 6.04918 5024.24 3136.48 -143888 11134.6 5436.88 29049.4 -7.40843 
45 1 93.018 0.133842 7.5 6.04918 5790.12 2880.29 -146946 -10139.5 -3820.94 26986.4 -7.40824 
131 1 86.643 1.4388 7.5 6.04918 7432.39 -119.287 -134272 -14044.6 -6421.37 33524.6 -7.409 
132 1 87.3674 2.6601 7.5 6.0492 2382.27 3124.28 -130550 12946.2 13848.9 35951.2 -7.40923 
133 1 88.7873 2.64337 7.5 6.0492 8474.28 -76.6721 -139933 -13217.1 -1654.51 30475 -7.40866 
134 1 89.4828 1.40534 7.5 6.04918 3747.92 3311.11 -137828 12203 9797.56 32796.2 -7.40879 
135 1 90.9027 1.38861 7.5 6.04918 7168.45 1367.09 -143468 -11813.7 -2532.97 29231.3 -7.40845 
136 1 91.6271 2.60991 7.5 6.0492 2425.88 5058.23 -141638 10628 10844 30670.5 -7.40856 
137 1 93.047 2.59318 7.5 6.0492 8201.33 1105.16 -147825 -10489.7 2170.86 25062.1 -7.40819 
138 1 93.7425 1.35515 7.5 6.04918 3796.29 4874.73 -147390 9432.75 6813.7 26303.7 -7.40821 
229 1 86.6719 3.89814 7.5 6.0492 9737.54 -1348.45 -136557 -14377 -1160.05 30806.3 -7.40887 
230 1 87.3964 5.11944 7.5 6.0492 -387.965 4594.61 -126448 12226.8 17929.1 37598.6 -7.40947 
231 1 88.8163 5.10271 7.5 6.0492 10601.6 -1490.75 -140936 -13477.6 3994.62 27738.6 -7.4086 
232 1 89.5118 3.86468 7.5 6.0492 1037.2 4967.26 -134626 11559.7 14568.5 34446.1 -7.40898 
233 1 90.9317 3.84795 7.5 6.0492 9435.31 -288.128 -144365 -12096.7 3306.3 26878.5 -7.4084 
234 1 91.6561 5.06925 7.5 6.0492 -283.421 6900.49 -138593 9978.95 15585 31942.6 -7.40874 
235 1 93.076 5.05252 7.5 6.0492 10288.7 -717.836 -147520 -10691.2 8358.96 22807.7 -7.40821 
236 1 93.7715 3.81449 7.5 6.0492 1141 6883.61 -145182 8881.45 12219.3 27527.2 -7.40835 
327 1 86.7009 6.35748 7.5 6.0492 11694.8 -2500.58 -137742 -14608.4 4282.49 27751.8 -7.4088 
328 1 87.4254 7.57879 7.5 6.0492 -3143.47 6082.93 -121885 11405.8 21196.6 38886.1 -7.40975 
329 1 88.8453 7.56206 7.5 6.0492 12347.8 -2816.08 -140747 -13638.6 9687.81 24688 -7.40862 
330 1 89.5407 6.32402 7.5 6.0492 -1706.09 6637.17 -130791 10820.8 18587.7 35734.7 -7.40921 
331 1 90.9606 6.30729 7.5 6.0492 11363 -1871.2 -144071 -12283.1 9257.05 24194.8 -7.40842 
332 1 91.6851 7.5286 7.5 6.0492 -2972.45 8733.98 -134958 9248.45 19485.1 32872.4 -7.40896 
333 1 93.105 7.51187 7.5 6.0492 12003.7 -2455.86 -145947 -10804.1 14509.1 20266.8 -7.4083 
334 1 93.8004 6.27383 7.5 6.0492 -1545.88 8879.44 -142217 8256.91 16855.8 28431.9 -7.40853 