ITEM: TIMESTEP
104
ITEM: NUMBER OF ATOMS
14408
ITEM: BOX BOUNDS pp pp pp
0.0000000000000000e+00 1.0437723699999999e+02
0.0000000000000000e+00 1.8078667700000000e+02
0.0000000000000000e+00 1.8399999600000001e+01
ITEM: ATOMS id type x y z c_csym c_2[1] c_2[2] c_2[3] c_2[4] c_2[5] c_2[6] c_3 
1 1 4.18879e-06 4.17413e-07 7.34014 6.04812 -4398.62 -4511.04 -2.09668 -5.13239 -0.0188194 -0.0972638 -7.41134 
2 1 2.15112 1.19205 7.3411 6.04641 -6542.27 -2469.74 38.3845 -892.599 2046.19 -3779.41 -7.41137 
3 1 3.5708 1.16729 7.34235 6.04362 -5391.27 -3533.06 -80.399 5160.98 1525.36 -5574.13 -7.4114 
4 1 6.40996 1.11823 7.34649 6.04143 -8558.08 -449.916 338.899 4077.46 2852 -10523.3 -7.41156 
5 1 7.82963 1.09455 7.34925 6.03948 -7358.91 -1436.16 -391.002 18303.3 -306.659 -11070.5 -7.41158 
50 1 0.0432156 2.45898 7.3411 6.04523 -6362.75 -2628.02 -26.9765 -1312.3 3904.17 -92.7103 -7.41137 
51 1 1.4629 2.43402 7.34141 6.04522 -4264.62 -4759.73 6.50819 254.651 4168.19 -2244.22 -7.41138 
52 1 2.19409 3.65118 7.34296 6.04329 -10720.8 1771.34 24.2266 -3518.32 5588.3 -4111.73 -7.41143 
53 1 3.61375 3.62643 7.34416 6.04173 -7558.58 -1328.91 -172.879 2565.63 5843.18 -5014.63 -7.41145 
54 1 4.302 2.38447 7.34387 6.04448 -10806.7 1785.84 282.217 -301.162 4116.28 -7641.08 -7.41147 
55 1 5.72166 2.36015 7.34591 6.04084 -8567.46 -223.986 -435.745 10009 2834.04 -8085.09 -7.41149 
56 1 6.45245 3.5776 7.34817 6.04276 -16904.1 7904.83 888.83 1552.11 6086.31 -11341.2 -7.41165 
57 1 7.87208 3.55393 7.35083 6.03787 -13425.2 4733.07 -1231.46 15628.6 3736.42 -9838.61 -7.41157 
58 1 8.56044 2.31204 7.35136 6.03939 -14247.4 5328.43 1092.32 8336.97 5198.24 -13804.2 -7.41177 
148 1 0.0859911 4.91801 7.34386 6.04214 -8069.12 -524.626 -232.574 -5450.88 7145.01 -165.077 -7.41144 
149 1 1.50568 4.89307 7.34416 6.04334 -4052.1 -4770.45 212.362 -3717.24 8546.65 -2075.8 -7.41148 
150 1 2.23641 6.11048 7.34648 6.04073 -14624.5 6086.59 -263.693 -8683.85 8374.91 -4343.96 -7.41151 
151 1 3.65607 6.08577 7.34761 6.0393 -9576.57 1017.86 18.1849 -2692.32 10115.4 -4363.89 -7.41157 
152 1 4.34451 4.84386 7.34649 6.04161 -17050.9 8291.57 369.412 -4263.71 7177.71 -8129.38 -7.41156 
153 1 5.76415 4.81956 7.34843 6.03827 -12771.7 4049.03 -720.347 5993.47 7062.27 -7088.21 -7.41154 
154 1 6.49433 6.03737 7.35137 6.03943 -24803.9 16039.9 1152.98 -3640.35 8593.01 -11926.8 -7.41177 
155 1 7.91394 6.01369 7.35386 6.03418 -19242.6 10950 -1779.28 10182.9 7808.88 -8440.26 -7.41163 
156 1 8.60231 4.77176 7.35364 6.03949 -24064.2 15227.4 1982.99 4342.27 7881.1 -14710.1 -7.4119 
246 1 0.127915 7.37708 7.34816 6.03906 -9643.3 1444.98 -801.649 -11589.4 9556.37 -230.036 -7.41152 
247 1 1.54761 7.35219 7.34844 6.04162 -3876.53 -4577.36 778.955 -9940.11 12735.7 -1875.43 -7.41165 
248 1 2.27773 8.56994 7.35135 6.03867 -18183.2 9995.28 -992.091 -15663.8 10311.6 -4499.96 -7.4116 
249 1 3.69738 8.54529 7.35238 6.03674 -11588.6 3119.5 641.892 -9902.78 14112.4 -3639.69 -7.41177 
250 1 4.38621 7.30354 7.35057 6.03926 -22789 14353 89.2596 -10392.2 9437.17 -8456.75 -7.41166 
251 1 5.80583 7.27927 7.35237 6.03477 -16682.4 8262.28 -635.303 -492.395 11154.9 -5969.48 -7.41167 
252 1 6.53524 8.49749 7.35578 6.03636 -32061.9 23597.4 957.274 -10825.2 10294.9 -12314.7 -7.41188 
253 1 7.95483 8.47383 7.35806 6.0302 -24778.7 16832.3 -1866.03 2499.45 11693.8 -6915.8 -7.41176 
254 1 8.64341 7.23194 7.3572 6.03538 -33166.2 24748.9 2482.06 -1993.96 9803.21 -15364.4 -7.41204 
6 1 10.6687 1.04748 7.35578 6.03424 -9360.16 1016.55 808.978 15874.2 4564.8 -15451.9 -7.41188 
7 1 12.0884 1.02556 7.35937 6.03561 -8055.61 232.556 -886.113 36209.5 -3055.49 -14774.1 -7.41186 
8 1 14.9274 0.981212 7.36691 6.02633 -10113.5 1904.73 1330.97 32487.9 6972.37 -18343.8 -7.41227 
9 1 16.3471 0.961463 7.3707 6.02868 -8728.8 1478.31 -1461.85 56826.3 -6308.75 -16798.9 -7.41216 
59 1 9.98009 2.28917 7.35458 6.03773 -11691.9 3368.75 -1334.22 25790.2 311.84 -12438.9 -7.41168 
60 1 10.7104 3.50703 7.35719 6.03759 -21012.2 12274.2 2383.07 13274.2 7368.54 -16695.4 -7.41204 
61 1 12.13 3.48509 7.36065 6.03534 -17127.6 9393.25 -2878.89 33522.1 606.747 -13119.6 -7.41176 
62 1 12.8187 2.24345 7.36172 6.03198 -16212 7728.61 2198.72 22782.2 7074.13 -17878.2 -7.41217 
63 1 14.2383 2.22257 7.36541 6.03398 -13570 5926.18 -2530.78 45335 -2944.12 -15107.8 -7.41193 
64 1 14.9681 3.44088 7.36805 6.03002 -23605.6 14915.6 4225.29 29898.2 9368.48 -19889.5 -7.41251 
65 1 16.3877 3.42109 7.3717 6.03276 -19391.2 12464 -4834.89 54162 -3012.41 -14954.9 -7.41196 
66 1 17.0769 2.17982 7.373 6.02399 -17168.4 9082.52 3419.04 41221.9 9541.6 -19971.7 -7.4126 
67 1 18.4965 2.16123 7.37665 6.02664 -14323 7742.11 -3816.54 66683.1 -6472.4 -16380.9 -7.41218 
157 1 10.0219 4.74887 7.3567 6.03479 -19230.9 11210.2 -2585.14 21689.1 4237.97 -10869.7 -7.41165 
158 1 10.7515 5.96714 7.35988 6.03575 -31914.5 23448.7 3650.83 7956.92 9469.89 -17661.6 -7.41221 
159 1 12.1711 5.94515 7.36314 6.03104 -25708.1 18661.2 -4559.8 27936.3 4397.13 -11290.2 -7.41172 
160 1 12.8597 4.70338 7.36359 6.03488 -28621.4 19996.7 4277.12 18695.1 9328.9 -19155.7 -7.41237 
161 1 14.2792 4.68244 7.36711 6.033 -23355 16205.8 -5063.14 41146.7 641.435 -13248.2 -7.41181 
162 1 15.0082 5.90122 7.37024 6.03147 -36419.3 27856 6797.57 24417 11068.7 -21188 -7.41276 
163 1 16.4278 5.88134 7.37368 6.02982 -29593.8 23562.6 -7877.19 48430.9 496.17 -12966.8 -7.41181 
164 1 17.1168 4.63987 7.3745 6.02702 -30972.9 22483.5 6892.5 37039 11428.2 -21498.1 -7.41289 
165 1 18.5364 4.6212 7.37798 6.0316 -25289.4 19243.8 -7771.2 62452.2 -3188.87 -14446.6 -7.41196 
255 1 10.063 7.20903 7.36004 6.03004 -26280.1 18990.4 -3439.35 14910.1 8130.95 -9143 -7.4117 
256 1 10.7917 8.4278 7.36362 6.03112 -41979.6 33968.4 4421.52 488.368 10810.8 -18376.9 -7.41237 
257 1 12.2112 8.40576 7.36663 6.02605 -33849.6 27485.5 -5735.4 19839.2 8114.01 -9324.75 -7.41175 
258 1 12.8999 7.16393 7.36653 6.03185 -40148.1 31940.8 5934.96 12143.9 10849.7 -20172.1 -7.41258 
259 1 14.3194 7.14291 7.36982 6.02747 -32593 26433.6 -7166.25 34120.4 4298.82 -11242.2 -7.41175 
260 1 15.0475 8.36221 7.37329 6.02795 -48390.1 40202.4 8835.95 16598.6 12025.4 -22247.8 -7.41299 
261 1 16.467 8.34221 7.3765 6.02424 -39398.5 34307.5 -10372.6 40009.7 4028.57 -10858.5 -7.41174 
262 1 17.156 7.10062 7.37689 6.02783 -43953.2 35644.1 9926.01 30214.8 12581.8 -22806.6 -7.41318 
263 1 18.5755 7.08182 7.38015 6.02689 -35739.6 30734.7 -11273.3 55225.3 243.731 -12394.8 -7.41179 
10 1 19.1863 0.920289 7.3782 6.01825 -10081.7 2686.05 1838.68 52323.3 9784.02 -19537.9 -7.41265 
11 1 20.6059 0.902919 7.38176 6.02037 -8795.73 2377.78 -2004.68 78504.2 -9672.8 -17510 -7.41246 
12 1 23.4452 0.865091 7.38856 6.01044 -10242.9 2977.78 2283.02 73932.3 12677.4 -19401.5 -7.41299 
13 1 24.8649 0.850141 7.39166 6.01202 -8987.77 2968 -2441.18 100072 -12831.8 -17155.5 -7.41273 
14 1 27.7043 0.815637 7.39743 6.00329 -10196.7 3233.88 2617.36 96006.1 15372 -18158.3 -7.41326 
68 1 19.2258 3.38002 7.3791 6.02201 -24519.7 16234.1 6163.04 49729.6 11861.4 -21220 -7.41298 
69 1 20.6454 3.36259 7.38251 6.02493 -20180.1 14080.7 -6809.7 75891.3 -6676.26 -15651.7 -7.41216 
70 1 21.3352 2.12175 7.38383 6.016 -17533.6 9619.8 4610.26 62130.1 12297.8 -20482.2 -7.41301 
71 1 22.7548 2.10557 7.38711 6.0183 -14717.3 8525.48 -5011.13 88477.6 -9905.94 -16560.7 -7.41242 
72 1 23.4836 3.32485 7.38927 6.0141 -24680.1 16187.6 7979.71 71354.8 14524 -21055.5 -7.41341 
73 1 24.9031 3.30982 7.39221 6.01658 -20228.1 14556.8 -8577.43 97547.3 -10073.2 -15408.1 -7.41234 
74 1 25.5937 2.06945 7.39343 6.00837 -17249.5 9544.14 5650.35 84173.1 15024.6 -19715.1 -7.41336 
75 1 27.0133 2.05565 7.39617 6.01005 -14434.6 8797.04 -5998.68 109632 -12980.9 -15800.9 -7.41263 
76 1 27.7416 3.27538 7.39799 6.00669 -23856.5 15432 9505.93 93453 17050.1 -19657.2 -7.41376 
166 1 19.2648 5.84047 7.38086 6.02414 -38303.3 29752.4 10161.5 44069.1 13235.7 -22714.8 -7.41332 
167 1 20.6843 5.82291 7.38408 6.02882 -31123.9 25929.8 -11276.7 70081.3 -3412.39 -13684.8 -7.41191 
168 1 21.3739 4.58186 7.38504 6.01903 -31770 23119.6 9505.91 57884.5 13908.2 -22091.1 -7.41339 
169 1 22.7935 4.56557 7.38815 6.02353 -25904.9 20334.9 -10365.1 84287.6 -6869.63 -14697 -7.4121 
170 1 23.5214 5.78531 7.39071 6.01619 -38461.6 29479.1 13359.5 65568.7 15659.1 -22579.1 -7.41383 
171 1 24.941 5.77013 7.39347 6.02148 -31039.8 26290.8 -14383.1 91697.9 -7018.8 -13578.8 -7.412 
172 1 25.6313 4.52954 7.39441 6.01128 -31089.2 22378.7 11846.9 79895.1 16437.2 -21251.4 -7.41383 
173 1 27.0508 4.51562 7.39698 6.01522 -25142.5 20055.7 -12595.6 105435 -10151.4 -14108.6 -7.41222 
174 1 27.7783 5.73578 7.3992 6.00872 -36887.9 27714.3 16095.2 87496.3 18016.8 -21068.7 -7.41426 
264 1 19.303 8.30162 7.38336 6.02442 -51287.4 42802.8 13604.5 35863.3 13857 -24017.4 -7.41363 
265 1 20.7225 8.28388 7.38636 6.02433 -41675.9 37573.5 -15173.2 61403.7 -60.5842 -11619.5 -7.41173 
266 1 21.412 7.04268 7.38699 6.02151 -45210.3 36476.1 13958.8 50782.5 14773.6 -23539.2 -7.41376 
267 1 22.8315 7.02622 7.3899 6.02586 -36599.4 32224.1 -15262.1 76936 -3638.82 -12741.8 -7.41183 
268 1 23.5585 8.24648 7.39278 6.01921 -51512.9 42420.8 18182.8 57017.7 16023.6 -23962.2 -7.41423 
269 1 24.978 8.23107 7.39534 6.02332 -41496.6 37890.8 -19619.3 82781.3 -3841.52 -11668.9 -7.41171 
270 1 25.6682 6.99033 7.39603 6.01374 -44219.6 35155.3 17613.4 72543.7 17094.9 -22676.9 -7.41428 
271 1 27.0877 6.9762 7.39842 6.01936 -35387.1 31500.2 -18749.6 97948.8 -7106.19 -12343.8 -7.41186 
272 1 27.8144 8.19686 7.40096 6.01174 -49215.9 39770.5 22146.3 78613.4 18202 -22384.3 -7.41475 
15 1 29.124 0.803016 7.39996 6.00409 -9059 3325.65 -2743.29 120400 -15562.1 -15866.3 -7.41295 
16 1 31.9636 0.771621 7.40457 5.99716 -9937.45 3400.13 2811.32 117059 17673.2 -15994.5 -7.41347 
17 1 33.3833 0.761103 7.40651 5.99706 -8888.11 3602.73 -2907.04 138340 -17748.3 -13783.8 -7.41312 
18 1 36.2231 0.732439 7.40998 5.9915 -9724.56 3476.07 2866.24 135744 19489.7 -13142.9 -7.4136 
19 1 37.6427 0.723697 7.41137 5.99128 -8724.73 3746.52 -2944.7 152968 -19374.8 -11104.3 -7.41324 
77 1 29.1611 3.26267 7.40036 6.00849 -19477.8 14014.1 -10000.8 117911 -12999.8 -14318.8 -7.41248 
78 1 29.8523 2.02276 7.40139 6.00154 -16636.2 9018.58 6450.74 105934 17466.2 -17881.4 -7.41364 
79 1 31.2719 2.0112 7.40355 6.00239 -13853 8542.36 -6725.69 128933 -15537.2 -14207.4 -7.41279 
80 1 31.9998 3.23132 7.40502 5.9999 -22198.2 14050.7 10645 114485 19224.8 -17259.8 -7.41403 
81 1 33.4194 3.22071 7.4068 6.00114 -17894.5 12866.4 -11025.7 135855 -15352.2 -12492.9 -7.41259 
82 1 34.1113 1.98124 7.40762 5.99528 -15651.7 8318.38 6978.89 125948 19473.3 -15210.6 -7.41384 
83 1 35.5309 1.97162 7.4092 5.99576 -12992.7 7861.97 -7187.39 145334 -17515.8 -11934.6 -7.41291 
84 1 36.2584 3.19207 7.41037 5.99366 -20053.5 12228 11389.1 133105 20946.9 -14137.9 -7.41421 
85 1 37.678 3.18324 7.41161 5.99493 -15839.8 11150.1 -11669.4 150461 -17115.7 -10097.6 -7.41267 
175 1 29.1978 5.7229 7.40139 6.01402 -29423.5 24969.8 -16946.3 112000 -10132 -12708.2 -7.41206 
176 1 29.8889 4.4828 7.40221 6.00422 -29392 20563.6 13729.6 101555 18736.6 -19235.3 -7.41418 
177 1 31.3084 4.47109 7.40419 6.00734 -23429.2 18642.2 -14325.8 124700 -12887.4 -12756.1 -7.41231 
178 1 32.0356 5.69161 7.40607 6.00211 -33786 24833.2 18202.2 108345 20075.2 -18468.8 -7.4146 
179 1 33.4551 5.6808 7.40767 6.00656 -26364.4 22395.9 -18855.9 129818 -12652.1 -11154.6 -7.41211 
180 1 34.1468 4.44118 7.40833 5.99811 -26672.7 18106.4 15082.9 121460 20641.8 -16321 -7.41443 
181 1 35.5664 4.43141 7.40974 6.00033 -20817.6 16362.9 -15527.8 141016 -15020.8 -10764.3 -7.41238 
182 1 36.2934 5.6522 7.41132 5.99668 -29680.8 21136 19657.9 126788 21719.7 -15099 -7.41483 
183 1 37.7129 5.64316 7.41238 5.99992 -22341.3 18875 -20129 144299 -14560 -9057.87 -7.41215 
273 1 29.2338 8.18371 7.40296 6.01762 -38969.9 35862.8 -23344 102860 -7125.85 -11031.6 -7.4117 
274 1 29.9248 6.94347 7.4036 6.00665 -41378.4 32172.7 20602.9 93948.2 19253.3 -20516.7 -7.41471 
275 1 31.3443 6.93153 7.40541 6.01221 -32468.7 29004 -21509.7 117046 -10015.7 -11247.7 -7.41188 
276 1 32.0707 8.1525 7.40761 6.00511 -44740.9 35446.4 25253 99142.1 20145.7 -19617.2 -7.41515 
277 1 33.4902 8.1414 7.40904 6.01087 -34480.9 31904.7 -26172.8 120468 -9809.94 -9764.34 -7.41169 
278 1 34.1818 6.90167 7.40957 6.00059 -37012.1 27962.9 22811 113630 21067.6 -17387.2 -7.41502 
279 1 35.6014 6.89166 7.41081 6.00586 -28123.4 25165 -23483 133203 -12306.8 -9551.87 -7.4119 
280 1 36.3276 8.11285 7.41272 5.99964 -38699.4 29901.2 27456.2 117314 21723.7 -16025.6 -7.41543 
281 1 37.7471 8.10349 7.41362 6.00508 -28479.4 26630.5 -28112.4 134738 -11865.2 -7980.98 -7.41169 
20 1 40.4827 0.697255 7.41381 5.98725 -9325.96 3641.4 2807.8 151085 20816.6 -9857.41 -7.41369 
21 1 41.9023 0.689893 7.41472 5.98694 -8421.84 3777.17 -2878.33 163745 -20488.8 -8036.6 -7.41332 
22 1 44.7425 0.665092 7.41628 5.98453 -8827.34 3651.87 2667.75 162500 21697 -6350.78 -7.41373 
23 1 46.1621 0.658675 7.41679 5.98413 -7954.91 3707.28 -2733.68 170328 -21158.5 -4748.72 -7.41338 
86 1 38.3704 1.94415 7.4122 5.9901 -14246.4 7361.44 7256.74 143031 20999.2 -11970.5 -7.41396 
87 1 39.79 1.93612 7.41327 5.99044 -11639.7 7005.44 -7413.9 158047 -18937.1 -9179.57 -7.41299 
88 1 40.5174 3.15681 7.41419 5.98877 -17342.6 10177.2 11793.4 148341 22207 -10572 -7.41433 
89 1 41.937 3.14935 7.41495 5.99006 -13217.1 9098.55 -11993.1 161143 -18335 -7320.44 -7.41273 
90 1 42.6298 1.91058 7.41532 5.98621 -12593.4 6302.34 7335.81 156412 22067 -8410.65 -7.41404 
91 1 44.0494 1.90371 7.41595 5.98658 -10068.1 5875.41 -7454.53 166719 -19863.7 -6127.72 -7.41305 
92 1 44.7767 3.12457 7.41667 5.98534 -14327.2 7871.01 11936.8 159667 23045.3 -6787.94 -7.41439 
93 1 46.1963 3.11806 7.41703 5.98666 -10268.2 6768.58 -12071.4 167629 -19077.2 -4319.12 -7.41277 
94 1 46.8895 1.8795 7.4172 5.98381 -10717.9 5122.28 7270.51 165688 22728.4 -4712.36 -7.41407 
184 1 38.4052 4.40397 7.41285 5.99232 -23127.1 15095.3 15940.3 138428 22096.6 -12812.3 -7.4146 
185 1 39.8248 4.39578 7.41376 5.99453 -17341.3 13506.6 -16255.4 153631 -16568.5 -8305.48 -7.41243 
186 1 40.5517 5.61676 7.41508 5.99146 -24665.3 16887.6 20544.5 141876 22930.6 -11268.6 -7.41498 
187 1 41.9712 5.60909 7.41568 5.99452 -17415.6 14759.4 -20862.2 154843 -15894.2 -6584.48 -7.41218 
188 1 42.6641 4.37026 7.41596 5.98789 -19000.2 11803.9 16393.2 151687 23118.5 -8979.04 -7.4147 
189 1 44.0837 4.36324 7.41644 5.9901 -13317 10186.4 -16603.1 162197 -17589.1 -5548.82 -7.41247 
190 1 44.8105 5.5843 7.41755 5.98747 -19081.6 12298.4 20984.3 153060 23741.5 -7217.52 -7.41506 
191 1 46.2301 5.57758 7.41776 5.99037 -11909.4 10178.8 -21176.6 161226 -16717.2 -3881.37 -7.4122 
192 1 46.9234 4.33903 7.41786 5.98492 -14569.1 8258.28 16541.8 160851 23755.2 -5010.62 -7.41474 
282 1 38.4395 6.86424 7.414 5.99579 -31308.4 22925.6 24276.3 130389 22467.8 -13630.1 -7.41523 
283 1 39.859 6.85579 7.41475 5.99985 -22482 20333.9 -24740.8 145672 -13987.7 -7403.5 -7.41192 
284 1 40.5853 8.0771 7.4164 5.99549 -31412.9 23504.4 28857.9 132195 22900.7 -11948.6 -7.41562 
285 1 42.0048 8.06911 7.41685 6.00013 -21272 20443.1 -29288.5 145116 -13319.5 -5826.15 -7.41169 
286 1 42.6978 6.83027 7.41707 5.99103 -24753.3 17403.4 25125.7 143489 23460.2 -9537.05 -7.41536 
287 1 44.1174 6.82298 7.41739 5.99479 -16015.6 14869.5 -25418.6 154074 -15109.8 -4955.58 -7.41193 
288 1 44.8437 8.04432 7.41884 5.99095 -23359.1 16650.9 29618 143191 23698.2 -7642.06 -7.41573 
289 1 46.2633 8.03728 7.41889 5.99499 -13294.8 13635.9 -29862.8 151356 -14228.6 -3435.27 -7.4117 
290 1 46.9568 6.79878 7.41895 5.98746 -17721.5 11516.6 25502.6 152550 24084.5 -5307.06 -7.41542 
24 1 49.0024 0.63489 7.41758 5.98308 -8287.42 3479.22 2475.08 169660 22185.1 -2763.43 -7.41374 
25 1 50.422 0.628969 7.41774 5.98289 -7456.6 3351.6 -2534.68 172562 -21441.5 -1348.72 -7.41341 
26 1 53.2623 0.605557 7.41784 5.98245 -7532.68 3082.43 2250.4 172465 22320.3 827.729 -7.41373 
27 1 54.6819 0.599676 7.41767 5.98281 -6767.71 2652.33 -2298.5 170425 -21366.7 2101.88 -7.41342 
95 1 48.3091 1.87336 7.41746 5.98426 -8266.5 4499.84 -7356.59 171089 -20361.5 -2914.25 -7.41308 
96 1 49.0363 3.09427 7.418 5.98338 -11114.3 5368.33 11889.2 166736 23514.3 -2929.05 -7.41441 
97 1 50.4559 3.08826 7.41802 5.98452 -7094.8 4136.93 -11966.2 169751 -19399.9 -1199.91 -7.41279 
98 1 51.1493 1.84984 7.418 5.9828 -8684.99 3688.38 7103 170605 23032.2 -980.914 -7.41407 
99 1 52.5689 1.84397 7.41792 5.98314 -6271.91 2867.65 -7155.93 171085 -20475.5 378.544 -7.4131 
100 1 53.2963 3.06485 7.41831 5.98271 -7735.3 2671 11697 169419 23653 930.017 -7.4144 
101 1 54.7159 3.05888 7.41799 5.98364 -3803.93 1049.02 -11715 167484 -19333 1971.66 -7.4128 
102 1 55.4093 1.8205 7.41778 5.9824 -6707.26 1903.6 6857.34 171183 23004.7 2729.04 -7.41405 
103 1 56.829 1.81444 7.41736 5.98334 -4337.82 790.78 -6871.93 166723 -20218.3 3698.25 -7.41311 
193 1 48.343 4.33274 7.41796 5.98694 -8971.38 6565.11 -16663.8 166465 -18146.5 -2623.95 -7.41249 
194 1 49.0699 5.5538 7.4189 5.98494 -13298.2 7489.47 21088.6 160035 24200.4 -3094.21 -7.4151 
195 1 50.4895 5.54758 7.41876 5.98732 -6169.18 5253.61 -21172.1 163248 -17085 -1053.76 -7.41222 
196 1 51.1831 4.30922 7.41868 5.98343 -9901.16 4478.06 16462.3 165688 24053.8 -1013.03 -7.41476 
197 1 52.6027 4.3032 7.41846 5.98497 -4335.2 2601.52 -16502.9 166322 -18286.1 384.567 -7.41251 
198 1 53.3298 5.52416 7.41924 5.98395 -7277.76 2396.5 20929.6 162619 24344.6 1027.42 -7.41509 
199 1 54.7495 5.51798 7.41877 5.98586 -217.333 -146.905 -20907.2 160865 -17027.4 1827.98 -7.41224 
200 1 55.4432 4.27972 7.41851 5.98309 -5315.75 356.194 16195.2 166133 24040.5 2961.96 -7.41473 
201 1 56.8629 4.27351 7.41795 5.98458 236.049 -1807.79 -16149.6 161849 -18020.6 3418.47 -7.41252 
291 1 48.3764 6.79222 7.41891 5.99067 -9083.13 8988.57 -25652.6 158235 -15732.9 -2331.93 -7.41195 
292 1 49.1029 8.01349 7.42018 5.98789 -14958.1 9477.14 29887.9 150065 24156.2 -3261.43 -7.41578 
293 1 50.5225 8.00695 7.4199 5.99136 -4937.98 6447.47 -29973.2 153246 -14645.2 -912.52 -7.41171 
294 1 51.2164 6.76869 7.4198 5.98544 -10475.4 5449.16 25517.1 157276 24384.1 -1049.12 -7.41544 
295 1 52.636 6.7624 7.41942 5.98812 -1880.25 2654.18 -25537.5 157961 -15901.1 380.465 -7.41196 
296 1 53.3628 7.98351 7.42053 5.98639 -6421.88 2030.18 29764.7 152556 24309 1117.85 -7.41577 
297 1 54.7825 7.97701 7.41993 5.98931 3588.95 -1293.5 -29697 150748 -14598.2 1665.95 -7.41172 
298 1 55.4766 6.73891 7.41965 5.98495 -3287.53 -985.276 25226.1 157628 24384.3 3186.14 -7.41542 
299 1 56.8963 6.73244 7.41895 5.98715 5285.8 -4115.49 -25113 153368 -15627.3 3116.2 -7.41198 
28 1 57.5223 0.575993 7.41709 5.98313 -6836.93 2301.26 2007.16 170914 22113.4 4376.35 -7.4137 
29 1 58.9419 0.569693 7.41657 5.98408 -6067.81 1709.29 -2037.23 163928 -20929.6 5555.7 -7.41341 
30 1 61.7823 0.545099 7.41524 5.98539 -6031.96 1310.42 1754.09 165030 21541.4 7828 -7.41365 
31 1 63.2019 0.537928 7.41432 5.9863 -5323.32 498.516 -1759.53 153166 -20094.4 8941.42 -7.41338 
32 1 66.0423 0.511794 7.41212 5.9892 -5181.29 199.55 1495.9 154910 20551.9 11083.4 -7.41356 
104 1 57.5565 3.03519 7.4176 5.98281 -4378.26 -444.409 11378.6 167765 23472.9 4747.46 -7.41437 
105 1 58.9761 3.0288 7.41694 5.98433 -433.244 -2248.06 -11328.8 160908 -18872.4 5141.86 -7.4128 
106 1 59.6695 1.79037 7.41651 5.98358 -4602.79 -94.107 6542.47 167406 22640.8 6374.07 -7.41401 
107 1 61.0891 1.78367 7.41573 5.9851 -2288.45 -1504.33 -6508.71 158032 -19569.5 6987.25 -7.4131 
108 1 61.8169 3.00419 7.41579 5.98449 -1053.15 -3742.23 10926.8 161810 22953.4 8471.42 -7.4143 
109 1 63.2366 2.99694 7.41473 5.98657 2892.39 -5811.63 -10794.3 150100 -17982.6 8234.56 -7.41279 
110 1 63.9297 1.75837 7.41407 5.98633 -2568.98 -2326.19 6151.04 159344 21902.8 9881.84 -7.41393 
111 1 65.3494 1.75058 7.41286 5.98782 -268.968 -3880.62 -6058.18 145196 -18482 10148 -7.41306 
112 1 66.0775 2.97079 7.4127 5.98777 2095.78 -7030.45 10311.2 151694 22045.4 12001.2 -7.41419 
202 1 57.5903 5.49428 7.41857 5.98391 -1323.81 -3002.72 20531.1 160889 24187.1 5108.2 -7.41505 
203 1 59.01 5.48769 7.41776 5.98596 5756.39 -5885.29 -20391.5 154190 -16540.7 4702.85 -7.41224 
204 1 59.7037 4.24944 7.41729 5.98369 -646.325 -3957.03 15743.5 162308 23712.3 6874.33 -7.41468 
205 1 61.1234 4.24258 7.41636 5.98577 4878.14 -6495.47 -15596.7 153092 -17330 6413.63 -7.41252 
206 1 61.8511 5.46306 7.4168 5.98504 4535.98 -8628.26 19870.7 154903 23710 9097.6 -7.41497 
207 1 63.2709 5.45561 7.4156 5.98765 11629.4 -11815.3 -19591.5 143344 -15589.4 7488.88 -7.41224 
208 1 63.9645 4.21727 7.41488 5.98589 3814.18 -8412.09 15074.5 154250 23034.8 10652 -7.41458 
209 1 65.3842 4.20934 7.41353 5.98851 9323.23 -11196.9 -14805.8 140268 -16167.6 9268.82 -7.4125 
210 1 66.1124 5.42945 7.41375 5.9878 9888.85 -14109.4 18882.7 144852 22869.8 12891.6 -7.41482 
300 1 57.6234 7.95328 7.41989 5.98635 2063.45 -5720.98 29278.9 150746 24170.3 5456.98 -7.41573 
301 1 59.0432 7.94637 7.41895 5.98885 12111 -9437.18 -29044.7 143982 -14083.6 4231.46 -7.41173 
302 1 59.7374 6.70834 7.41846 5.9852 3901.75 -7651.07 24627.5 153720 24084.4 7360.17 -7.41535 
303 1 61.1572 6.70123 7.4174 5.98777 12484.2 -11223.2 -24360.7 144565 -14891 5803.86 -7.41199 
304 1 61.8848 7.92173 7.41816 5.98695 10331.2 -13636.5 28392 144770 23726.3 9704.96 -7.41562 
305 1 63.3046 7.91395 7.41683 5.98999 20404.9 -17738.4 -27961.7 133190 -13066.6 6695.29 -7.41175 
306 1 63.9988 6.6759 7.4161 5.98688 10676.3 -14376.6 23663.3 145703 23455.5 11399.3 -7.41523 
307 1 65.4186 6.66771 7.41462 5.98997 19270.3 -18294.1 -23212.6 131804 -13646.9 8337.88 -7.41199 
308 1 66.1467 7.88778 7.41515 5.9892 17874.1 -21358.8 27005.8 134819 22941.2 13752 -7.41545 
33 1 67.4619 0.503315 7.41074 5.99005 -4529.54 -734.811 -1472.92 138434 -18808.1 12131.1 -7.41332 
34 1 70.3022 0.475049 7.40752 5.99452 -4410.23 -943.879 1234.27 140893 19076.9 13979.7 -7.41343 
35 1 71.7218 0.464857 7.4056 5.99528 -3760.28 -1806.51 -1186.24 120263 -17023.3 14928.2 -7.41322 
36 1 74.562 0.433937 7.40124 6.00118 -3771.86 -1876.73 971.874 123464 17063.3 16302 -7.41324 
113 1 67.4972 2.96223 7.41118 5.98988 6011.94 -9296.4 -10081 135351 -16611.1 11121.7 -7.41276 
114 1 68.1901 1.72344 7.41025 5.99066 -738.135 -4472.3 5665.21 147242 20729.4 13119.7 -7.4138 
115 1 69.6097 1.71413 7.40854 5.99212 1496.89 -6195.98 -5506.86 128667 -16902.1 13019.6 -7.413 
116 1 70.3382 2.93395 7.40811 5.99263 4808.49 -10138.4 9486.35 137741 20684.1 15163.9 -7.41401 
117 1 71.758 2.92369 7.40606 5.99441 8731.09 -12413.1 -9150.78 117267 -14711.8 13616.3 -7.41269 
118 1 72.4504 1.68459 7.40482 5.99647 962.71 -6356.63 5062.5 131492 19056.3 15887.1 -7.41362 
119 1 73.8701 1.67338 7.40254 5.99726 3147.94 -8098.45 -4841.62 109130 -14799.5 15386.1 -7.41289 
120 1 74.599 2.89277 7.40182 5.99893 6869.26 -12585.8 8412.68 120469 18820.2 17724.3 -7.41377 
211 1 67.5322 5.42069 7.4121 5.99092 16999.3 -17594.3 -18437.6 128669 -14122.5 10057.5 -7.41223 
212 1 68.2256 4.18219 7.41109 5.98972 7808.65 -12661.5 14127.6 142186 21951.3 14156.1 -7.41442 
213 1 69.6453 4.17274 7.40925 5.99246 13296.9 -15710.6 -13718.9 123815 -14481.5 11827.4 -7.41247 
214 1 70.374 5.39242 7.4092 5.9922 14507.8 -19156.9 17477.1 131045 21608.4 16306.7 -7.41461 
215 1 71.7938 5.38196 7.40703 5.99484 21614.4 -22785.6 -16848.4 110783 -12097.3 12230.5 -7.41221 
216 1 72.4868 4.1432 7.40569 5.99512 11182.2 -16346.6 12835 126597 20403.2 17171.2 -7.41418 
217 1 73.9066 4.13187 7.40329 5.99683 16617.2 -19494.2 -12281.5 104444 -12244.4 13888.3 -7.41241 
218 1 74.6358 5.35106 7.40296 5.99816 17947.7 -23173.6 15575.7 113993 19884.5 19086 -7.4143 
309 1 67.5665 7.87872 7.41339 5.99273 27965 -25858.5 -26342.8 118646 -11498.2 8928.27 -7.41177 
310 1 68.2606 6.64056 7.41236 5.99023 16781.3 -20755.5 22232.8 133771 22448.1 15157.1 -7.41503 
311 1 69.6804 6.63086 7.4104 5.99377 25352.1 -24957 -21569.3 115535 -11845.9 10565.8 -7.41199 
312 1 70.4091 7.85045 7.41067 5.99317 24317.2 -28322.8 24988.9 121259 21767.2 17402.6 -7.41519 
313 1 71.829 7.83971 7.4084 5.99644 34363.2 -33142.4 -24066.1 101072 -9340.89 10762.2 -7.41178 
314 1 72.5227 6.60134 7.40701 5.99522 21765.5 -26235.8 20225.1 118445 21013.2 18401.8 -7.41475 
315 1 73.9426 6.58978 7.40452 5.99765 30291.7 -30634.8 -19337 96469.4 -9466.17 12301.6 -7.41199 
316 1 74.6719 7.80885 7.40452 5.99877 29091.3 -33955.1 22230.5 104589 20175.6 20377.1 -7.41483 
408 1 68.2949 9.09855 7.41392 5.99202 25746 -29263.1 29767.2 122426 22166.5 16117.6 -7.41563 
409 1 69.7148 9.0885 7.41186 5.99593 37153.1 -34450.3 -28849.5 104238 -9140.3 9227.56 -7.41158 
412 1 72.5579 9.05901 7.40866 5.99662 32271.1 -36534.7 27009.2 107422 20835.9 19569.1 -7.41529 
413 1 73.9779 9.04712 7.4061 5.99959 43558.5 -42059 -25790 85637.1 -6615.36 10621.8 -7.41162 
37 1 75.9816 0.421689 7.39873 6.00102 -3294.55 -2878.37 -909.829 99551 -14733.5 17092.9 -7.41306 
38 1 78.8217 0.387711 7.39318 6.00888 -3351.14 -2760.45 714.696 103521 14515.3 17832.7 -7.41299 
39 1 80.2414 0.373162 7.39011 6.00788 -2940.7 -3607.78 -649.187 77569.1 -12011 18403.4 -7.41283 
40 1 83.0812 0.335883 7.38347 6.01719 -3137.44 -3463.86 481.589 82153.8 11536.7 18403.4 -7.41269 
41 1 84.5009 0.318918 7.37992 6.01552 -2844.98 -4181.03 -407.194 55851.8 -9024.64 18690.6 -7.41254 
121 1 76.0188 2.88045 7.39919 5.9997 10624.7 -15095.2 -7979.66 96722.4 -12280.3 15500.1 -7.41259 
122 1 76.7107 1.64097 7.39764 6.00355 1985.89 -8016.22 4330.27 112751 16855.3 17947.5 -7.41337 
123 1 78.1304 1.62757 7.39478 6.00339 4091.32 -9704.09 -4061.68 87702.7 -12201.7 17022.3 -7.41273 
124 1 78.8598 2.84648 7.39375 6.0064 8079.89 -14469.1 7083.07 100726 16464.9 19433 -7.41345 
125 1 80.2796 2.83187 7.39057 6.00626 11726.5 -16962.3 -6574.22 74982.7 -9386.77 16584.6 -7.41244 
126 1 80.9709 1.59196 7.3887 6.01155 2573.98 -9097.37 3486.17 92020 14180.9 19086 -7.41305 
127 1 82.3906 1.57619 7.38532 6.01061 4544.01 -10760.2 -3184.13 65793.6 -9225.43 17753.4 -7.41251 
128 1 83.1206 2.79461 7.38403 6.01465 8492.32 -15398.7 5554.2 79590.9 13737.5 20081.6 -7.41306 
129 1 84.5403 2.77759 7.38041 6.01378 11910.7 -17978.1 -4994.16 53515.2 -6187.05 16742 -7.41224 
130 1 85.2309 1.53724 7.37828 6.01999 2550.54 -9668.95 2588.08 70478.6 11205.4 19137.6 -7.41268 
219 1 76.0556 5.33857 7.40023 5.99975 24888.7 -27095.9 -14767.9 90539 -9514.46 13811.2 -7.41217 
220 1 76.7481 4.09948 7.39852 6.00191 13365.6 -19257.1 11154.2 108091 18368.8 19433.3 -7.41387 
221 1 78.168 4.08597 7.39557 6.00261 18683.4 -22521.6 -10473.8 83281.2 -9486.78 15253.2 -7.41232 
222 1 78.8977 5.30465 7.39496 6.0054 19940.9 -26057.9 13162 94569.2 17719.8 20945.7 -7.41391 
223 1 80.3175 5.28989 7.39172 6.00604 26697.8 -30087.7 -12208.9 69174.2 -6446.04 14640.9 -7.41209 
224 1 81.0095 4.0504 7.38963 6.00975 14383.8 -20995.4 9114.79 87656.3 15915.3 20689.3 -7.41347 
225 1 82.4293 4.03453 7.38618 6.00961 19493.4 -24311.9 -8342.83 61695.8 -6320.84 15782.4 -7.41219 
226 1 83.1596 5.25272 7.38536 6.01358 20469.3 -27193.2 10334.7 73782.2 15250.9 21633.1 -7.41344 
227 1 84.5794 5.23556 7.38173 6.01342 26864.8 -31456 -9291.94 48126.7 -3041.28 14628.3 -7.41198 
228 1 85.2707 3.99564 7.37929 6.01823 14079.3 -21373.4 6843.5 66416.6 13235.7 20730.7 -7.41301 
317 1 76.0918 7.79609 7.40173 6.00095 38948 -39058 -21050.4 81254.2 -6602.83 12021.3 -7.4118 
318 1 76.7851 6.55744 7.39994 6.00172 25040.5 -30357.2 17575.2 100263 19139.9 20841 -7.41436 
319 1 78.205 6.54372 7.39692 6.00312 33358.4 -35052.6 -16483.9 75737.1 -6543.94 13373 -7.41196 
320 1 78.9349 7.76227 7.39667 6.0058 31770.7 -37749.5 18712.8 85615.2 18202.3 22356 -7.41436 
321 1 80.3548 7.74725 7.39341 6.00697 41343.2 -43088.7 -17322.2 60463.3 -3362.06 12575.3 -7.4118 
322 1 81.0476 6.50824 7.39119 6.00941 26366.4 -32704.5 14329 80229.1 16910.5 22179.8 -7.41389 
323 1 82.4675 6.49218 7.38773 6.0099 34396.6 -37570.3 -13092.3 54629.1 -3192.89 13671.9 -7.41191 
324 1 83.1979 7.71024 7.38733 6.01391 32258.7 -39019 14583.4 65298.8 16000.3 23040.3 -7.4138 
325 1 84.6179 7.69287 7.38374 6.01423 41308.9 -44694.7 -13070.9 40007.6 232.205 12367.7 -7.41179 
326 1 85.31 6.45344 7.38109 6.01791 25712.3 -32811.2 10688.5 59409.1 14535.8 22164.2 -7.41334 
416 1 76.8214 9.01486 7.40173 6.00283 36522.8 -41886.8 23361.7 89702.4 19122.5 22154.9 -7.41483 
417 1 78.2414 9.00083 7.3987 6.00474 47493 -47793.2 -21867.7 65511.2 -3530.52 11383.6 -7.41166 
420 1 81.0849 8.96551 7.39323 6.01035 38114.8 -44751.5 18898 70227 17125.3 23537.8 -7.41428 
421 1 82.5049 8.94918 7.38981 6.01131 48649.8 -50892.9 -17210.7 45074.5 -5.47909 11435.8 -7.4117 
424 1 85.3484 8.91067 7.38352 6.01887 36945.7 -44420 13900.3 49970.2 15067.4 23419.1 -7.41365 
42 1 87.3406 0.27828 7.3725 6.02563 -3319.12 -4028.34 298.392 60514.1 8345.38 17870.6 -7.41234 
43 1 88.7603 0.258919 7.36869 6.02359 -3228.43 -4662.84 -194.417 35711.7 -6030.24 17769.1 -7.41221 
44 1 91.5999 0.215064 7.36107 6.03368 -3476.47 -4423.18 174.181 39688.9 5248.53 15994.9 -7.41199 
45 1 93.0196 0.193478 7.35738 6.0317 -3368.7 -4618.43 -41.6689 18519.7 -3340.26 15310.9 -7.41187 
131 1 86.6507 1.51904 7.37452 6.01847 4291.21 -11304.5 -2255.42 44800.3 -6075.38 17440.6 -7.41225 
132 1 87.3812 2.73699 7.37309 6.02324 7639.14 -15415.4 3950.36 58194.5 10880.8 19487.5 -7.41262 
133 1 88.8009 2.71758 7.36924 6.02186 10685.9 -18073.3 -3362.19 33646.8 -2911.45 15834 -7.41201 
134 1 89.4909 1.47678 7.36695 6.02845 1579.23 -9718.42 1719.06 49213.9 8207.53 17909.9 -7.41228 
135 1 90.9106 1.45626 7.36311 6.02668 3159.87 -11108.1 -1364.33 26053.8 -3026.5 15861.1 -7.41195 
136 1 91.6415 2.67379 7.36175 6.03169 5921.5 -14154.6 2429.71 37639 8210.72 17386.4 -7.41217 
137 1 93.0613 2.65217 7.35806 6.0302 8711.96 -16471.8 -1866.26 16699.5 142.133 13585.2 -7.41176 
138 1 93.7506 1.41094 7.35578 6.03639 496.221 -8643.89 957.447 29479 5517.03 15073.2 -7.41188 
229 1 86.6906 3.97736 7.37552 6.01742 18803.2 -24885.8 -6021.85 41070.7 -2934.27 15380.5 -7.41202 
230 1 87.4213 5.1951 7.37464 6.02229 18847.6 -26524.6 7317.77 52765.5 12741.7 20925.6 -7.41291 