(written by TR)

14408	atoms
1	atom types
0	104.377237	xlo xhi
0	180.786677	ylo yhi
0	18.3999996	zlo zhi


Masses

1	12

Atoms

1 1 1 0 0.00000000 0.00000000 7.50000000 0 0 0
2 1 1 0 2.14434105 1.20457532 7.50000000 0 0 0
3 1 1 0 3.56424239 1.18784511 7.50000000 0 0 0
4 1 1 0 6.40404557 1.15438468 7.50000000 0 0 0
5 1 1 0 7.82394691 1.13765446 7.50000000 0 0 0
6 1 1 0 10.66375009 1.10419403 7.50000000 0 0 0
7 1 1 0 12.08365143 1.08746382 7.50000000 0 0 0
8 1 1 0 14.92345461 1.05400339 7.50000000 0 0 0
9 1 1 0 16.34335595 1.03727317 7.50000000 0 0 0
10 1 1 0 19.18315913 1.00381274 7.50000000 0 0 0
11 1 1 0 20.60306047 0.98708253 7.50000000 0 0 0
12 1 1 0 23.44286365 0.95362210 7.50000000 0 0 0
13 1 1 0 24.86276499 0.93689189 7.50000000 0 0 0
14 1 1 0 27.70256817 0.90343145 7.50000000 0 0 0
15 1 1 0 29.12246951 0.88670124 7.50000000 0 0 0
16 1 1 0 31.96227269 0.85324081 7.50000000 0 0 0
17 1 1 0 33.38217403 0.83651060 7.50000000 0 0 0
18 1 1 0 36.22197722 0.80305016 7.50000000 0 0 0
19 1 1 0 37.64187856 0.78631995 7.50000000 0 0 0
20 1 1 0 40.48168174 0.75285952 7.50000000 0 0 0
21 1 1 0 41.90158308 0.73612931 7.50000000 0 0 0
22 1 1 0 44.74138626 0.70266887 7.50000000 0 0 0
23 1 1 0 46.16128760 0.68593866 7.50000000 0 0 0
24 1 1 0 49.00109078 0.65247823 7.50000000 0 0 0
25 1 1 0 50.42099212 0.63574802 7.50000000 0 0 0
26 1 1 0 53.26079530 0.60228758 7.50000000 0 0 0
27 1 1 0 54.68069664 0.58555737 7.50000000 0 0 0
28 1 1 0 57.52049982 0.55209694 7.50000000 0 0 0
29 1 1 0 58.94040116 0.53536673 7.50000000 0 0 0
30 1 1 0 61.78020434 0.50190629 7.50000000 0 0 0
31 1 1 0 63.20010568 0.48517608 7.50000000 0 0 0
32 1 1 0 66.03990886 0.45171565 7.50000000 0 0 0
33 1 1 0 67.45981020 0.43498544 7.50000000 0 0 0
34 1 1 0 70.29961338 0.40152501 7.50000000 0 0 0
35 1 1 0 71.71951472 0.38479479 7.50000000 0 0 0
36 1 1 0 74.55931790 0.35133436 7.50000000 0 0 0
37 1 1 0 75.97921924 0.33460415 7.50000000 0 0 0
38 1 1 0 78.81902242 0.30114372 7.50000000 0 0 0
39 1 1 0 80.23892376 0.28441350 7.50000000 0 0 0
40 1 1 0 83.07872694 0.25095307 7.50000000 0 0 0
41 1 1 0 84.49862828 0.23422286 7.50000000 0 0 0
42 1 1 0 87.33843146 0.20076243 7.50000000 0 0 0
43 1 1 0 88.75833280 0.18403221 7.50000000 0 0 0
44 1 1 0 91.59813598 0.15057178 7.50000000 0 0 0
45 1 1 0 93.01803732 0.13384157 7.50000000 0 0 0
46 1 1 0 95.85784050 0.10038114 7.50000000 0 0 0
47 1 1 0 97.27774184 0.08365092 7.50000000 0 0 0
48 1 1 0 100.11754502 0.05019049 7.50000000 0 0 0
49 1 1 0 101.53744636 0.03346028 7.50000000 0 0 0
50 1 1 0 0.02897758 2.45934129 7.50000000 0 0 0
51 1 1 0 1.44887902 2.44261108 7.50000000 0 0 0
52 1 1 0 2.17331863 3.66391661 7.50000000 0 0 0
53 1 1 0 3.59321997 3.64718640 7.50000000 0 0 0
54 1 1 0 4.28868210 2.40915064 7.50000000 0 0 0
55 1 1 0 5.70858354 2.39242043 7.50000000 0 0 0
56 1 1 0 6.43302315 3.61372597 7.50000000 0 0 0
57 1 1 0 7.85292449 3.59699575 7.50000000 0 0 0
58 1 1 0 8.54838662 2.35896000 7.50000000 0 0 0
59 1 1 0 9.96828806 2.34222979 7.50000000 0 0 0
60 1 1 0 10.69272767 3.56353532 7.50000000 0 0 0
61 1 1 0 12.11262901 3.54680511 7.50000000 0 0 0
62 1 1 0 12.80809114 2.30876936 7.50000000 0 0 0
63 1 1 0 14.22799258 2.29203914 7.50000000 0 0 0
64 1 1 0 14.95243219 3.51334468 7.50000000 0 0 0
65 1 1 0 16.37233353 3.49661446 7.50000000 0 0 0
66 1 1 0 17.06779566 2.25857871 7.50000000 0 0 0
67 1 1 0 18.48769710 2.24184850 7.50000000 0 0 0
68 1 1 0 19.21213671 3.46315403 7.50000000 0 0 0
69 1 1 0 20.63203805 3.44642382 7.50000000 0 0 0
70 1 1 0 21.32750018 2.20838807 7.50000000 0 0 0
71 1 1 0 22.74740162 2.19165785 7.50000000 0 0 0
72 1 1 0 23.47184123 3.41296339 7.50000000 0 0 0
73 1 1 0 24.89174257 3.39623317 7.50000000 0 0 0
74 1 1 0 25.58720470 2.15819742 7.50000000 0 0 0
75 1 1 0 27.00710614 2.14146721 7.50000000 0 0 0
76 1 1 0 27.73154575 3.36277274 7.50000000 0 0 0
77 1 1 0 29.15144709 3.34604253 7.50000000 0 0 0
78 1 1 0 29.84690922 2.10800678 7.50000000 0 0 0
79 1 1 0 31.26681066 2.09127656 7.50000000 0 0 0
80 1 1 0 31.99125027 3.31258210 7.50000000 0 0 0
81 1 1 0 33.41115161 3.29585189 7.50000000 0 0 0
82 1 1 0 34.10661374 2.05781613 7.50000000 0 0 0
83 1 1 0 35.52651518 2.04108592 7.50000000 0 0 0
84 1 1 0 36.25095479 3.26239145 7.50000000 0 0 0
85 1 1 0 37.67085613 3.24566124 7.50000000 0 0 0
86 1 1 0 38.36631826 2.00762549 7.50000000 0 0 0
87 1 1 0 39.78621971 1.99089527 7.50000000 0 0 0
88 1 1 0 40.51065931 3.21220081 7.50000000 0 0 0
89 1 1 0 41.93056066 3.19547060 7.50000000 0 0 0
90 1 1 0 42.62602279 1.95743484 7.50000000 0 0 0
91 1 1 0 44.04592423 1.94070463 7.50000000 0 0 0
92 1 1 0 44.77036384 3.16201016 7.50000000 0 0 0
93 1 1 0 46.19026518 3.14527995 7.50000000 0 0 0
94 1 1 0 46.88572731 1.90724420 7.50000000 0 0 0
95 1 1 0 48.30562875 1.89051398 7.50000000 0 0 0
96 1 1 0 49.03006836 3.11181952 7.50000000 0 0 0
97 1 1 0 50.44996970 3.09508931 7.50000000 0 0 0
98 1 1 0 51.14543183 1.85705355 7.50000000 0 0 0
99 1 1 0 52.56533327 1.84032334 7.50000000 0 0 0
100 1 1 0 53.28977288 3.06162887 7.50000000 0 0 0
101 1 1 0 54.70967422 3.04489866 7.50000000 0 0 0
102 1 1 0 55.40513635 1.80686291 7.50000000 0 0 0
103 1 1 0 56.82503779 1.79013269 7.50000000 0 0 0
104 1 1 0 57.54947740 3.01143823 7.50000000 0 0 0
105 1 1 0 58.96937874 2.99470802 7.50000000 0 0 0
106 1 1 0 59.66484087 1.75667226 7.50000000 0 0 0
107 1 1 0 61.08474231 1.73994205 7.50000000 0 0 0
108 1 1 0 61.80918192 2.96124758 7.50000000 0 0 0
109 1 1 0 63.22908326 2.94451737 7.50000000 0 0 0
110 1 1 0 63.92454539 1.70648162 7.50000000 0 0 0
111 1 1 0 65.34444683 1.68975140 7.50000000 0 0 0
112 1 1 0 66.06888644 2.91105694 7.50000000 0 0 0
113 1 1 0 67.48878778 2.89432673 7.50000000 0 0 0
114 1 1 0 68.18424991 1.65629097 7.50000000 0 0 0
115 1 1 0 69.60415135 1.63956076 7.50000000 0 0 0
116 1 1 0 70.32859096 2.86086629 7.50000000 0 0 0
117 1 1 0 71.74849230 2.84413608 7.50000000 0 0 0
118 1 1 0 72.44395443 1.60610033 7.50000000 0 0 0
119 1 1 0 73.86385587 1.58937011 7.50000000 0 0 0
120 1 1 0 74.58829548 2.81067565 7.50000000 0 0 0
121 1 1 0 76.00819682 2.79394544 7.50000000 0 0 0
122 1 1 0 76.70365895 1.55590968 7.50000000 0 0 0
123 1 1 0 78.12356039 1.53917947 7.50000000 0 0 0
124 1 1 0 78.84800000 2.76048501 7.50000000 0 0 0
125 1 1 0 80.26790134 2.74375479 7.50000000 0 0 0
126 1 1 0 80.96336347 1.50571904 7.50000000 0 0 0
127 1 1 0 82.38326491 1.48898882 7.50000000 0 0 0
128 1 1 0 83.10770452 2.71029436 7.50000000 0 0 0
129 1 1 0 84.52760586 2.69356415 7.50000000 0 0 0
130 1 1 0 85.22306799 1.45552839 7.50000000 0 0 0
131 1 1 0 86.64296943 1.43879818 7.50000000 0 0 0
132 1 1 0 87.36740904 2.66010372 7.50000000 0 0 0
133 1 1 0 88.78731038 2.64337350 7.50000000 0 0 0
134 1 1 0 89.48277251 1.40533775 7.50000000 0 0 0
135 1 1 0 90.90267395 1.38860753 7.50000000 0 0 0
136 1 1 0 91.62711356 2.60991307 7.50000000 0 0 0
137 1 1 0 93.04701490 2.59318286 7.50000000 0 0 0
138 1 1 0 93.74247703 1.35514710 7.50000000 0 0 0
139 1 1 0 95.16237847 1.33841689 7.50000000 0 0 0
140 1 1 0 95.88681808 2.55972243 7.50000000 0 0 0
141 1 1 0 97.30671942 2.54299221 7.50000000 0 0 0
142 1 1 0 98.00218155 1.30495646 7.50000000 0 0 0
143 1 1 0 99.42208299 1.28822624 7.50000000 0 0 0
144 1 1 0 100.14652260 2.50953178 7.50000000 0 0 0
145 1 1 0 101.56642394 2.49280157 7.50000000 0 0 0
146 1 1 0 102.26188607 1.25476581 7.50000000 0 0 0
147 1 1 0 103.68178751 1.23803560 7.50000000 0 0 0
148 1 1 0 0.05795516 4.91868258 7.50000000 0 0 0
149 1 1 0 1.47785660 4.90195236 7.50000000 0 0 0
150 1 1 0 2.20229621 6.12325790 7.50000000 0 0 0
151 1 1 0 3.62219755 6.10652769 7.50000000 0 0 0
152 1 1 0 4.31765968 4.86849193 7.50000000 0 0 0
153 1 1 0 5.73756112 4.85176172 7.50000000 0 0 0
154 1 1 0 6.46200073 6.07306726 7.50000000 0 0 0
155 1 1 0 7.88190207 6.05633704 7.50000000 0 0 0
156 1 1 0 8.57736420 4.81830129 7.50000000 0 0 0
157 1 1 0 9.99726564 4.80157108 7.50000000 0 0 0
158 1 1 0 10.72170525 6.02287661 7.50000000 0 0 0
159 1 1 0 12.14160659 6.00614640 7.50000000 0 0 0
160 1 1 0 12.83706872 4.76811064 7.50000000 0 0 0
161 1 1 0 14.25697016 4.75138043 7.50000000 0 0 0
162 1 1 0 14.98140977 5.97268597 7.50000000 0 0 0
163 1 1 0 16.40131111 5.95595575 7.50000000 0 0 0
164 1 1 0 17.09677324 4.71792000 7.50000000 0 0 0
165 1 1 0 18.51667468 4.70118979 7.50000000 0 0 0
166 1 1 0 19.24111429 5.92249532 7.50000000 0 0 0
167 1 1 0 20.66101563 5.90576511 7.50000000 0 0 0
168 1 1 0 21.35647776 4.66772935 7.50000000 0 0 0
169 1 1 0 22.77637920 4.65099914 7.50000000 0 0 0
170 1 1 0 23.50081881 5.87230468 7.50000000 0 0 0
171 1 1 0 24.92072015 5.85557446 7.50000000 0 0 0
172 1 1 0 25.61618228 4.61753871 7.50000000 0 0 0
173 1 1 0 27.03608372 4.60080850 7.50000000 0 0 0
174 1 1 0 27.76052333 5.82211403 7.50000000 0 0 0
175 1 1 0 29.18042467 5.80538382 7.50000000 0 0 0
176 1 1 0 29.87588680 4.56734807 7.50000000 0 0 0
177 1 1 0 31.29578824 4.55061785 7.50000000 0 0 0
178 1 1 0 32.02022785 5.77192339 7.50000000 0 0 0
179 1 1 0 33.44012919 5.75519317 7.50000000 0 0 0
180 1 1 0 34.13559132 4.51715742 7.50000000 0 0 0
181 1 1 0 35.55549276 4.50042721 7.50000000 0 0 0
182 1 1 0 36.27993237 5.72173274 7.50000000 0 0 0
183 1 1 0 37.69983371 5.70500253 7.50000000 0 0 0
184 1 1 0 38.39529584 4.46696678 7.50000000 0 0 0
185 1 1 0 39.81519728 4.45023656 7.50000000 0 0 0
186 1 1 0 40.53963689 5.67154210 7.50000000 0 0 0
187 1 1 0 41.95953823 5.65481188 7.50000000 0 0 0
188 1 1 0 42.65500036 4.41677613 7.50000000 0 0 0
189 1 1 0 44.07490181 4.40004592 7.50000000 0 0 0
190 1 1 0 44.79934141 5.62135145 7.50000000 0 0 0
191 1 1 0 46.21924275 5.60462124 7.50000000 0 0 0
192 1 1 0 46.91470489 4.36658549 7.50000000 0 0 0
193 1 1 0 48.33460633 4.34985527 7.50000000 0 0 0
194 1 1 0 49.05904594 5.57116081 7.50000000 0 0 0
195 1 1 0 50.47894728 5.55443060 7.50000000 0 0 0
196 1 1 0 51.17440941 4.31639484 7.50000000 0 0 0
197 1 1 0 52.59431085 4.29966463 7.50000000 0 0 0
198 1 1 0 53.31875046 5.52097016 7.50000000 0 0 0
199 1 1 0 54.73865180 5.50423995 7.50000000 0 0 0
200 1 1 0 55.43411393 4.26620420 7.50000000 0 0 0
201 1 1 0 56.85401537 4.24947398 7.50000000 0 0 0
202 1 1 0 57.57845498 5.47077952 7.50000000 0 0 0
203 1 1 0 58.99835632 5.45404931 7.50000000 0 0 0
204 1 1 0 59.69381845 4.21601355 7.50000000 0 0 0
205 1 1 0 61.11371989 4.19928334 7.50000000 0 0 0
206 1 1 0 61.83815950 5.42058887 7.50000000 0 0 0
207 1 1 0 63.25806084 5.40385866 7.50000000 0 0 0
208 1 1 0 63.95352297 4.16582291 7.50000000 0 0 0
209 1 1 0 65.37342441 4.14909269 7.50000000 0 0 0
210 1 1 0 66.09786402 5.37039823 7.50000000 0 0 0
211 1 1 0 67.51776536 5.35366802 7.50000000 0 0 0
212 1 1 0 68.21322749 4.11563226 7.50000000 0 0 0
213 1 1 0 69.63312893 4.09890205 7.50000000 0 0 0
214 1 1 0 70.35756854 5.32020758 7.50000000 0 0 0
215 1 1 0 71.77746988 5.30347737 7.50000000 0 0 0
216 1 1 0 72.47293201 4.06544162 7.50000000 0 0 0
217 1 1 0 73.89283345 4.04871140 7.50000000 0 0 0
218 1 1 0 74.61727306 5.27001694 7.50000000 0 0 0
219 1 1 0 76.03717440 5.25328673 7.50000000 0 0 0
220 1 1 0 76.73263653 4.01525097 7.50000000 0 0 0
221 1 1 0 78.15253797 3.99852076 7.50000000 0 0 0
222 1 1 0 78.87697758 5.21982629 7.50000000 0 0 0
223 1 1 0 80.29687892 5.20309608 7.50000000 0 0 0
224 1 1 0 80.99234105 3.96506033 7.50000000 0 0 0
225 1 1 0 82.41224249 3.94833011 7.50000000 0 0 0
226 1 1 0 83.13668210 5.16963565 7.50000000 0 0 0
227 1 1 0 84.55658344 5.15290544 7.50000000 0 0 0
228 1 1 0 85.25204557 3.91486968 7.50000000 0 0 0
229 1 1 0 86.67194701 3.89813947 7.50000000 0 0 0
230 1 1 0 87.39638662 5.11944500 7.50000000 0 0 0
231 1 1 0 88.81628796 5.10271479 7.50000000 0 0 0
232 1 1 0 89.51175009 3.86467904 7.50000000 0 0 0
233 1 1 0 90.93165153 3.84794882 7.50000000 0 0 0
234 1 1 0 91.65609114 5.06925436 7.50000000 0 0 0
235 1 1 0 93.07599248 5.05252415 7.50000000 0 0 0
236 1 1 0 93.77145461 3.81448839 7.50000000 0 0 0
237 1 1 0 95.19135605 3.79775818 7.50000000 0 0 0
238 1 1 0 95.91579566 5.01906372 7.50000000 0 0 0
239 1 1 0 97.33569700 5.00233350 7.50000000 0 0 0
240 1 1 0 98.03115913 3.76429775 7.50000000 0 0 0
241 1 1 0 99.45106057 3.74756753 7.50000000 0 0 0
242 1 1 0 100.17550018 4.96887307 7.50000000 0 0 0
243 1 1 0 101.59540152 4.95214286 7.50000000 0 0 0
244 1 1 0 102.29086365 3.71410710 7.50000000 0 0 0
245 1 1 0 103.71076509 3.69737689 7.50000000 0 0 0
246 1 1 0 0.08693274 7.37802387 7.50000000 0 0 0
247 1 1 0 1.50683418 7.36129365 7.50000000 0 0 0
248 1 1 0 2.23127379 8.58259919 7.50000000 0 0 0
249 1 1 0 3.65117513 8.56586898 7.50000000 0 0 0
250 1 1 0 4.34663726 7.32783322 7.50000000 0 0 0
251 1 1 0 5.76653870 7.31110301 7.50000000 0 0 0
252 1 1 0 6.49097831 8.53240855 7.50000000 0 0 0
253 1 1 0 7.91087965 8.51567833 7.50000000 0 0 0
254 1 1 0 8.60634178 7.27764258 7.50000000 0 0 0
255 1 1 0 10.02624322 7.26091236 7.50000000 0 0 0
256 1 1 0 10.75068283 8.48221790 7.50000000 0 0 0
257 1 1 0 12.17058417 8.46548769 7.50000000 0 0 0
258 1 1 0 12.86604630 7.22745193 7.50000000 0 0 0
259 1 1 0 14.28594774 7.21072172 7.50000000 0 0 0
260 1 1 0 15.01038735 8.43202726 7.50000000 0 0 0
261 1 1 0 16.43028869 8.41529704 7.50000000 0 0 0
262 1 1 0 17.12575082 7.17726129 7.50000000 0 0 0
263 1 1 0 18.54565226 7.16053107 7.50000000 0 0 0
264 1 1 0 19.27009187 8.38183661 7.50000000 0 0 0
265 1 1 0 20.68999321 8.36510640 7.50000000 0 0 0
266 1 1 0 21.38545534 7.12707064 7.50000000 0 0 0
267 1 1 0 22.80535678 7.11034043 7.50000000 0 0 0
268 1 1 0 23.52979639 8.33164597 7.50000000 0 0 0
269 1 1 0 24.94969773 8.31491575 7.50000000 0 0 0
270 1 1 0 25.64515986 7.07688000 7.50000000 0 0 0
271 1 1 0 27.06506130 7.06014979 7.50000000 0 0 0
272 1 1 0 27.78950091 8.28145532 7.50000000 0 0 0
273 1 1 0 29.20940225 8.26472511 7.50000000 0 0 0
274 1 1 0 29.90486438 7.02668935 7.50000000 0 0 0
275 1 1 0 31.32476582 7.00995914 7.50000000 0 0 0
276 1 1 0 32.04920543 8.23126468 7.50000000 0 0 0
277 1 1 0 33.46910677 8.21453446 7.50000000 0 0 0
278 1 1 0 34.16456890 6.97649871 7.50000000 0 0 0
279 1 1 0 35.58447034 6.95976850 7.50000000 0 0 0
280 1 1 0 36.30890995 8.18107403 7.50000000 0 0 0
281 1 1 0 37.72881129 8.16434382 7.50000000 0 0 0
282 1 1 0 38.42427342 6.92630807 7.50000000 0 0 0
283 1 1 0 39.84417486 6.90957785 7.50000000 0 0 0
284 1 1 0 40.56861447 8.13088339 7.50000000 0 0 0
285 1 1 0 41.98851581 8.11415317 7.50000000 0 0 0
286 1 1 0 42.68397794 6.87611742 7.50000000 0 0 0
287 1 1 0 44.10387938 6.85938721 7.50000000 0 0 0
288 1 1 0 44.82831899 8.08069274 7.50000000 0 0 0
289 1 1 0 46.24822033 8.06396253 7.50000000 0 0 0
290 1 1 0 46.94368246 6.82592678 7.50000000 0 0 0
291 1 1 0 48.36358390 6.80919656 7.50000000 0 0 0
292 1 1 0 49.08802351 8.03050210 7.50000000 0 0 0
293 1 1 0 50.50792485 8.01377188 7.50000000 0 0 0
294 1 1 0 51.20338699 6.77573613 7.50000000 0 0 0
295 1 1 0 52.62328843 6.75900592 7.50000000 0 0 0
296 1 1 0 53.34772804 7.98031145 7.50000000 0 0 0
297 1 1 0 54.76762938 7.96358124 7.50000000 0 0 0
298 1 1 0 55.46309151 6.72554549 7.50000000 0 0 0
299 1 1 0 56.88299295 6.70881527 7.50000000 0 0 0
300 1 1 0 57.60743256 7.93012081 7.50000000 0 0 0
301 1 1 0 59.02733390 7.91339060 7.50000000 0 0 0
302 1 1 0 59.72279603 6.67535484 7.50000000 0 0 0
303 1 1 0 61.14269747 6.65862463 7.50000000 0 0 0
304 1 1 0 61.86713708 7.87993016 7.50000000 0 0 0
305 1 1 0 63.28703842 7.86319995 7.50000000 0 0 0
306 1 1 0 63.98250055 6.62516420 7.50000000 0 0 0
307 1 1 0 65.40240199 6.60843398 7.50000000 0 0 0
308 1 1 0 66.12684160 7.82973952 7.50000000 0 0 0
309 1 1 0 67.54674294 7.81300931 7.50000000 0 0 0
310 1 1 0 68.24220507 6.57497355 7.50000000 0 0 0
311 1 1 0 69.66210651 6.55824334 7.50000000 0 0 0
312 1 1 0 70.38654612 7.77954887 7.50000000 0 0 0
313 1 1 0 71.80644746 7.76281866 7.50000000 0 0 0
314 1 1 0 72.50190959 6.52478291 7.50000000 0 0 0
315 1 1 0 73.92181103 6.50805269 7.50000000 0 0 0
316 1 1 0 74.64625064 7.72935823 7.50000000 0 0 0
317 1 1 0 76.06615198 7.71262802 7.50000000 0 0 0
318 1 1 0 76.76161411 6.47459226 7.50000000 0 0 0
319 1 1 0 78.18151555 6.45786205 7.50000000 0 0 0
320 1 1 0 78.90595516 7.67916758 7.50000000 0 0 0
321 1 1 0 80.32585650 7.66243737 7.50000000 0 0 0
322 1 1 0 81.02131863 6.42440162 7.50000000 0 0 0
323 1 1 0 82.44122007 6.40767140 7.50000000 0 0 0
324 1 1 0 83.16565968 7.62897694 7.50000000 0 0 0
325 1 1 0 84.58556102 7.61224673 7.50000000 0 0 0
326 1 1 0 85.28102315 6.37421097 7.50000000 0 0 0
327 1 1 0 86.70092459 6.35748076 7.50000000 0 0 0
328 1 1 0 87.42536420 7.57878629 7.50000000 0 0 0
329 1 1 0 88.84526554 7.56205608 7.50000000 0 0 0
330 1 1 0 89.54072767 6.32402033 7.50000000 0 0 0
331 1 1 0 90.96062911 6.30729011 7.50000000 0 0 0
332 1 1 0 91.68506872 7.52859565 7.50000000 0 0 0
333 1 1 0 93.10497006 7.51186544 7.50000000 0 0 0
334 1 1 0 93.80043219 6.27382968 7.50000000 0 0 0
335 1 1 0 95.22033363 6.25709947 7.50000000 0 0 0
336 1 1 0 95.94477324 7.47840500 7.50000000 0 0 0
337 1 1 0 97.36467458 7.46167479 7.50000000 0 0 0
338 1 1 0 98.06013671 6.22363904 7.50000000 0 0 0
339 1 1 0 99.48003815 6.20690882 7.50000000 0 0 0
340 1 1 0 100.20447776 7.42821436 7.50000000 0 0 0
341 1 1 0 101.62437910 7.41148415 7.50000000 0 0 0
342 1 1 0 102.31984123 6.17344839 7.50000000 0 0 0
343 1 1 0 103.73974267 6.15671818 7.50000000 0 0 0
344 1 1 0 0.11591032 9.83736516 7.50000000 0 0 0
345 1 1 0 1.53581176 9.82063494 7.50000000 0 0 0
346 1 1 0 2.26025137 11.04194048 7.50000000 0 0 0
347 1 1 0 3.68015271 11.02521027 7.50000000 0 0 0
348 1 1 0 4.37561484 9.78717451 7.50000000 0 0 0
349 1 1 0 5.79551628 9.77044430 7.50000000 0 0 0
350 1 1 0 6.51995589 10.99174984 7.50000000 0 0 0
351 1 1 0 7.93985723 10.97501962 7.50000000 0 0 0
352 1 1 0 8.63531936 9.73698387 7.50000000 0 0 0
353 1 1 0 10.05522080 9.72025365 7.50000000 0 0 0
354 1 1 0 10.77966041 10.94155919 7.50000000 0 0 0
355 1 1 0 12.19956175 10.92482898 7.50000000 0 0 0
356 1 1 0 12.89502388 9.68679322 7.50000000 0 0 0
357 1 1 0 14.31492532 9.67006301 7.50000000 0 0 0
358 1 1 0 15.03936493 10.89136855 7.50000000 0 0 0
359 1 1 0 16.45926627 10.87463833 7.50000000 0 0 0
360 1 1 0 17.15472840 9.63660258 7.50000000 0 0 0
361 1 1 0 18.57462984 9.61987236 7.50000000 0 0 0
362 1 1 0 19.29906945 10.84117790 7.50000000 0 0 0
363 1 1 0 20.71897079 10.82444769 7.50000000 0 0 0
364 1 1 0 21.41443292 9.58641193 7.50000000 0 0 0
365 1 1 0 22.83433436 9.56968172 7.50000000 0 0 0
366 1 1 0 23.55877397 10.79098726 7.50000000 0 0 0
367 1 1 0 24.97867531 10.77425704 7.50000000 0 0 0
368 1 1 0 25.67413744 9.53622129 7.50000000 0 0 0
369 1 1 0 27.09403888 9.51949107 7.50000000 0 0 0
370 1 1 0 27.81847849 10.74079661 7.50000000 0 0 0
371 1 1 0 29.23837983 10.72406640 7.50000000 0 0 0
372 1 1 0 29.93384196 9.48603064 7.50000000 0 0 0
373 1 1 0 31.35374340 9.46930043 7.50000000 0 0 0
374 1 1 0 32.07818301 10.69060597 7.50000000 0 0 0
375 1 1 0 33.49808435 10.67387575 7.50000000 0 0 0
376 1 1 0 34.19354648 9.43584000 7.50000000 0 0 0
377 1 1 0 35.61344792 9.41910979 7.50000000 0 0 0
378 1 1 0 36.33788753 10.64041532 7.50000000 0 0 0
379 1 1 0 37.75778887 10.62368511 7.50000000 0 0 0
380 1 1 0 38.45325100 9.38564935 7.50000000 0 0 0
381 1 1 0 39.87315244 9.36891914 7.50000000 0 0 0
382 1 1 0 40.59759205 10.59022468 7.50000000 0 0 0
383 1 1 0 42.01749339 10.57349446 7.50000000 0 0 0
384 1 1 0 42.71295552 9.33545871 7.50000000 0 0 0
385 1 1 0 44.13285696 9.31872850 7.50000000 0 0 0
386 1 1 0 44.85729657 10.54003403 7.50000000 0 0 0
387 1 1 0 46.27719791 10.52330382 7.50000000 0 0 0
388 1 1 0 46.97266004 9.28526806 7.50000000 0 0 0
389 1 1 0 48.39256148 9.26853785 7.50000000 0 0 0
390 1 1 0 49.11700109 10.48984339 7.50000000 0 0 0
391 1 1 0 50.53690243 10.47311317 7.50000000 0 0 0
392 1 1 0 51.23236456 9.23507742 7.50000000 0 0 0
393 1 1 0 52.65226600 9.21834721 7.50000000 0 0 0
394 1 1 0 53.37670561 10.43965274 7.50000000 0 0 0
395 1 1 0 54.79660695 10.42292253 7.50000000 0 0 0
396 1 1 0 55.49206909 9.18488678 7.50000000 0 0 0
397 1 1 0 56.91197053 9.16815656 7.50000000 0 0 0
398 1 1 0 57.63641014 10.38946210 7.50000000 0 0 0
399 1 1 0 59.05631148 10.37273188 7.50000000 0 0 0
400 1 1 0 59.75177361 9.13469613 7.50000000 0 0 0
401 1 1 0 61.17167505 9.11796592 7.50000000 0 0 0
402 1 1 0 61.89611466 10.33927145 7.50000000 0 0 0
403 1 1 0 63.31601600 10.32254124 7.50000000 0 0 0
404 1 1 0 64.01147813 9.08450549 7.50000000 0 0 0
405 1 1 0 65.43137957 9.06777527 7.50000000 0 0 0
406 1 1 0 66.15581918 10.28908081 7.50000000 0 0 0
407 1 1 0 67.57572052 10.27235059 7.50000000 0 0 0
408 1 1 0 68.27118265 9.03431484 7.50000000 0 0 0
409 1 1 0 69.69108409 9.01758463 7.50000000 0 0 0
410 1 1 0 70.41552370 10.23889016 7.50000000 0 0 0
411 1 1 0 71.83542504 10.22215995 7.50000000 0 0 0
412 1 1 0 72.53088717 8.98412420 7.50000000 0 0 0
413 1 1 0 73.95078861 8.96739398 7.50000000 0 0 0
414 1 1 0 74.67522822 10.18869952 7.50000000 0 0 0
415 1 1 0 76.09512956 10.17196931 7.50000000 0 0 0
416 1 1 0 76.79059169 8.93393355 7.50000000 0 0 0
417 1 1 0 78.21049313 8.91720334 7.50000000 0 0 0
418 1 1 0 78.93493274 10.13850887 7.50000000 0 0 0
419 1 1 0 80.35483408 10.12177866 7.50000000 0 0 0
420 1 1 0 81.05029621 8.88374291 7.50000000 0 0 0
421 1 1 0 82.47019765 8.86701269 7.50000000 0 0 0
422 1 1 0 83.19463726 10.08831823 7.50000000 0 0 0
423 1 1 0 84.61453860 10.07158802 7.50000000 0 0 0
424 1 1 0 85.31000073 8.83355226 7.50000000 0 0 0
425 1 1 0 86.72990217 8.81682205 7.50000000 0 0 0
426 1 1 0 87.45434178 10.03812758 7.50000000 0 0 0
427 1 1 0 88.87424312 10.02139737 7.50000000 0 0 0
428 1 1 0 89.56970525 8.78336162 7.50000000 0 0 0
429 1 1 0 90.98960669 8.76663140 7.50000000 0 0 0
430 1 1 0 91.71404630 9.98793694 7.50000000 0 0 0
431 1 1 0 93.13394764 9.97120673 7.50000000 0 0 0
432 1 1 0 93.82940977 8.73317097 7.50000000 0 0 0
433 1 1 0 95.24931121 8.71644076 7.50000000 0 0 0
434 1 1 0 95.97375082 9.93774629 7.50000000 0 0 0
435 1 1 0 97.39365216 9.92101608 7.50000000 0 0 0
436 1 1 0 98.08911429 8.68298033 7.50000000 0 0 0
437 1 1 0 99.50901573 8.66625011 7.50000000 0 0 0
438 1 1 0 100.23345534 9.88755565 7.50000000 0 0 0
439 1 1 0 101.65335668 9.87082544 7.50000000 0 0 0
440 1 1 0 102.34881881 8.63278968 7.50000000 0 0 0
441 1 1 0 103.76872025 8.61605947 7.50000000 0 0 0
442 1 1 0 0.14488790 12.29670645 7.50000000 0 0 0
443 1 1 0 1.56478934 12.27997623 7.50000000 0 0 0
444 1 1 0 2.28922895 13.50128177 7.50000000 0 0 0
445 1 1 0 3.70913029 13.48455156 7.50000000 0 0 0
446 1 1 0 4.40459242 12.24651580 7.50000000 0 0 0
447 1 1 0 5.82449386 12.22978559 7.50000000 0 0 0
448 1 1 0 6.54893347 13.45109112 7.50000000 0 0 0
449 1 1 0 7.96883481 13.43436091 7.50000000 0 0 0
450 1 1 0 8.66429694 12.19632516 7.50000000 0 0 0
451 1 1 0 10.08419838 12.17959494 7.50000000 0 0 0
452 1 1 0 10.80863799 13.40090048 7.50000000 0 0 0
453 1 1 0 12.22853933 13.38417027 7.50000000 0 0 0
454 1 1 0 12.92400146 12.14613451 7.50000000 0 0 0
455 1 1 0 14.34390290 12.12940430 7.50000000 0 0 0
456 1 1 0 15.06834251 13.35070984 7.50000000 0 0 0
457 1 1 0 16.48824385 13.33397962 7.50000000 0 0 0
458 1 1 0 17.18370598 12.09594387 7.50000000 0 0 0
459 1 1 0 18.60360742 12.07921365 7.50000000 0 0 0
460 1 1 0 19.32804703 13.30051919 7.50000000 0 0 0
461 1 1 0 20.74794837 13.28378898 7.50000000 0 0 0
462 1 1 0 21.44341050 12.04575322 7.50000000 0 0 0
463 1 1 0 22.86331194 12.02902301 7.50000000 0 0 0
464 1 1 0 23.58775155 13.25032855 7.50000000 0 0 0
465 1 1 0 25.00765289 13.23359833 7.50000000 0 0 0
466 1 1 0 25.70311502 11.99556258 7.50000000 0 0 0
467 1 1 0 27.12301646 11.97883236 7.50000000 0 0 0
468 1 1 0 27.84745607 13.20013790 7.50000000 0 0 0
469 1 1 0 29.26735741 13.18340769 7.50000000 0 0 0
470 1 1 0 29.96281954 11.94537193 7.50000000 0 0 0
471 1 1 0 31.38272098 11.92864172 7.50000000 0 0 0
472 1 1 0 32.10716059 13.14994726 7.50000000 0 0 0
473 1 1 0 33.52706193 13.13321704 7.50000000 0 0 0
474 1 1 0 34.22252406 11.89518129 7.50000000 0 0 0
475 1 1 0 35.64242550 11.87845107 7.50000000 0 0 0
476 1 1 0 36.36686511 13.09975661 7.50000000 0 0 0
477 1 1 0 37.78676645 13.08302640 7.50000000 0 0 0
478 1 1 0 38.48222858 11.84499064 7.50000000 0 0 0
479 1 1 0 39.90213002 11.82826043 7.50000000 0 0 0
480 1 1 0 40.62656963 13.04956597 7.50000000 0 0 0
481 1 1 0 42.04647097 13.03283575 7.50000000 0 0 0
482 1 1 0 42.74193310 11.79480000 7.50000000 0 0 0
483 1 1 0 44.16183454 11.77806978 7.50000000 0 0 0
484 1 1 0 44.88627415 12.99937532 7.50000000 0 0 0
485 1 1 0 46.30617549 12.98264511 7.50000000 0 0 0
486 1 1 0 47.00163762 11.74460935 7.50000000 0 0 0
487 1 1 0 48.42153906 11.72787914 7.50000000 0 0 0
488 1 1 0 49.14597867 12.94918468 7.50000000 0 0 0
489 1 1 0 50.56588001 12.93245446 7.50000000 0 0 0
490 1 1 0 51.26134214 11.69441871 7.50000000 0 0 0
491 1 1 0 52.68124358 11.67768850 7.50000000 0 0 0
492 1 1 0 53.40568319 12.89899403 7.50000000 0 0 0
493 1 1 0 54.82558453 12.88226382 7.50000000 0 0 0
494 1 1 0 55.52104666 11.64422806 7.50000000 0 0 0
495 1 1 0 56.94094810 11.62749785 7.50000000 0 0 0
496 1 1 0 57.66538771 12.84880339 7.50000000 0 0 0
497 1 1 0 59.08528905 12.83207317 7.50000000 0 0 0
498 1 1 0 59.78075119 11.59403742 7.50000000 0 0 0
499 1 1 0 61.20065263 11.57730721 7.50000000 0 0 0
500 1 1 0 61.92509223 12.79861274 7.50000000 0 0 0
501 1 1 0 63.34499358 12.78188253 7.50000000 0 0 0
502 1 1 0 64.04045571 11.54384678 7.50000000 0 0 0
503 1 1 0 65.46035715 11.52711656 7.50000000 0 0 0
504 1 1 0 66.18479676 12.74842210 7.50000000 0 0 0
505 1 1 0 67.60469810 12.73169188 7.50000000 0 0 0
506 1 1 0 68.30016023 11.49365613 7.50000000 0 0 0
507 1 1 0 69.72006167 11.47692592 7.50000000 0 0 0
508 1 1 0 70.44450128 12.69823145 7.50000000 0 0 0
509 1 1 0 71.86440262 12.68150124 7.50000000 0 0 0
510 1 1 0 72.55986475 11.44346549 7.50000000 0 0 0
511 1 1 0 73.97976619 11.42673527 7.50000000 0 0 0
512 1 1 0 74.70420580 12.64804081 7.50000000 0 0 0
513 1 1 0 76.12410714 12.63131059 7.50000000 0 0 0
514 1 1 0 76.81956927 11.39327484 7.50000000 0 0 0
515 1 1 0 78.23947071 11.37654463 7.50000000 0 0 0
516 1 1 0 78.96391032 12.59785016 7.50000000 0 0 0
517 1 1 0 80.38381166 12.58111995 7.50000000 0 0 0
518 1 1 0 81.07927379 11.34308420 7.50000000 0 0 0
519 1 1 0 82.49917523 11.32635398 7.50000000 0 0 0
520 1 1 0 83.22361484 12.54765952 7.50000000 0 0 0
521 1 1 0 84.64351618 12.53092931 7.50000000 0 0 0
522 1 1 0 85.33897831 11.29289355 7.50000000 0 0 0
523 1 1 0 86.75887975 11.27616334 7.50000000 0 0 0
524 1 1 0 87.48331936 12.49746887 7.50000000 0 0 0
525 1 1 0 88.90322070 12.48073866 7.50000000 0 0 0
526 1 1 0 89.59868283 11.24270291 7.50000000 0 0 0
527 1 1 0 91.01858427 11.22597269 7.50000000 0 0 0
528 1 1 0 91.74302388 12.44727823 7.50000000 0 0 0
529 1 1 0 93.16292522 12.43054802 7.50000000 0 0 0
530 1 1 0 93.85838735 11.19251226 7.50000000 0 0 0
531 1 1 0 95.27828879 11.17578205 7.50000000 0 0 0
532 1 1 0 96.00272840 12.39708758 7.50000000 0 0 0
533 1 1 0 97.42262974 12.38035737 7.50000000 0 0 0
534 1 1 0 98.11809187 11.14232162 7.50000000 0 0 0
535 1 1 0 99.53799331 11.12559140 7.50000000 0 0 0
536 1 1 0 100.26243292 12.34689694 7.50000000 0 0 0
537 1 1 0 101.68233426 12.33016673 7.50000000 0 0 0
538 1 1 0 102.37779639 11.09213097 7.50000000 0 0 0
539 1 1 0 103.79769783 11.07540076 7.50000000 0 0 0
540 1 1 0 0.17386548 14.75604774 7.50000000 0 0 0
541 1 1 0 1.59376692 14.73931752 7.50000000 0 0 0
542 1 1 0 2.31820653 15.96062306 7.50000000 0 0 0
543 1 1 0 3.73810787 15.94389285 7.50000000 0 0 0
544 1 1 0 4.43357000 14.70585709 7.50000000 0 0 0
545 1 1 0 5.85347144 14.68912688 7.50000000 0 0 0
546 1 1 0 6.57791105 15.91043241 7.50000000 0 0 0
547 1 1 0 7.99781239 15.89370220 7.50000000 0 0 0
548 1 1 0 8.69327452 14.65566645 7.50000000 0 0 0
549 1 1 0 10.11317596 14.63893623 7.50000000 0 0 0
550 1 1 0 10.83761557 15.86024177 7.50000000 0 0 0
551 1 1 0 12.25751691 15.84351156 7.50000000 0 0 0
552 1 1 0 12.95297904 14.60547580 7.50000000 0 0 0
553 1 1 0 14.37288048 14.58874559 7.50000000 0 0 0
554 1 1 0 15.09732009 15.81005112 7.50000000 0 0 0
555 1 1 0 16.51722143 15.79332091 7.50000000 0 0 0
556 1 1 0 17.21268356 14.55528516 7.50000000 0 0 0
557 1 1 0 18.63258500 14.53855494 7.50000000 0 0 0
558 1 1 0 19.35702461 15.75986048 7.50000000 0 0 0
559 1 1 0 20.77692595 15.74313027 7.50000000 0 0 0
560 1 1 0 21.47238808 14.50509451 7.50000000 0 0 0
561 1 1 0 22.89228952 14.48836430 7.50000000 0 0 0
562 1 1 0 23.61672913 15.70966983 7.50000000 0 0 0
563 1 1 0 25.03663047 15.69293962 7.50000000 0 0 0
564 1 1 0 25.73209260 14.45490387 7.50000000 0 0 0
565 1 1 0 27.15199404 14.43817365 7.50000000 0 0 0
566 1 1 0 27.87643365 15.65947919 7.50000000 0 0 0
567 1 1 0 29.29633499 15.64274898 7.50000000 0 0 0
568 1 1 0 29.99179712 14.40471322 7.50000000 0 0 0
569 1 1 0 31.41169856 14.38798301 7.50000000 0 0 0
570 1 1 0 32.13613817 15.60928855 7.50000000 0 0 0
571 1 1 0 33.55603951 15.59255833 7.50000000 0 0 0
572 1 1 0 34.25150164 14.35452258 7.50000000 0 0 0
573 1 1 0 35.67140308 14.33779236 7.50000000 0 0 0
574 1 1 0 36.39584269 15.55909790 7.50000000 0 0 0
575 1 1 0 37.81574403 15.54236769 7.50000000 0 0 0
576 1 1 0 38.51120616 14.30433193 7.50000000 0 0 0
577 1 1 0 39.93110760 14.28760172 7.50000000 0 0 0
578 1 1 0 40.65554721 15.50890726 7.50000000 0 0 0
579 1 1 0 42.07544855 15.49217704 7.50000000 0 0 0
580 1 1 0 42.77091068 14.25414129 7.50000000 0 0 0
581 1 1 0 44.19081212 14.23741107 7.50000000 0 0 0
582 1 1 0 44.91525173 15.45871661 7.50000000 0 0 0
583 1 1 0 46.33515307 15.44198640 7.50000000 0 0 0
584 1 1 0 47.03061520 14.20395064 7.50000000 0 0 0
585 1 1 0 48.45051664 14.18722043 7.50000000 0 0 0
586 1 1 0 49.17495625 15.40852597 7.50000000 0 0 0
587 1 1 0 50.59485759 15.39179575 7.50000000 0 0 0
588 1 1 0 51.29031972 14.15376000 7.50000000 0 0 0
589 1 1 0 52.71022116 14.13702978 7.50000000 0 0 0
590 1 1 0 53.43466077 15.35833532 7.50000000 0 0 0
591 1 1 0 54.85456211 15.34160511 7.50000000 0 0 0
592 1 1 0 55.55002424 14.10356935 7.50000000 0 0 0
593 1 1 0 56.96992568 14.08683914 7.50000000 0 0 0
594 1 1 0 57.69436529 15.30814468 7.50000000 0 0 0
595 1 1 0 59.11426663 15.29141446 7.50000000 0 0 0
596 1 1 0 59.80972876 14.05337871 7.50000000 0 0 0