ITEM: TIMESTEP
0
ITEM: NUMBER OF ATOMS
37448
ITEM: BOX BOUNDS pp pp pp
0.0000000000000000e+00 1.6827448400000000e+02
0.0000000000000000e+00 2.9145995699999997e+02
0.0000000000000000e+00 1.8399999600000001e+01
ITEM: ATOMS id type x y z c_csym c_2[1] c_2[2] c_2[3] c_2[4] c_2[5] c_2[6] c_3 
1 1 0 0 7.5 6.04901 10530.2 10439.5 -64697.6 22.7699 0.172697 0.161357 -7.41189 
2 1 2.13893 1.21416 7.5 6.04911 10215.5 11364.7 -63849.1 -964.38 6501.44 -11400.5 -7.41193 
3 1 3.55889 1.20378 7.5 6.04919 11355.1 9918.95 -62793.2 1890.98 6303.8 -18382.9 -7.41199 
4 1 6.39882 1.18302 7.5 6.04919 10127 10119.7 -58926 -2912.11 6377.97 -32058.8 -7.41219 
5 1 7.81878 1.17265 7.5 6.04919 11126 8468.63 -56659 4095.03 5143.49 -36562.3 -7.41231 
80 1 0.0179742 2.45945 7.5 6.04903 9085.69 11612.3 -63873.1 -28.0026 12972.3 10.8241 -7.41194 
81 1 1.43794 2.44907 7.5 6.0491 11786.5 9579.54 -63579.2 846.059 13076.2 -7476.66 -7.41194 
82 1 2.1569 3.6736 7.5 6.0491 8565.1 12477.5 -62214.5 -866.687 18885.9 -11218.7 -7.41202 
83 1 3.57687 3.66323 7.5 6.0492 12162.5 8596.86 -61209.2 2199.08 18965.1 -17854.1 -7.41207 
84 1 4.27786 2.42831 7.5 6.0492 9410.1 11411 -61315.3 -1836.37 12559.9 -22189.1 -7.41207 
85 1 5.69782 2.41794 7.5 6.0492 11711 8630.54 -59724.8 3251.9 12048.4 -27847 -7.41215 
86 1 6.41679 3.64247 7.5 6.0492 8498.27 11229.6 -57196.1 -2524.76 17776.8 -31653.4 -7.41228 
87 1 7.83675 3.63209 7.5 6.0492 11960.4 7213.37 -55488.5 4656.87 16801.2 -35349.8 -7.41237 
88 1 8.53775 2.39718 7.5 6.0492 9268.3 9682.07 -54152.3 -3628.25 11769.4 -40175.1 -7.41244 
238 1 0.0359484 4.91889 7.5 6.04903 7263.85 12763.6 -61499.4 -54.6139 24907 94.3273 -7.41206 
239 1 1.45591 4.90852 7.5 6.0491 12397.3 8284.24 -61067.5 970.199 25444.3 -7281.59 -7.41207 
240 1 2.17488 6.13305 7.5 6.0491 6588.43 13599.8 -59146 -741.712 29820.9 -10723.5 -7.41218 
241 1 3.59484 6.12267 7.5 6.0492 12590.8 7313.73 -58014.3 2446.09 30467.1 -16995 -7.41224 
242 1 4.29583 4.88776 7.5 6.0492 7607.98 12562.9 -58919 -1556.19 23938.4 -21603.6 -7.41219 
243 1 5.7158 4.87738 7.5 6.0492 12347.6 7387.24 -57522.8 3644.78 23841.1 -26679.2 -7.41226 
244 1 6.43477 6.10192 7.5 6.0492 6565.6 12371.4 -54137.7 -2124.22 27802.1 -30482.2 -7.41244 
245 1 7.85473 6.09154 7.5 6.0492 12443.2 6027.15 -52842.1 5125.09 27381.5 -33392 -7.41251 
246 1 8.55572 4.85663 7.5 6.0492 7516.52 10843.3 -51691.6 -3094.57 21838.4 -39210.6 -7.41256 
396 1 0.0539226 7.37834 7.5 6.04903 5148.4 13849.1 -57807.9 -80.8333 34990.9 235.917 -7.41226 
397 1 1.47388 7.36796 7.5 6.0491 12638.3 6968.9 -56977.3 1078.41 36244.7 -6996.56 -7.41228 
398 1 2.19285 8.5925 7.5 6.0491 4378.73 14655 -54920.6 -633.575 38578.7 -9959.23 -7.4124 
399 1 3.61281 8.58212 7.5 6.0492 12696.1 6020.09 -53356.5 2649.4 40071.1 -15833.9 -7.41248 
400 1 4.31381 7.34721 7.5 6.0492 5519.06 13664.6 -55255 -1302.21 33523.2 -20498.7 -7.41238 
401 1 5.73377 7.33683 7.5 6.0492 12631.5 6143.55 -53824.8 3979.54 34128.2 -24983.5 -7.41245 
402 1 6.45274 8.56136 7.5 6.0492 4414.99 13466.4 -50017.9 -1771.68 35771.8 -28637.3 -7.41265 
403 1 7.8727 8.55099 7.5 6.0492 12624.6 4858.08 -48850 5503.72 36192.5 -30764.9 -7.41271 
404 1 8.5737 7.31607 7.5 6.0492 5503.6 11984.4 -48110.1 -2608.18 30252.2 -37345 -7.41275 
6 1 10.6587 1.15189 7.5 6.04919 9913.29 8057.83 -50053.6 -4790.95 6314.72 -46589.8 -7.41265 
7 1 12.0787 1.14152 7.5 6.04919 10787.9 6415.56 -47228.7 6112.46 3205.09 -47361.1 -7.4128 
8 1 14.9186 1.12076 7.5 6.04919 9608.6 5805.74 -38914.1 -6534.4 6423.7 -52555.8 -7.41322 
9 1 16.3386 1.11038 7.5 6.04919 10383.2 4421.07 -36282.3 7849.91 670.693 -49307.5 -7.41336 
89 1 9.95771 2.3868 7.5 6.0492 11436.7 6842.55 -51997.7 5483.12 9787.1 -42397.5 -7.41255 
90 1 10.6767 3.61134 7.5 6.0492 8328.94 9153.26 -48134.1 -4189.7 16050.2 -46074.4 -7.41275 
91 1 12.0966 3.60096 7.5 6.0492 11667.7 5272.1 -46730.1 6833.8 13190.3 -45629.3 -7.41282 
92 1 12.7976 2.36605 7.5 6.0492 9023.79 7420.97 -43759.4 -5367.16 10812.5 -50612.5 -7.41297 
93 1 14.2176 2.35567 7.5 6.0492 11079.2 4793.68 -41925.4 7424.63 6556.82 -48629.1 -7.41307 
94 1 14.9366 3.58021 7.5 6.0492 8079.8 6861.7 -36709 -5831.41 14098.7 -52088.1 -7.41334 
95 1 16.3565 3.56983 7.5 6.0492 11323.8 3427.08 -36639.6 8611.61 8596.75 -47269.5 -7.41334 
96 1 17.0575 2.33492 7.5 6.0492 8711.45 5292.28 -32021.5 -6995.96 9974.53 -52138.7 -7.41358 
97 1 18.4775 2.32454 7.5 6.0492 10687.1 3144.55 -31363.2 8983.66 2729.02 -46209.5 -7.41361 
247 1 9.97568 4.84625 7.5 6.0492 12128.5 5709 -50436.4 6074.08 20260.1 -40440.1 -7.41263 
248 1 10.6947 6.07079 7.5 6.0492 6477.43 10320 -45080.1 -3586.06 24543.9 -44460.9 -7.41291 
249 1 12.1146 6.06041 7.5 6.0492 12239.1 4242.71 -44964.5 7435.53 22239.2 -42878.6 -7.41291 
250 1 12.8156 4.8255 7.5 6.0492 7346.04 8579.48 -41176.5 -4675.4 19044 -49485.5 -7.41311 
251 1 14.2356 4.81512 7.5 6.0492 11850 3816.28 -41258.6 8106.76 15193.8 -46159.5 -7.4131 
252 1 14.9545 6.03965 7.5 6.0492 6332.71 8034.17 -33619.8 -5128.37 20701.6 -50362.5 -7.4135 
253 1 16.3745 6.02928 7.5 6.0492 12008.9 2594.74 -35978 9236.75 15768.5 -44119.6 -7.41337 
254 1 17.0755 4.79436 7.5 6.0492 7117.95 6415.16 -29239.9 -6261.46 16146.6 -51109.7 -7.41372 
255 1 18.4955 4.78399 7.5 6.0492 11554.2 2354.82 -31741.1 9640 9319.96 -43545.6 -7.41359 
405 1 9.99366 7.3057 7.5 6.0492 12500.2 4612.41 -47544.3 6571.38 29374.4 -37622.2 -7.41278 
406 1 10.7126 8.53023 7.5 6.0492 4436.4 11474.9 -41141.2 -3052.41 31192.4 -41878 -7.41311 
407 1 12.1326 8.51985 7.5 6.0492 12543.3 3270.74 -42034.4 7911.92 29739.4 -39220.2 -7.41306 
408 1 12.8336 7.28494 7.5 6.0492 5446.56 9760.13 -37690.8 -4042.26 25821.2 -47219.8 -7.41329 
409 1 14.2535 7.27456 7.5 6.0492 12344.9 2921.13 -39479.8 8670.05 22684.1 -42655.9 -7.41319 
410 1 14.9725 8.4991 7.5 6.0492 4434.11 9236.32 -29873 -4504.23 25729.1 -47528.8 -7.41369 
411 1 16.3925 8.48872 7.5 6.0492 12468.2 1863.19 -34364.9 9715.88 21674.4 -39988.4 -7.41346 
412 1 17.0935 7.25381 7.5 6.0492 5350.37 7603.51 -25808.3 -5584.83 21100.1 -48882.8 -7.4139 
413 1 18.5134 7.24343 7.5 6.0492 12194.6 1690.25 -31242.8 10164.5 15014.2 -39853.1 -7.41362 
10 1 19.1785 1.08963 7.5 6.04919 9258.58 4018.7 -27462.1 -8067.43 6837.15 -49720 -7.41381 
11 1 20.5984 1.07925 7.5 6.04919 9966.48 3092.89 -25701.5 9231.42 -2226.16 -43174.9 -7.4139 
12 1 23.4384 1.0585 7.5 6.04919 8919.09 3157.44 -17439.6 -9306.79 7671.17 -39985.4 -7.41432 
13 1 24.8583 1.04812 7.5 6.04919 9599.95 2782.35 -17006.6 10199.6 -5238.58 -31629.5 -7.41434 
14 1 27.6982 1.02736 7.5 6.04919 8649.3 3346.24 -9980.88 -10176.9 8991.89 -26740.8 -7.4147 
98 1 19.1965 3.54907 7.5 6.0492 7784.96 4993.96 -24879.4 -7383.2 12386.6 -49464.4 -7.41395 
99 1 20.6164 3.5387 7.5 6.0492 10980.2 2275.53 -27008.5 9915.98 3585.77 -41053.7 -7.41383 
100 1 21.3174 2.30379 7.5 6.0492 8377.32 3872.76 -20853.9 -8430.48 9552.8 -45629 -7.41415 
101 1 22.7374 2.29341 7.5 6.0492 10319.2 2391.84 -22022.9 10100.9 -1283.33 -36936.6 -7.41409 
102 1 23.4563 3.51794 7.5 6.0492 7489.36 4004.52 -14399.9 -8745.07 11347.1 -40075.6 -7.41448 
103 1 24.8763 3.50756 7.5 6.0492 10694.7 2156.15 -19263.4 10715.1 -1280.66 -29621.2 -7.41422 
104 1 25.5773 2.27265 7.5 6.0492 8075.46 3465.27 -11747.9 -9577.03 9787.25 -33821.8 -7.41461 
105 1 26.9973 2.26228 7.5 6.0492 10036.4 2704.18 -15065.6 10750.2 -5097.66 -24109.3 -7.41443 
106 1 27.7162 3.48681 7.5 6.0492 7243.03 4017.95 -6429.08 -9806.13 11289.7 -27250.6 -7.41488 
256 1 19.2144 6.00852 7.5 6.0492 6148.39 6129.08 -21678.5 -6691.26 17048.7 -47981.1 -7.41411 
257 1 20.6344 5.99814 7.5 6.0492 11793.3 1659.12 -27543.8 10456.7 8843.76 -37910.7 -7.4138 
258 1 21.3354 4.76323 7.5 6.0492 6863.69 4910.53 -17784.4 -7764.36 13766.2 -44945.3 -7.41431 
259 1 22.7553 4.75285 7.5 6.0492 11291.8 1803.62 -23482.1 10627.7 3373.33 -34379.1 -7.41401 
260 1 23.4743 5.97739 7.5 6.0492 5951.28 5040.14 -10983.9 -8160.62 14312.9 -39137.9 -7.41466 
261 1 24.8943 5.96701 7.5 6.0492 11639.3 1752.66 -20958.7 11088.9 2318.85 -26831.5 -7.41413 
262 1 25.5953 4.7321 7.5 6.0492 6623.74 4361.02 -8300.7 -9064.58 12420.3 -33665.2 -7.41479 
263 1 27.0152 4.72172 7.5 6.0492 11116.6 2314.71 -17536.1 11079.6 -1989.06 -21892.6 -7.4143 
264 1 27.7342 5.94626 7.5 6.0492 5777.11 4890.18 -2686.12 -9392.45 13027.4 -27051.6 -7.41507 
414 1 19.2324 8.46797 7.5 6.0492 4402.89 7331.1 -18060.7 -6072.17 20429.7 -45422.9 -7.4143 
415 1 20.6524 8.45759 7.5 6.0492 12423 1178.56 -27337.2 10845.6 13145.1 -33878.7 -7.41381 
416 1 21.3534 7.22268 7.5 6.0492 5226.29 6049.11 -14312.3 -7144.16 17001.7 -43180.9 -7.41449 
417 1 22.7733 7.2123 7.5 6.0492 12085.5 1370.1 -24280.8 11022.5 7390.45 -30961.6 -7.41397 
418 1 23.4923 8.43683 7.5 6.0492 4347.01 6169.18 -7368.26 -7630.32 16279.3 -37311.9 -7.41484 
419 1 24.9122 8.42646 7.5 6.0492 12437.5 1503.58 -22086.3 11320.7 5260.68 -23379.7 -7.41407 
420 1 25.6132 7.19155 7.5 6.0492 5095.33 5376.74 -4657.75 -8576.8 14292.5 -32686 -7.41498 
421 1 27.0332 7.18117 7.5 6.0492 12057.6 2090.47 -19512 11288.2 715.959 -19101.9 -7.4142 
422 1 27.7522 8.4057 7.5 6.0492 4283.22 5865.61 1092.31 -9005.08 14004.3 -26257.2 -7.41527 
15 1 29.1182 1.01699 7.5 6.04919 9344.54 3478.21 -11022.7 10728.1 -8145.18 -18378 -7.41464 
16 1 31.9581 0.996231 7.5 6.04919 8503.88 4349.6 -5409.1 -10623.2 10793.1 -13849.4 -7.41492 
17 1 33.3781 0.985854 7.5 6.04919 9250.18 4828.61 -7758.14 10820.5 -10781.2 -7103.84 -7.41479 
18 1 36.218 0.965099 7.5 6.04919 8524.35 5675.39 -3263.15 -10628.8 12991.3 -4602.62 -7.41501 
107 1 29.1362 3.47643 7.5 6.0492 10523.7 3042.9 -14145.4 11024.8 -5540.95 -16624 -7.41447 
108 1 29.8372 2.24152 7.5 6.0492 7861.53 4013.49 -5461.44 -10345.9 10806.4 -20452.8 -7.41492 
109 1 31.2571 2.23114 7.5 6.0492 9893.67 3882.07 -10873.9 10944.4 -8422.81 -11532.4 -7.41463 
110 1 31.9761 3.45568 7.5 6.0492 7096.31 4814.35 -1323.88 -10467.2 12339.5 -14778.3 -7.41513 
111 1 33.3961 3.4453 7.5 6.0492 10511.8 4569.82 -11599.7 10897 -8903.18 -5676.63 -7.41459 
112 1 34.0971 2.21039 7.5 6.0492 7783.87 5143.64 -1928.37 -10678.4 12600 -9191.08 -7.41509 
113 1 35.517 2.20001 7.5 6.0492 9929.43 5442.1 -9049.83 10728.1 -11096.6 -2477.32 -7.41471 
114 1 36.236 3.42455 7.5 6.0492 7090.54 5921.37 1337.81 -10668.1 14419.5 -5879.03 -7.41525 
265 1 29.1542 5.93588 7.5 6.0492 11592.6 2830.92 -16854 11190.6 -3124.67 -14420.5 -7.41433 
266 1 29.8552 4.70097 7.5 6.0492 6443.78 4716.36 -1562.83 -10032.8 12420.8 -20905 -7.41513 
267 1 31.2751 4.69059 7.5 6.0492 11075.8 3673.31 -14201.2 11053.8 -6296.68 -9793.81 -7.41446 
268 1 31.9941 5.91512 7.5 6.0492 5666.88 5470.91 2843.15 -10247.6 13434.7 -15369 -7.41535 
269 1 33.414 5.90475 7.5 6.0492 11688.7 4514.46 -15100.5 10860 -7082.22 -4154.05 -7.4144 
270 1 34.115 4.66983 7.5 6.0492 6368.24 5622.21 2464.06 -10566.9 13821.8 -10222.8 -7.41532 
271 1 35.535 4.65946 7.5 6.0492 11200.8 5383.75 -13027.4 10642 -9327.44 -1248.66 -7.4145 
272 1 36.254 5.88399 7.5 6.0492 5660.05 6337.6 5991.51 -10626.3 15458 -7168.9 -7.41549 
423 1 29.1721 8.39533 7.5 6.0492 12542.1 2771.33 -19112.1 11235.2 -1108.64 -11862.1 -7.41421 
424 1 29.8731 7.16041 7.5 6.0492 4989.34 5541.2 2390.85 -9718.87 13445.9 -20874.6 -7.41533 
425 1 31.2931 7.15004 7.5 6.0492 12146.1 3618.25 -17132.7 11062.5 -4382.07 -7820.25 -7.4143 
426 1 32.0121 8.37457 7.5 6.0492 4240.26 6224.97 6952.73 -10023.9 13942.9 -15700.7 -7.41556 
427 1 33.432 8.36419 7.5 6.0492 12760.1 4590 -18202.3 10731.9 -5467.78 -2598.97 -7.41424 
428 1 34.133 7.12928 7.5 6.0492 4945.24 6207.97 6848.79 -10429.3 14567.3 -11125.5 -7.41555 
429 1 35.553 7.1189 7.5 6.0492 12372.7 5450.43 -16638.2 10481.7 -7635.68 -110.179 -7.41431 
430 1 36.2719 8.34344 7.5 6.0492 4253.34 6832.31 10570.3 -10551.8 16009.2 -8515.3 -7.41573 
19 1 37.638 0.954722 7.5 6.04919 9346.73 6276.63 -6508.44 10517.3 -13056.1 -519.259 -7.41483 
20 1 40.4779 0.933967 7.5 6.04919 8729.87 6745.88 -2521.86 -10219.3 15439.2 -943.706 -7.41503 
21 1 41.8979 0.92359 7.5 6.04919 9637.47 7250.03 -6131.54 9885.18 -14953.9 211.338 -7.41483 
22 1 44.7378 0.902835 7.5 6.04919 9113.62 7087.33 -1942.02 -9462 17953.5 -3143.04 -7.41504 
23 1 46.1578 0.892457 7.5 6.04919 10096.9 7336.16 -5399.54 9013.25 -16519.3 -4434.35 -7.41485 
115 1 37.656 3.41417 7.5 6.0492 10682.6 6167.29 -10886.5 10415 -11273.8 576.713 -7.4146 
116 1 38.357 2.17926 7.5 6.0492 7875.49 6308.36 -389.166 -10557.3 15024.2 -2701.63 -7.41515 
117 1 39.7769 2.16888 7.5 6.0492 10157.6 6788.76 -8616.94 10175.5 -13093.8 1098.93 -7.41471 
118 1 40.4959 3.39341 7.5 6.0492 7251.17 6789.85 2539.94 -10401.3 17278.6 -2441.97 -7.41529 
119 1 41.9158 3.38304 7.5 6.0492 11032.3 7253.94 -10858.3 9674.96 -12743.8 1026.39 -7.41458 
120 1 42.6168 2.14812 7.5 6.0492 8146.86 6972.72 318.809 -10018.3 17835.8 -2086.11 -7.41517 
121 1 44.0368 2.13775 7.5 6.0492 10563.1 7406.81 -8347.54 9375.17 -14506.3 -1111.24 -7.41471 
122 1 44.7558 3.36228 7.5 6.0492 7580.73 6966.72 3497.43 -9717.01 20554.1 -4710.38 -7.41533 
123 1 46.1757 3.3519 7.5 6.0492 11527.9 7413.61 -10309 8776.87 -13539 -3816.51 -7.4146 
273 1 37.6739 5.87361 7.5 6.0492 11943.2 6226.45 -14926.6 10221.6 -9465.11 1457.48 -7.41439 
274 1 38.3749 4.6387 7.5 6.0492 6432.36 6558.98 4499.05 -10612.3 16426.5 -4186.3 -7.41541 
275 1 39.7949 4.62833 7.5 6.0492 11498.1 6843.07 -13023 9953.71 -11113.3 1878.2 -7.41448 
276 1 40.5139 5.85286 7.5 6.0492 5786.69 6972.46 7696.43 -10491.8 18743.7 -4228.8 -7.41556 
277 1 41.9338 5.84248 7.5 6.0492 12345.5 7384.66 -15195.7 9399.05 -10471.7 1407.93 -7.41436 
278 1 42.6348 4.60757 7.5 6.0492 6654.62 7020.97 5663.57 -10180.4 19846.8 -3831.56 -7.41545 
279 1 44.0548 4.59719 7.5 6.0492 11946.2 7533.84 -12979.5 9098.48 -11894.5 -657.143 -7.41446 
280 1 44.7737 5.82173 7.5 6.0492 6060.06 6954.75 9125.18 -9878.56 22756.6 -6729.14 -7.41562 
281 1 46.1937 5.81135 7.5 6.0492 12857.6 7578.46 -14747.6 8501.56 -10504 -3734.17 -7.41436 
431 1 37.6919 8.33306 7.5 6.0492 13098 6380.55 -18559.1 9970.86 -7743.74 2093.43 -7.4142 
432 1 38.3929 7.09815 7.5 6.0492 4999.39 6891.96 9392.16 -10621.6 17403.9 -5845.84 -7.41566 
433 1 39.8129 7.08777 7.5 6.0492 12736.6 6982.17 -17032.8 9687.85 -9138.78 2312.54 -7.41427 
434 1 40.5318 8.31231 7.5 6.0492 4356.98 7209.28 12827.7 -10529.4 19748.3 -6314.11 -7.41583 
435 1 41.9518 8.30193 7.5 6.0492 13539.4 7567.78 -19074 9101.27 -8242.18 1356.83 -7.41415 
436 1 42.6528 7.06702 7.5 6.0492 5177.56 7122.33 11087 -10285.3 21427.8 -5960.38 -7.41573 
437 1 44.0727 7.05664 7.5 6.0492 13210.8 7703.99 -17148.3 8808.22 -9276.29 -697.036 -7.41425 
438 1 44.7917 8.28117 7.5 6.0492 4574.77 6971.97 14827 -9976.7 24463.5 -9182.98 -7.41593 
439 1 46.2117 8.2708 7.5 6.0492 14043.7 7756.01 -18656.4 8237.25 -7532.1 -4161.83 -7.41416 
24 1 48.9977 0.871702 7.5 6.04919 9641.89 6455.62 -405.957 -8452.21 20349.2 -9952.44 -7.41511 
25 1 50.4176 0.861325 7.5 6.04919 10675 6386.51 -3324 7993.02 -17832.4 -12677.5 -7.41495 
26 1 53.2576 0.84057 7.5 6.04919 10261 4883.08 2811.62 -7296.81 22471.9 -19119.4 -7.41527 
27 1 54.6775 0.830193 7.5 6.04919 11306.7 4525.52 623.938 6909.62 -18981.2 -22048.9 -7.41515 
124 1 46.8767 2.11699 7.5 6.0492 8582.84 6775.45 1408.22 -9138.95 20745 -6806.46 -7.41521 
125 1 48.2967 2.10661 7.5 6.0492 11103.4 7007.14 -7111.12 8421.64 -15501.4 -7906.06 -7.41476 
126 1 49.0157 3.33115 7.5 6.0492 8058.17 6225.52 5313.64 -8709.96 23851.2 -11438 -7.41541 
127 1 50.4356 3.32077 7.5 6.0492 12112.9 6500.45 -8291.62 7804.88 -13950.1 -12164 -7.41469 
128 1 51.1366 2.08586 7.5 6.0492 9144.47 5615.51 3826.2 -8027.88 23474 -15040.2 -7.41533 
129 1 52.5566 2.07548 7.5 6.0492 11716.3 5584.56 -4150.67 7396.16 -16271.3 -17076 -7.41491 
130 1 53.2755 3.30002 7.5 6.0492 8640.93 4599.82 8715.01 -7501.02 26820.7 -20399.3 -7.41558 
131 1 54.6955 3.28964 7.5 6.0492 12718.5 4647.35 -4327.98 6821.94 -14259.1 -21559.5 -7.4149 
132 1 55.3965 2.05473 7.5 6.0492 9776.18 3646.31 8049.57 -6797.91 25805 -24298.5 -7.41554 
282 1 46.8947 4.57644 7.5 6.0492 7031.8 6670.45 7137.08 -9340.33 23596.5 -8596.5 -7.41551 
283 1 48.3147 4.56606 7.5 6.0492 12496.5 7170.93 -11812.3 8170.11 -12037.2 -7626.03 -7.41451 
284 1 49.0336 5.7906 7.5 6.0492 6472.46 6078.28 11342.5 -8881.24 26903.2 -13416.6 -7.41573 
285 1 50.4536 5.78022 7.5 6.0492 13419.5 6672.26 -12702.8 7603.58 -10053.8 -12173.9 -7.41446 
286 1 51.1546 4.54531 7.5 6.0492 7538.3 5419.02 9847.59 -8207.52 27195.3 -16675.8 -7.41564 
287 1 52.5745 4.53493 7.5 6.0492 13083.5 5758.1 -8824.3 7234.84 -11936.6 -16828.4 -7.41466 
288 1 53.2935 5.75946 7.5 6.0492 6995.87 4387.01 15052.1 -7632.6 30652.8 -22108.6 -7.41592 
289 1 54.7135 5.74909 7.5 6.0492 13962.4 4812.11 -8656 6743.87 -9585.78 -21492.7 -7.41467 
290 1 55.4145 4.51417 7.5 6.0492 8130.17 3419.81 14269 -6912.76 30258.7 -25630.5 -7.41587 
440 1 46.9127 7.03588 7.5 6.0492 5490.01 6593.37 13058.1 -9483.22 25968.4 -10862 -7.41583 
441 1 48.3326 7.02551 7.5 6.0492 13743.8 7341.56 -15971.3 7934.39 -8602.95 -7873.73 -7.4143 
442 1 49.0516 8.25004 7.5 6.0492 4913.74 5941.99 17572.2 -8990.28 29380 -15854.6 -7.41606 
443 1 50.4716 8.23966 7.5 6.0492 14550.9 6827.4 -16519.3 7442.48 -6291.13 -12664.9 -7.41426 
444 1 51.1726 7.00475 7.5 6.0492 5925.5 5233.42 16190.5 -8336.75 30358.7 -18767 -7.41598 
445 1 52.5925 6.99437 7.5 6.0492 14270.7 5916.26 -12888.9 7114.48 -7703.12 -17041.8 -7.41445 
446 1 53.3115 8.21891 7.5 6.0492 5361.12 4175 21722.2 -7711.73 33804.4 -24205.7 -7.41627 
447 1 54.7315 8.20853 7.5 6.0492 14996 4947.05 -12350.4 6729.07 -5148.11 -21796.5 -7.41448 
448 1 55.4324 6.97362 7.5 6.0492 6454.19 3198.65 20933.9 -6992.48 34063.5 -27312.4 -7.41623 
28 1 57.5175 0.809438 7.5 6.04919 10906.8 2625.85 7910.11 -6092.56 24219.9 -28060.6 -7.41554 
29 1 58.9374 0.799061 7.5 6.04919 11924.9 2076.76 6435.16 5824.48 -20036.7 -30057.8 -7.41546 
30 1 61.7773 0.778306 7.5 6.04919 11518 63.2928 14570.8 -4913.59 25551.4 -34488.9 -7.41589 
31 1 63.1973 0.767928 7.5 6.04919 12473.5 -556.305 13617.6 4775.3 -21037.4 -34735.8 -7.41584 
133 1 56.8165 2.04435 7.5 6.0492 12332.6 3380.92 771.471 6361.08 -16984.8 -26068.3 -7.41516 
134 1 57.5354 3.26888 7.5 6.0492 9273.85 2341.03 13915.2 -6210.2 29217.9 -29054.6 -7.41585 
135 1 58.9554 3.25851 7.5 6.0492 13278.2 2189.55 1524.37 5858.89 -14678.4 -29540.9 -7.4152 
136 1 59.6564 2.0236 7.5 6.0492 10416.3 1194.97 14021.1 -5550.63 27611.4 -32096.5 -7.41586 
137 1 61.0763 2.01322 7.5 6.0492 12890.5 781.817 7370.36 5349.12 -17752.1 -32609.7 -7.41551 
138 1 61.7953 3.23775 7.5 6.0492 9898.39 -187.913 20617.3 -4938.93 30930.7 -35165.9 -7.41621 
139 1 63.2153 3.22737 7.5 6.0492 13741.7 -457.445 8736.84 4921 -15314.5 -34175.8 -7.41559 
140 1 63.9163 1.99246 7.5 6.0492 11008.4 -1353.72 21214.9 -4356.98 28863.1 -36491.3 -7.41624 
141 1 65.3362 1.98209 7.5 6.0492 13347.1 -1808.7 14950.3 4370.3 -18608.7 -35139.6 -7.41592 
291 1 56.8344 4.5038 7.5 6.0492 13637.8 3549.15 -3838.36 6325.3 -11927.8 -25749.8 -7.41492 
292 1 57.5534 5.72833 7.5 6.0492 7585.9 2125.58 20462.6 -6273.52 33629.6 -30343.4 -7.4162 
293 1 58.9734 5.71795 7.5 6.0492 14424.3 2347.24 -2727.48 5919.93 -9441.74 -29296.4 -7.41499 
294 1 59.6744 4.48304 7.5 6.0492 8753.74 989.41 20355 -5582.08 32556.5 -33043.6 -7.41619 
295 1 61.0943 4.47266 7.5 6.0492 14102.7 941.297 2812.15 5441.05 -12222.3 -32172.3 -7.41528 
296 1 61.8133 5.6972 7.5 6.0492 8190.24 -358.892 27287.2 -4927.93 35661.3 -35976 -7.41656 
297 1 63.2333 5.68682 7.5 6.0492 14764.2 -297.645 4513.67 5103.52 -9785.48 -33732.9 -7.41537 
298 1 63.9342 4.45191 7.5 6.0492 9354.11 -1506.01 27599.3 -4310.37 34030.5 -37043.1 -7.41658 
299 1 65.3542 4.44153 7.5 6.0492 14445.7 -1651.85 10403.7 4560.89 -12880.3 -34592.6 -7.41569 
449 1 56.8524 6.96324 7.5 6.0492 14725.5 3695.79 -7802.06 6350.03 -7062.94 -25758.7 -7.41472 
450 1 57.5714 8.18778 7.5 6.0492 5885.71 1911.98 27462.5 -6300.65 37248.9 -31885.6 -7.41657 
451 1 58.9913 8.1774 7.5 6.0492 15324.5 2478.42 -6344.38 6060.09 -4556.44 -29270.1 -7.4148 
452 1 59.6923 6.94249 7.5 6.0492 7032.28 794.368 27237.4 -5596.44 36763.4 -34188.6 -7.41656 
453 1 61.1123 6.93211 7.5 6.0492 15060.3 1090.96 -1100.43 5606.67 -6980.56 -31904.2 -7.41508 
454 1 61.8313 8.15664 7.5 6.0492 6443.9 -515.891 34505 -4897.99 39495.6 -36884.2 -7.41694 
455 1 63.2512 8.14627 7.5 6.0492 15507.8 -144.975 887.987 5371.47 -4721.41 -33356.2 -7.41519 
456 1 63.9522 6.91136 7.5 6.0492 7609.8 -1632.46 34606.5 -4264.01 38383 -37637.8 -7.41695 
457 1 65.3722 6.90098 7.5 6.0492 15255.4 -1481.14 6467.11 4828.51 -7529.19 -34074.9 -7.41549 
32 1 66.0372 0.747174 7.5 6.04919 12045.9 -2425.94 22075.4 -3801.69 26478.6 -36846.7 -7.41629 
33 1 67.4572 0.736796 7.5 6.04919 12917 -3004.43 21344.3 3772.88 -21985.3 -34951.4 -7.41626 
34 1 70.2971 0.716041 7.5 6.04919 12462.4 -4548.59 29486.1 -2770.57 27049.9 -34488.9 -7.41669 
35 1 71.7171 0.705664 7.5 6.04919 13242.1 -5011.82 28642.4 2812.25 -22852.7 -30481 -7.41665 
36 1 74.557 0.684909 7.5 6.04919 12758.3 -6139.68 35835.3 -1810.98 27329.1 -27645.7 -7.41703 
142 1 66.0552 3.20662 7.5 6.0492 10464.2 -2624.42 28126.1 -3752.94 31976.3 -37220.6 -7.41661 
143 1 67.4752 3.19624 7.5 6.0492 14084.7 -2918.19 16463.9 3992.58 -16161.3 -34367.1 -7.41601 
144 1 68.1762 1.96133 7.5 6.0492 11510.4 -3663.88 28789.4 -3255.22 29612 -36389.2 -7.41665 
145 1 69.5961 1.95095 7.5 6.0492 13684.5 -4067.96 22581.5 3414.43 -19520.2 -32996.1 -7.41633 
146 1 70.3151 3.17549 7.5 6.0492 10932.6 -4692.33 35522.6 -2683.65 32470.4 -34607.1 -7.41701 
147 1 71.735 3.16511 7.5 6.0492 14308.8 -4930.03 23732.2 3052.72 -17120.9 -29916.5 -7.4164 
148 1 72.436 1.9302 7.5 6.0492 11898.7 -5511.19 35775.7 -2253.02 29961.2 -31607.9 -7.41702 
149 1 73.856 1.91982 7.5 6.0492 13908.4 -5804.06 29289.9 2467.3 -20403.3 -26383.2 -7.41669 
150 1 74.575 3.14436 7.5 6.0492 11283.7 -6237.28 41851.1 -1728.27 32579.7 -27571.9 -7.41735 
300 1 66.0732 5.66607 7.5 6.0492 8758.54 -2723.3 34850.4 -3682.41 36777.1 -37581.5 -7.41696 
301 1 67.4931 5.65569 7.5 6.0492 14971.7 -2741.97 12209 4250.01 -10594.2 -33777.9 -7.41579 
302 1 68.1941 4.42078 7.5 6.0492 9884.9 -3749.56 35182.1 -3156.81 34773.5 -36594.4 -7.41698 
303 1 69.6141 4.4104 7.5 6.0492 14663.9 -3904.89 18001.9 3652.07 -13822.4 -32396.3 -7.4161 
304 1 70.3331 5.63493 7.5 6.0492 9247.72 -4713.58 42255.8 -2582.32 37163.2 -34613.1 -7.41736 
305 1 71.753 5.62456 7.5 6.0492 15066.8 -4728.05 19397.9 3322.76 -11693.6 -29283.7 -7.41618 
306 1 72.454 4.38964 7.5 6.0492 10312.9 -5533.32 42153.8 -2138.5 34978.1 -31553 -7.41736 
307 1 73.874 4.37927 7.5 6.0492 14779.9 -5627.8 24647.1 2691.42 -14871.6 -25814 -7.41646 
308 1 74.5929 5.6038 7.5 6.0492 9627.56 -6189.74 48568.3 -1631.2 37089.5 -27350.4 -7.4177 
458 1 66.0911 8.12551 7.5 6.0492 6987.41 -2790.6 42189.4 -3609.2 40596.4 -37903.8 -7.41735 
459 1 67.5111 8.11514 7.5 6.0492 15551.7 -2543.72 8484.34 4589.94 -5591.24 -33140.9 -7.4156 
460 1 68.2121 6.88022 7.5 6.0492 8138.75 -3788.1 42242.8 -3070.44 39062.5 -36721.7 -7.41736 
461 1 69.6321 6.86985 7.5 6.0492 15325.1 -3696.57 13972.9 3961.63 -8575.31 -31735.1 -7.41589 
462 1 70.351 8.09438 7.5 6.0492 7470.75 -4681.05 49643.8 -2489.13 40813.2 -34493 -7.41775 
463 1 71.771 8.084 7.5 6.0492 15494.9 -4469.83 15513.3 3662.53 -6907.56 -28549.9 -7.41598 
464 1 72.472 6.84909 7.5 6.0492 8579.56 -5486.02 49221.5 -2042.12 39086.5 -31357.1 -7.41773 
465 1 73.892 6.83871 7.5 6.0492 15311.1 -5374.87 20489.1 2972.13 -9842.47 -25158.1 -7.41625 
466 1 74.6109 8.06325 7.5 6.0492 7856.65 -6069.38 55960.3 -1546.61 40520.6 -26978 -7.41809 
37 1 75.977 0.674532 7.5 6.04919 13455.3 -6448.91 34574.4 1879.2 -23595.4 -21897.1 -7.41697 
38 1 78.8169 0.653777 7.5 6.04919 12939.5 -7140.4 40289.2 -903.84 27376.2 -17243.4 -7.41727 
39 1 80.2368 0.643399 7.5 6.04919 13570.9 -7288.08 38383.9 961.059 -24168 -10360.2 -7.41718 
40 1 83.0768 0.622645 7.5 6.04919 13016 -7556.19 42264.8 -25.6687 27235 -4674.6 -7.41738 
151 1 75.9949 3.13398 7.5 6.0492 14437.3 -6367.75 29617.4 2084.69 -18043.7 -21407.8 -7.41672 
152 1 76.6959 1.89907 7.5 6.0492 12164.5 -6792.1 41258.3 -1335.58 30029.5 -22756.1 -7.41732 
153 1 78.1159 1.88869 7.5 6.0492 14037.2 -6944.06 34219.8 1515.43 -21156.3 -16197.8 -7.41696 
154 1 78.8349 3.11322 7.5 6.0492 11509.5 -7207.98 46283.2 -864.135 32471.2 -17041.5 -7.41759 
155 1 80.2548 3.10285 7.5 6.0492 14500 -7204.39 33381.7 1086.95 -18775.8 -9997.71 -7.41692 
156 1 80.9558 1.86793 7.5 6.0492 12311.5 -7489.26 44517.3 -476.117 29918.6 -11020.2 -7.4175 
157 1 82.3758 1.85756 7.5 6.0492 14094.4 -7488.76 36752.2 556.408 -21688.6 -3806.32 -7.4171 
158 1 83.0947 3.08209 7.5 6.0492 11609.7 -7610.77 48237.4 -53.7689 32269 -4394.03 -7.41769 
309 1 76.0129 5.59342 7.5 6.0492 15090.1 -6137.32 25186 2302.8 -12825.3 -20852 -7.4165 
310 1 76.7139 4.35851 7.5 6.0492 10618.8 -6765.54 47612.5 -1243.59 34871.4 -22539.3 -7.41765 
311 1 78.1339 4.34814 7.5 6.0492 14830.2 -6754.54 29508.7 1670.51 -15813.7 -15745.3 -7.41672 
312 1 78.8528 5.57267 7.5 6.0492 9879.29 -7113.31 52974.9 -802.593 36827.7 -16716.6 -7.41794 
313 1 80.2728 5.56229 7.5 6.0492 15087.3 -6953.59 28869.8 1202.24 -13725.7 -9623.71 -7.4167 
314 1 80.9738 4.32738 7.5 6.0492 10793.8 -7434.23 50846.3 -435.701 34650.6 -10725.9 -7.41783 
315 1 82.3938 4.317 7.5 6.0492 14849.7 -7291.79 31992.5 604.963 -16460.4 -3535.81 -7.41686 
316 1 83.1127 5.54154 7.5 6.0492 9994.05 -7494.76 54904.3 -48.4799 36579 -4056.22 -7.41804 
467 1 76.0309 8.05287 7.5 6.0492 15397.1 -5820.45 21130 2569.83 -8298.52 -20208.6 -7.41629 
468 1 76.7319 6.81796 7.5 6.0492 8903.67 -6650.1 54662.9 -1168.09 38789.8 -22182 -7.41802 
469 1 78.1518 6.80758 7.5 6.0492 15267.5 -6463.17 25228.4 1859.89 -11002 -15242.3 -7.41651 
470 1 78.8708 8.03212 7.5 6.0492 8118.32 -6930.41 60349.2 -751.475 40093.2 -16275.4 -7.41832 
471 1 80.2908 8.02174 7.5 6.0492 15320 -6595.72 24683.5 1339.49 -9389.97 -9229.13 -7.41649 
472 1 80.9918 6.78683 7.5 6.0492 9093.45 -7278.43 57871.9 -404.929 38462.6 -10343.7 -7.41819 
473 1 82.4117 6.77645 7.5 6.0492 15242.8 -6979.91 27635.6 660.138 -11767.4 -3292.54 -7.41664 
474 1 83.1307 8.00098 7.5 6.0492 8239.51 -7284.45 62256 -47.2179 39806.2 -3676.27 -7.41843 
41 1 84.4967 0.612267 7.5 6.04919 13603.2 -7541.78 39593.4 47.1802 -24535.3 2606.42 -7.41725 
42 1 87.3367 0.591512 7.5 6.04919 12995 -7399.28 41501.2 844.227 26929.1 8422.48 -7.41734 
43 1 88.7566 0.581135 7.5 6.04919 13555.7 -7219.99 38057.7 -869.508 -24677 15319.4 -7.41716 
44 1 91.5965 0.56038 7.5 6.04919 12874.9 -6664.55 38087 1726.4 26464.7 20356.7 -7.41716 
45 1 93.0165 0.550003 7.5 6.04919 13420.6 -6310.12 33979.4 -1799.38 -24585.2 26118.5 -7.41694 
159 1 84.5147 3.07171 7.5 6.0492 14519.8 -7457.99 34562.9 70.1446 -19201.3 2806.79 -7.41699 
160 1 85.2157 1.8368 7.5 6.0492 12344.6 -7616.56 45124.1 356.516 29691.6 2065.45 -7.41753 
161 1 86.6357 1.82642 7.5 6.0492 14091.6 -7454.87 36576.5 -407.581 -21943.4 9170.83 -7.41709 
162 1 87.3546 3.05096 7.5 6.0492 11585.6 -7458.51 47453.4 742.395 32028.3 8755.88 -7.41765 
163 1 88.7746 3.04058 7.5 6.0492 14503.3 -7136.94 33021.4 -946.181 -19268.8 15345.7 -7.4169 
164 1 89.4756 1.80567 7.5 6.0492 12265.7 -7178.02 42991.7 1194 29364.8 14822.2 -7.41741 
165 1 90.8956 1.79529 7.5 6.0492 14025.9 -6840.19 33721.4 -1370.31 -21905.8 21047.1 -7.41693 
166 1 91.6145 3.01983 7.5 6.0492 11436.9 -6744.03 44021.1 1566.61 31730.1 20743.8 -7.41746 
167 1 93.0345 3.00945 7.5 6.0492 14436.6 -6228.15 28953.6 -1946.49 -18998 25982 -7.41668 
317 1 84.5327 5.53116 7.5 6.0492 15091.9 -7200.95 30013.1 55.8125 -14199.1 2937.14 -7.41676 
318 1 85.2337 4.29625 7.5 6.0492 10835.6 -7555.74 51431.1 330.585 34435.2 2385.18 -7.41786 
319 1 86.6536 4.28587 7.5 6.0492 14857.3 -7259.47 31802 -476.445 -16697.7 9230.23 -7.41685 
320 1 87.3726 5.5104 7.5 6.0492 9968.23 -7349.85 54100.9 687.6 36427.2 9070.12 -7.418 
321 1 88.7926 5.50003 7.5 6.0492 15112.8 -6890.6 28484.8 -1085.55 -14165.6 15227.8 -7.41668 
322 1 89.4936 4.26512 7.5 6.0492 10743.7 -7133.95 49281.5 1107.05 34243.4 15157.9 -7.41774 
323 1 90.9135 4.25474 7.5 6.0492 14848.3 -6653.8 28965.1 -1538.53 -16510.4 20907.5 -7.41669 
324 1 91.6325 5.47927 7.5 6.0492 9802.61 -6668.65 50655.1 1464.45 36325.4 21057.8 -7.41781 
325 1 93.0525 5.4689 7.5 6.0492 15130.4 -6003.38 24469.6 -2177.44 -13675.4 25666.6 -7.41646 
475 1 84.5507 7.99061 7.5 6.0492 15307.3 -6831.36 25775.6 34.0397 -9907.27 2994.38 -7.41655 
476 1 85.2517 6.75569 7.5 6.0492 9140.04 -7391.78 58434.4 305.328 38277.3 2714.37 -7.41822 
477 1 86.6716 6.74532 7.5 6.0492 15262.4 -6951.06 27436 -566.761 -11969.4 9174.75 -7.41663 
478 1 87.3906 7.96985 7.5 6.0492 8213.09 -7148.75 61433.1 636.357 39768.9 9342.9 -7.41838 
479 1 88.8105 7.95947 7.5 6.0492 15370.3 -6541.3 24286.9 -1261.25 -9744.19 14950.8 -7.41646 
480 1 89.5115 6.72456 7.5 6.0492 9041.3 -6994.38 56268.5 1030.18 38251.1 15431.1 -7.41811 
481 1 90.9315 6.71418 7.5 6.0492 15320 -6370.85 24655.3 -1754.04 -11595.1 20590 -7.41647 
482 1 91.6505 7.93872 7.5 6.0492 8040.27 -6513.09 57970.7 1371.47 39904.1 21269.7 -7.4182 
483 1 93.0704 7.92834 7.5 6.0492 15484 -5699.31 20384.5 -2468.8 -8984.16 25146.9 -7.41625 
46 1 95.8564 0.529248 7.5 6.04919 12647.6 -5335.13 32450.5 2639.48 25837.3 29566.1 -7.41685 
47 1 97.2764 0.51887 7.5 6.04919 13181.4 -4804.1 27888.1 -2755.99 -24257.5 33555.6 -7.41661 
48 1 100.116 0.498116 7.5 6.04919 12303.4 -3430.55 25311.7 3602.73 25038.4 34816.7 -7.41647 
49 1 101.536 0.487738 7.5 6.04919 12824.5 -2744.2 20580.6 -3757.55 -23689.2 36611.1 -7.41622 
168 1 93.7355 1.77454 7.5 6.0492 12071.5 -6158.82 38383.7 2066.07 28912.2 25609.3 -7.41717 
169 1 95.1554 1.76416 7.5 6.0492 13879.8 -5627.47 28553.7 -2334 -21598.7 30249.9 -7.41665 
170 1 95.8744 2.98869 7.5 6.0492 11162.3 -5449.96 38371.4 2454.32 31294.1 30031.3 -7.41716 
171 1 97.2944 2.97832 7.5 6.0492 14291.9 -4716.53 22874.9 -2925.4 -18465.1 33283.9 -7.41635 
172 1 97.9954 1.7434 7.5 6.0492 11757.2 -4552.64 31884.9 2999.29 28279.8 33009.3 -7.41682 
173 1 99.4153 1.73303 7.5 6.0492 13629.9 -3825.38 21740.7 -3306.96 -21067.6 35520.5 -7.41629 
174 1 100.134 2.95756 7.5 6.0492 10764.2 -3590.58 31224.2 3435.13 30605.9 35399 -7.41677 
175 1 101.554 2.94718 7.5 6.0492 14039 -2644.1 15566.7 -3893.38 -17774.3 36237.1 -7.41596 
176 1 102.255 1.71227 7.5 6.0492 11323.3 -2413.42 24329.2 4012.88 27403.8 36038.7 -7.41641 