ITEM: TIMESTEP
436
ITEM: NUMBER OF ATOMS
37448
ITEM: BOX BOUNDS pp pp pp
0.0000000000000000e+00 1.6827448400000000e+02
0.0000000000000000e+00 2.9145995699999997e+02
0.0000000000000000e+00 1.8399999600000001e+01
ITEM: ATOMS id type x y z c_csym c_2[1] c_2[2] c_2[3] c_2[4] c_2[5] c_2[6] c_3 
1 1 6.63031e-06 -4.41197e-06 7.435 6.04457 -22952.8 -22817.2 -6620.05 30.4546 -0.41986 -1.83684 -7.41274 
2 1 2.1572 1.17969 7.44179 6.03388 -33111.1 -13293.2 -4120.37 754.233 12561.8 -22862.2 -7.41302 
3 1 3.57634 1.14796 7.44969 6.0202 -32261.2 -16459.4 -3093.31 22923.4 10240 -28797.1 -7.41315 
4 1 6.41366 1.08696 7.46949 6.01533 -38815.3 -8301.63 3184.61 32904.8 10910 -42659.3 -7.4143 
5 1 7.83279 1.06001 7.47826 6.02214 -36935.6 -15270.3 -1743.15 66538.6 -2498.66 -25816.1 -7.41389 
80 1 0.0569538 2.45825 7.44179 6.02689 -29443.4 -17794.1 -4734.67 -8579.37 23667.6 1159.35 -7.41295 
81 1 1.47614 2.42528 7.44388 6.02652 -29076.3 -18102 -3963.43 -2339.51 26023.6 -12914.7 -7.41306 
82 1 2.2126 3.63883 7.45321 6.02035 -52921.5 4740.35 -1175.56 -14451.9 27710.3 -19694.8 -7.41338 
83 1 3.63167 3.60713 7.45947 6.01435 -50321.3 -533.463 -2569.1 6578.59 30143.5 -22497.6 -7.41342 
84 1 4.31295 2.36161 7.45803 6.02581 -52016.8 5759.1 1812.63 8902.67 18595.8 -38004.6 -7.41384 
85 1 5.73201 2.33211 7.46724 6.0168 -49253.3 -3708.4 -3433.8 40172.2 13047.4 -28724.9 -7.41342 
86 1 6.46688 3.54693 7.47533 6.0222 -66710.3 24138.3 8641.54 16901 16998 -39256.6 -7.41497 
87 1 7.8859 3.5195 7.48226 6.02283 -60546.9 4874.27 -8698.21 48665.6 8375.95 -17698.5 -7.41341 
88 1 8.56823 2.27469 7.4834 6.01713 -48878.1 6848.63 9469.84 41389.7 12725 -34070.6 -7.41535 
238 1 0.111243 4.91668 7.45799 6.0163 -37092.7 -14291.9 -3039.64 -29100.8 33757.5 2383.64 -7.41329 
239 1 1.53043 4.88396 7.4595 6.0201 -34287.1 -13175.2 1071.94 -23266.3 41954 -10938.4 -7.41383 
240 1 2.26472 6.09868 7.46944 6.01863 -67404.2 15326.1 -1345.92 -36475.9 28087.2 -13983.2 -7.41366 
241 1 3.68378 6.06718 7.47342 6.01075 -60631.3 10484.5 413.855 -18244.1 37021.4 -14529.1 -7.41413 
242 1 4.36608 4.82199 7.4695 6.01929 -75437 28946.5 4321.25 -12363.9 23355.7 -31030 -7.41428 
243 1 5.78506 4.79223 7.47605 6.01265 -68723.9 14492.9 -5626.42 16113.9 23867.7 -19023.4 -7.41355 
244 1 6.51778 6.0082 7.4836 6.01503 -84268.8 43593.6 10440.2 -9160.09 13672 -30182.3 -7.41537 
245 1 7.93677 5.98003 7.48809 6.01907 -72681.9 18542.1 -12420.7 18943.4 11985.7 -8227.21 -7.41336 
246 1 8.61949 4.73517 7.48787 6.01984 -67178.8 31267.1 15596.8 17728.8 11828.5 -29589.9 -7.41608 
396 1 0.161653 7.37515 7.47521 6.01698 -42626.9 -13141.2 -6047.32 -47932.3 27649.8 2465.85 -7.41343 
397 1 1.58088 7.34304 7.47611 6.01916 -34942.3 -9547.3 7418.08 -43000.1 42031.3 -8026.69 -7.4149 
398 1 2.31333 8.55876 7.48325 6.02669 -72404.5 17538.1 -6391.81 -50779.4 16424.3 -8586.3 -7.41365 
399 1 3.73243 8.52779 7.48523 6.01314 -60354.4 15185.1 5572.61 -36655.3 31074.4 -5475.26 -7.41503 
400 1 4.41607 7.28317 7.48159 6.01929 -87856.4 39109 2303.26 -35149.3 16246.3 -21311.7 -7.41443 
401 1 5.83505 7.25324 7.48535 6.01208 -75889.4 24410.8 -4420.98 -11544.6 23649 -8196.12 -7.41405 
402 1 6.56621 8.46996 7.49039 6.0148 -90165.5 48802 7778.63 -32081.6 3751.58 -20578.3 -7.41534 
403 1 7.98522 8.44112 7.49293 6.01916 -73748 24873 -11823.5 -9449.88 9459.12 507.48 -7.41369 
404 1 8.66873 7.19648 7.49263 6.01579 -76051.4 42557.5 17212 -10683.8 4911.71 -22998.3 -7.41636 
6 1 10.6706 1.00515 7.48995 6.01509 -32197.8 -10727.3 6078.87 54841 11558.5 -19933.7 -7.41523 
7 1 12.0898 0.980859 7.4926 6.02125 -29918.6 -16373.5 -4385.46 78176.1 -11982.1 -2831.24 -7.41434 
8 1 14.9286 0.927858 7.4946 6.01688 -23003.6 -13507.6 5445.73 57306.8 16641.9 -2948.51 -7.41534 
9 1 16.3478 0.90395 7.49509 6.01648 -20231.3 -15424.9 -6077.88 81067.2 -15105.8 -1900.92 -7.4145 
89 1 9.98734 2.2493 7.48854 6.02937 -44127.8 -8652.9 -8217.75 70045.3 -4220.15 -10797.2 -7.41373 
90 1 10.7219 3.46454 7.49178 6.01986 -46196.4 10903.6 16288.5 37970.1 12590.4 -20439.2 -7.41627 
91 1 12.141 3.43957 7.49366 6.03046 -37734 -11103.3 -16153.4 61303.3 -7022.47 175.391 -7.4134 
92 1 12.825 2.19575 7.49378 6.01784 -30240.7 -6279.98 12494.9 49755.4 15035.1 -9280.89 -7.41594 
93 1 14.2442 2.17144 7.49428 6.02301 -24453 -17852.6 -12287.3 71082.6 -11563.4 2097.06 -7.4139 
94 1 14.9795 3.3863 7.49564 6.01648 -22831.2 -11594.9 18577.7 42814.3 20797.2 -7877.99 -7.41648 
95 1 16.3987 3.36199 7.49618 6.02094 -13726.5 -23154.3 -20537.4 68422.8 -8149.07 -3465.44 -7.41361 
96 1 17.0835 2.11865 7.49593 6.01048 -19733.1 -16170.3 11403.1 60921.3 24450.5 -8836.09 -7.41588 
97 1 18.5027 2.0955 7.49779 6.01012 -13697.3 -19049.7 -14497.9 92475.4 -10910.4 -11897.9 -7.41417 
247 1 10.0386 4.70887 7.49152 6.02982 -56713.3 3448.86 -16445.8 44760.3 798.733 -4628.22 -7.41316 
248 1 10.7717 5.92476 7.49494 6.0239 -54203.8 24082.5 22554.8 10288 8687.78 -19091.2 -7.41694 
249 1 12.1909 5.89861 7.4964 6.03652 -39862.1 -6113.83 -24554.3 33427.9 -4035.21 1517.89 -7.41289 
250 1 12.8754 4.65487 7.4959 6.02335 -34270.1 3082.47 22845.2 27511.4 14723.3 -12353.2 -7.41693 
251 1 14.2946 4.6297 7.49642 6.03108 -22326.3 -19121.5 -24258.4 50395.6 -6728.42 860.853 -7.41313 
252 1 15.029 5.84486 7.49965 6.02166 -24481.9 -8751.8 28969.7 19169.6 20978.8 -15714.2 -7.41738 
253 1 16.4483 5.81982 7.50111 6.02969 -10098.1 -23972.7 -32194 47658.8 -1634.17 -8440.03 -7.4131 
254 1 17.1339 4.57683 7.49974 6.0109 -20154.6 -17855.9 24818.9 43090 29615.2 -17044.5 -7.41698 
255 1 18.5532 4.55336 7.50241 6.01555 -8625.08 -23771.7 -28755 77232.8 -1497.22 -15839.2 -7.41355 
405 1 10.0878 7.16901 7.49505 6.02773 -60168.5 11325.9 -20465.4 13505.5 1558.76 593.724 -7.41305 
406 1 10.8198 8.38536 7.49805 6.02165 -58424.9 29890.8 24325.6 -17609.7 2149.33 -19005.7 -7.41707 
407 1 12.239 8.35792 7.49978 6.03544 -39877 575.396 -28414.7 4798.71 -2254.98 608.857 -7.41284 
408 1 12.9242 7.11432 7.49948 6.02881 -38030.4 9146.63 29170.5 -229.549 10978.9 -17148.9 -7.41748 
409 1 14.3434 7.08802 7.50077 6.03816 -21180.4 -15303.1 -32357.7 24494.3 -2707.8 -3068.82 -7.41281 
410 1 15.0767 8.30368 7.50545 6.02838 -31730.9 -1488.74 35919.7 -6051.46 18052.6 -26350.6 -7.41791 
411 1 16.496 8.27789 7.50832 6.02821 -13808.6 -14231.1 -40207.9 25582.6 3861.73 -14895.8 -7.413 
412 1 17.1824 7.03515 7.50703 6.01689 -27122.9 -12757.8 36231.2 20016.1 29682.5 -28601.3 -7.4179 
413 1 18.6017 7.0113 7.51092 6.01969 -11417.9 -17231.6 -40555.7 57328.8 6061.49 -21482.2 -7.41328 
10 1 19.1871 0.852031 7.49898 6.00266 -20212.6 -13382.3 3259.55 86043 24280.7 -15316.7 -7.4154 
11 1 20.6063 0.830771 7.50285 5.99727 -17055 -11509.9 -6920.18 125086 -17009.2 -22977.6 -7.41476 
12 1 23.4457 0.783997 7.51452 5.97008 -23229.9 -7864.9 3510.18 159434 33021.5 -35722.9 -7.41589 
13 1 24.8649 0.768836 7.52126 5.96776 -20266.4 -4488.31 -6818.93 208647 -21841.4 -39303.5 -7.41509 
14 1 27.7045 0.73062 7.53449 5.94034 -27218.2 462.748 4630.49 249505 40164.6 -43641.2 -7.41638 
98 1 19.2384 3.31029 7.50166 5.99983 -22262.1 -17660.3 18411.5 74434.3 34960.6 -21719 -7.41653 
99 1 20.6576 3.28896 7.5062 6.00073 -13483.7 -17145.9 -22917.7 115114 -4535.06 -24527.8 -7.41404 
100 1 21.3422 2.04574 7.50668 5.98747 -24865.9 -12163.9 11122.6 114081 36094 -28647.4 -7.41616 
101 1 22.7614 2.02721 7.51287 5.98477 -19007.1 -9282.36 -15411.6 160417 -11578.4 -32931.6 -7.41454 
102 1 23.4967 3.24283 7.52044 5.9721 -38303.8 -1876.58 21516.3 147193 48181.4 -40110.9 -7.41716 
103 1 24.9158 3.22759 7.52806 5.97532 -30186.1 1477.03 -24729.9 197062 -5828.7 -38561.4 -7.41433 
104 1 25.6005 1.98475 7.52785 5.95668 -35634.7 2440.67 13540.2 200135 46172.2 -42962.1 -7.41683 
105 1 27.0196 1.97309 7.53484 5.95756 -30484.3 4362.64 -16268.5 249006 -15705.1 -40423.1 -7.41474 
106 1 27.7541 3.19006 7.54393 5.94473 -53541.7 20456.8 25072.4 233881 56879.3 -45081.5 -7.41793 
256 1 19.2878 5.76861 7.50946 6.00265 -29885.7 -14604 33374.7 54168.8 39346.4 -31850 -7.4177 
257 1 20.7071 5.74715 7.51498 6.00821 -16539.3 -12857.9 -37607.2 97141.4 5713.87 -28162.9 -7.41363 
258 1 21.3926 4.50433 7.51392 5.98765 -35262.2 -9203.51 28263.8 97074.3 45784.8 -35988.7 -7.41744 
259 1 22.8118 4.48576 7.52095 5.99255 -24483.9 -5237.12 -32069.4 144684 1666.68 -34212.9 -7.41398 
260 1 23.5453 5.70228 7.5316 5.97798 -57750.1 11547.3 41159.8 123740 53708.6 -46196.3 -7.41866 
261 1 24.9643 5.68695 7.53968 5.98832 -45260.5 16189 -43240.2 173927 5536.7 -38218.6 -7.41382 
262 1 25.6498 4.44436 7.53836 5.96082 -58505 18405.1 34085.6 178610 57404.4 -46325.6 -7.41839 
263 1 27.0688 4.43246 7.54595 5.9709 -48654.2 19234.7 -35759.9 227670 -1243.41 -39214.1 -7.41405 
264 1 27.8009 5.65072 7.55739 5.95529 -81392.7 44323.3 47837.2 202778 61905.6 -46654 -7.41972 
414 1 19.3345 8.22746 7.51963 6.0113 -45819.3 -1151.74 46702.2 31701.7 37079.6 -43689.7 -7.41875 
415 1 20.7538 8.20597 7.52582 6.0092 -29107.9 4057.62 -50911.9 76991 12170.9 -31119.8 -7.41344 
416 1 21.4402 6.96345 7.52503 5.99497 -52361.6 3398.18 45511.6 73907.9 46605.4 -45165.6 -7.41878 
417 1 22.8594 6.94488 7.53252 6.00136 -37606.7 10140.2 -48580.9 122646 10235.9 -35268.1 -7.41363 
418 1 23.5903 8.16279 7.54367 5.99088 -82266.7 33316.1 60378 97046.2 49285.5 -52425.6 -7.42013 
419 1 25.0093 8.14743 7.55158 6.0001 -66140.8 40734.9 -62202.1 147090 10730.1 -36279.8 -7.4134 
420 1 25.6957 6.90507 7.55137 5.97316 -84660.2 40722.8 55859.8 148383 56824.2 -49946.8 -7.42006 
421 1 27.1146 6.89292 7.55903 5.9881 -70713.6 42644.6 -56590.5 196960 6307.78 -37163.3 -7.41351 
422 1 27.8436 8.11282 7.57012 5.9731 -110469 71731.5 70900.3 167096 55417.8 -48166.1 -7.42143 
15 1 29.1237 0.7225 7.53998 5.94053 -25205.1 2461.86 -7046.49 294026 -26811.5 -39822.6 -7.41529 
16 1 31.9637 0.693039 7.54853 5.92135 -30642.9 6653.01 4721.03 322626 43918.2 -38724.3 -7.41654 
17 1 33.3828 0.690678 7.5514 5.922 -29492.6 6601.85 -7203.16 354128 -29466.3 -31511.6 -7.41537 
18 1 36.2234 0.668128 7.55542 5.90934 -32984.9 10002.2 4554.65 367013 45249.3 -29568.6 -7.4165 
107 1 29.1731 3.18164 7.55012 5.95312 -46638.8 18216.2 -26944.2 278936 -9526.57 -38007.9 -7.41436 
108 1 29.8586 1.93963 7.54736 5.93125 -43667 16331.8 15013.2 283640 52054.8 -42432.3 -7.41728 
109 1 31.2776 1.93446 7.55179 5.93632 -39736.7 13611.6 -17324.4 322491 -19067.3 -35125.6 -7.41478 
110 1 32.0112 3.15274 7.56081 5.92493 -61017.7 35003.7 26310.2 303840 60681.8 -38178.7 -7.4183 
111 1 33.4301 3.14991 7.564 5.93732 -55256.3 26399.3 -28118.5 336445 -11886 -29822.7 -7.41431 
112 1 34.1169 1.90893 7.55872 5.91513 -47202.8 23644.9 15121.6 341631 54218.2 -33769.4 -7.41739 
113 1 35.5359 1.90853 7.56067 5.9231 -44093.7 17400.5 -17409 367153 -20760.9 -25849.9 -7.41479 
114 1 36.2684 3.12783 7.56937 5.91359 -62120.2 40153.3 26045.7 346596 61666.4 -28214.1 -7.41834 
265 1 29.2197 5.64185 7.56387 5.9711 -70052.8 40370.6 -48395.7 247772 1266.15 -36262.9 -7.41369 
266 1 29.9059 4.39993 7.5606 5.9387 -73048.5 42305.1 37556 256186 63377.7 -42605.1 -7.41912 
267 1 31.3248 4.39423 7.56542 5.95373 -64484 34517.2 -38630.1 295593 -4605.82 -33589.3 -7.41395 
268 1 32.0556 5.61396 7.57636 5.93834 -90604.4 63938.8 50403.6 266253 65554.3 -37466.6 -7.42031 
269 1 33.4743 5.61037 7.57975 5.95768 -80395.7 50741.4 -50703.2 299553 -1831.69 -28547.4 -7.41355 
270 1 34.1618 4.36942 7.57403 5.92411 -76581.8 53368.6 38114.9 310354 65553.6 -32498.6 -7.41937 
271 1 35.5807 4.36832 7.57605 5.94167 -69107 39018.2 -39138.6 337188 -6531.17 -24758.9 -7.41389 
272 1 36.3104 5.58907 7.58658 5.92752 -89269.3 69073.9 49940.9 305845 67022.2 -26791 -7.42044 
423 1 29.2624 8.10349 7.57656 5.98955 -95034.5 69324.2 -70819.5 211451 4446.64 -33225.3 -7.41307 
424 1 29.9495 6.86172 7.57519 5.95514 -102604 70419.6 61823.7 217352 61851.3 -42841 -7.42102 
425 1 31.3683 6.85534 7.58019 5.97451 -89698.3 61431.5 -61622.3 256723 1458.64 -31598.2 -7.41328 
426 1 32.0959 8.07676 7.59069 5.95882 -119138 93036.7 75214.9 222891 58641.6 -37313.3 -7.42218 
427 1 33.5145 8.07232 7.59432 5.97592 -104711 80006.2 -74382.1 256429 -268.267 -26666 -7.41286 
428 1 34.203 6.83149 7.59057 5.94207 -104593 82449.1 63008.1 265971 64348.6 -31654.2 -7.42142 
429 1 35.6217 6.82945 7.59272 5.96338 -92868.3 65122.5 -62576 293711 -1319.01 -23767 -7.41318 
430 1 36.3484 8.05183 7.60303 5.94842 -114677 96544.6 74863.9 258467 60954.3 -26385.9 -7.42241 
19 1 37.6424 0.66964 7.55659 5.9121 -32354.6 8571.45 -6813.58 386060 -30654.3 -22317.2 -7.41541 
20 1 40.4833 0.651871 7.55823 5.90467 -34618.2 11544.4 4438.49 388095 45497.7 -21450.2 -7.41644 
21 1 41.9023 0.655753 7.55864 5.90818 -34017.9 9717.61 -6249.22 398755 -31364.6 -15165.2 -7.41546 
22 1 44.7432 0.641154 7.55928 5.90419 -35122 12744.7 4298.67 394865 45330.7 -15513 -7.41641 
23 1 46.1622 0.646413 7.55937 5.90765 -34592.7 10648.6 -5764.19 400335 -31912.9 -10187.6 -7.41554 
115 1 37.6873 3.12882 7.57046 5.9276 -57194.3 27794 -27677.4 367207 -13264.1 -20976.6 -7.41432 
116 1 38.3755 1.88878 7.56374 5.90724 -48093 25776.7 14777.7 372810 54563.7 -24590.2 -7.41734 
117 1 39.7945 1.89143 7.56434 5.91627 -45435.4 17962.2 -16686.8 387973 -21826 -17706.5 -7.41483 
118 1 40.5261 3.11149 7.57272 5.90847 -60148.1 39877.1 25187.7 367276 61501.3 -19912.5 -7.41827 
119 1 41.945 3.11488 7.57276 5.92275 -55507.2 26546.2 -26471.6 379600 -14400.2 -14080.8 -7.41438 
120 1 42.6344 1.8756 7.56554 5.90461 -47052.2 25840.5 14274.3 385677 54222.9 -17534 -7.41727 
121 1 44.0533 1.88008 7.56554 5.91374 -44541.1 17645.9 -15784.2 394182 -22727.3 -11815.5 -7.41491 
122 1 44.7841 3.10071 7.57351 5.90719 -56729.7 37930.2 24160.3 374266 60903.8 -13997.3 -7.41818 
123 1 46.203 3.10551 7.57305 5.92038 -52342.9 24499.4 -25159.1 381386 -15448.1 -9273.72 -7.41449 
273 1 37.7292 5.58918 7.5876 5.94836 -80114.5 50443.7 -50138.7 327878 -3533.07 -20335.8 -7.41354 
274 1 38.4181 4.34919 7.58013 5.91617 -74277.8 54495.3 37132.6 340236 66027.6 -22911.3 -7.41935 
275 1 39.8369 4.35112 7.58046 5.93429 -67443.8 37448.4 -37952.2 357086 -7834.57 -16977.3 -7.41394 
276 1 40.5659 5.57253 7.59067 5.92172 -83082.5 66183.3 48081.7 325893 67543.1 -18350.3 -7.42035 
277 1 41.9847 5.57502 7.59033 5.94139 -74447.9 45980.5 -48174.5 339817 -4689.85 -13783.5 -7.41363 
278 1 42.675 4.33585 7.58203 5.91275 -69138.1 51669.7 35601.8 353221 65791.6 -15817.9 -7.41924 
279 1 44.0938 4.33964 7.58152 5.9297 -62721.8 33980.1 -36206.8 363436 -8974.46 -11273.9 -7.41404 
280 1 44.8221 5.56151 7.59132 5.9193 -75571.9 60699 45871.1 333435 67558.4 -12439.9 -7.42021 
281 1 46.241 5.56546 7.59029 5.9378 -67350.1 40429.6 -45878.4 342114 -5675.2 -9105.02 -7.41376 
431 1 37.767 8.0509 7.6042 5.96686 -101354 77128.6 -73847.7 281573 -2571.27 -19673.8 -7.41285 
432 1 38.457 6.81107 7.59818 5.93382 -98410.6 81284.7 61380 293744 65839.3 -21845.9 -7.42144 
433 1 39.8758 6.81199 7.59838 5.95507 -87446.8 60506.5 -60904 312020 -2718.78 -16682 -7.41324 
434 1 40.6018 8.03492 7.60867 5.9417 -104226 90402.6 72163.6 277279 62839.9 -17915.3 -7.42235 
435 1 42.0205 8.03634 7.6082 5.96149 -91650.5 68771.6 -71221.6 292494 -3549.81 -13780.3 -7.41297 
436 1 42.7119 6.79741 7.60068 5.92926 -89085.5 74955.6 58677 306630 66742.3 -14704.7 -7.42131 
437 1 44.1307 6.8002 7.59976 5.9494 -78754.6 53125.3 -58223 318287 -3583.7 -11276.1 -7.41337 
438 1 44.8562 8.02346 7.60994 5.9379 -92711 81046.4 68755.8 284906 64261.3 -11934 -7.42218 
439 1 46.275 8.02637 7.60851 5.95767 -80701.8 59155.3 -67930.1 294813 -4042.66 -9329.09 -7.41314 
24 1 49.0032 0.633891 7.55954 5.90579 -35086.7 13797 4171.84 393833 44986.8 -11393.8 -7.41642 
25 1 50.4222 0.63993 7.55947 5.90899 -34471.3 11711.1 -5339.25 396390 -32344.3 -6808.36 -7.41563 
26 1 53.2631 0.628789 7.55941 5.90826 -34521.9 14766 4095.18 389033 44564.9 -8540.58 -7.41644 
27 1 54.6821 0.63525 7.55929 5.91117 -33892.6 12625.2 -4982.92 389960 -32692.5 -4491.15 -7.41571 
124 1 46.8935 1.86681 7.56588 5.90498 -45452.3 25229.5 13733.9 387953 53637 -12598.7 -7.41723 
125 1 48.3124 1.87235 7.5656 5.91365 -42970.5 17244 -14935 392545 -23520.1 -7798.59 -7.41501 
126 1 49.0424 3.09342 7.57305 5.90799 -53049.5 35745 23196.3 373746 60135.8 -9940.55 -7.41812 
127 1 50.4614 3.09903 7.57236 5.92017 -48735.3 22779.8 -23925.5 377836 -16377.9 -6012.47 -7.41461 
128 1 51.1527 1.86076 7.56551 5.90677 -43342.4 24750.8 13275.7 384825 52952.1 -9207.82 -7.41721 
129 1 52.5717 1.8669 7.56509 5.91463 -40908.1 16904.5 -14168.9 387168 -24185.4 -5072.26 -7.41512 
130 1 53.301 3.0883 7.57199 5.90978 -49370.9 33710.3 22388.3 369534 59317.2 -7158.26 -7.41808 
131 1 54.72 3.09437 7.5712 5.9211 -45170.4 21189.7 -22850 371890 -17189.2 -3771.88 -7.41473 
132 1 55.412 1.85643 7.56484 5.90918 -41329.1 24223.3 12888.9 379263 52287.4 -6834.86 -7.41722 
282 1 46.9323 4.32693 7.58182 5.91215 -63639.7 47678.9 34028.9 356251 65233.4 -10935.7 -7.41913 
283 1 48.3512 4.33182 7.58091 5.92796 -57425.3 30461 -34446.5 362456 -10020.1 -7348.88 -7.41417 
284 1 49.079 5.55401 7.59017 5.91888 -68289.7 55189.5 43800.9 333940 67258.7 -8415.02 -7.42007 
285 1 50.4979 5.55883 7.58879 5.93635 -60355 35519.9 -43678.7 339424 -6562.24 -5875.63 -7.41391 
286 1 51.1901 4.32078 7.58054 5.91299 -58294.4 44077.2 32654.7 354085 64512.8 -7613.07 -7.41904 
287 1 52.609 4.3263 7.57943 5.92784 -52311.8 27337.7 -32844.7 357892 -10946 -4667.15 -7.4143 
288 1 53.3363 5.54873 7.58809 5.91963 -61750.1 50234.2 42036.1 330881 66773.8 -5677.52 -7.41995 
289 1 54.7553 5.55405 7.58658 5.9362 -54046 31195.5 -41743.8 334468 -7365.22 -3631.65 -7.41405 
290 1 55.4482 4.31637 7.57878 5.9146 -53466.5 40786.3 31487.5 349483 63765 -5319.28 -7.41897 
440 1 46.9677 6.78816 7.60027 5.92728 -79608.8 67346.8 55869.1 310419 67191 -9792.52 -7.42113 
441 1 48.3865 6.79211 7.59876 5.94639 -69672 45977.7 -55411.2 317906 -4284.35 -7425.28 -7.41353 
442 1 49.1116 8.01558 7.60864 5.93609 -81920.9 71998.7 65473.7 286098 65199.8 -7817.87 -7.42198 
443 1 50.5305 8.01941 7.60669 5.95508 -70401.9 50638.9 -64687.2 292612 -4400.44 -6122.2 -7.41333 
444 1 51.2241 6.78175 7.59826 5.92688 -71129.7 60557.7 53371.7 309299 67280 -6450.31 -7.42097 
445 1 52.643 6.78638 7.59645 5.94514 -61575.8 39717 -52823.9 314228 -4911.18 -4730.3 -7.41369 
446 1 53.3678 8.00999 7.60588 5.9356 -72556.4 64072 62623.1 283867 65724 -5004.89 -7.42181 
447 1 54.7868 8.01436 7.60365 5.95392 -61417.2 43217.9 -61792.9 288286 -4737.92 -3834.34 -7.41349 
448 1 55.4812 6.77713 7.59545 5.92736 -63684.3 54548.5 51253.5 305766 67144.3 -4163.72 -7.42084 
28 1 57.523 0.625035 7.5592 5.91107 -34062.5 15736.5 4010.33 382783 44182.8 -6490.4 -7.41648 
29 1 58.9421 0.631702 7.55907 5.91365 -33385.1 13720 -4725.12 382845 -33017.9 -2820.82 -7.4158 
30 1 61.7828 0.622115 7.55895 5.91387 -33505.5 16790.4 3934.87 376416 43838.8 -4999.65 -7.41652 
31 1 63.2019 0.628864 7.55879 5.9161 -32771 14799 -4518.94 376037 -33297.1 -1553.33 -7.41587 
133 1 56.831 1.86287 7.5644 5.91637 -38935 16683.6 -13542.8 380385 -24775.6 -3167.93 -7.41522 
134 1 57.5598 3.08455 7.57074 5.91198 -46137.6 31977.2 21680.7 363829 58574.3 -5184.29 -7.41806 
135 1 58.9788 3.09085 7.56995 5.92254 -41992.2 19925.9 -21982.1 365244 -17918.9 -2175.13 -7.41483 
136 1 59.6713 1.85316 7.56412 5.91177 -39552.6 23964.6 12538.3 372987 51718.2 -5110.94 -7.41723 
137 1 61.0904 1.85975 7.56366 5.91836 -37165.3 16673.1 -13056.6 373536 -25290.6 -1765.83 -7.41531 
138 1 61.8188 3.08164 7.56941 5.9142 -43074.3 30606.3 21107.3 357959 57927.3 -3764.46 -7.41805 
139 1 63.2378 3.08805 7.56856 5.92409 -38970 18902.9 -21308.6 358867 -18525.2 -1003.04 -7.41492 
140 1 63.9307 1.85055 7.56328 5.91424 -37718.4 23831.4 12288 366952 51204.5 -3887.02 -7.41725 
141 1 65.3498 1.85719 7.56275 5.92026 -35317.1 16760.7 -12680.5 367132 -25709.5 -716.153 -7.41539 
291 1 56.8672 4.32225 7.57763 5.92857 -47597.3 24658.1 -31490.4 351907 -11785 -2789.86 -7.41442 
292 1 57.5941 5.54485 7.58566 5.92086 -55982.1 45919.2 40533.1 326248 66243.1 -3773.51 -7.41987 
293 1 59.0131 5.55043 7.58411 5.93666 -48453.2 27459.6 -40152.1 328713 -8118.21 -2046.96 -7.41417 
294 1 59.7066 4.31305 7.57691 5.91642 -49190.8 37993.8 30492.3 344047 63086 -3687.49 -7.41893 
295 1 61.1256 4.3191 7.57573 5.92964 -43406.5 22384.2 -30416.1 345736 -12531.8 -1448.08 -7.41453 
296 1 61.8522 5.54183 7.58303 5.92222 -50611.7 42255.3 39319.2 321247 65716.9 -2435.69 -7.41981 
297 1 63.2713 5.54755 7.58138 5.93735 -43209.2 24359.1 -38922.7 323147 -8781.18 -929.573 -7.41427 
298 1 63.9653 4.31039 7.5748 5.91816 -45128 35640.8 29745.1 338726 62460.4 -2541.36 -7.4189 
299 1 65.3843 4.31651 7.5735 5.93075 -39435.5 20466.9 -29606.1 339950 -13136.8 -476.448 -7.41461 
449 1 56.9001 6.78215 7.59353 5.94486 -54388.7 34298.2 -50611.1 309112 -5514.21 -2827.48 -7.41383 
450 1 57.6247 8.00585 7.60235 5.93575 -64430.6 57195.6 60216 280041 65966.9 -3069.07 -7.42167 
451 1 59.0437 8.01052 7.60001 5.95349 -53570.7 36878.3 -59384.1 283194 -5118.05 -2216.03 -7.41364 
452 1 59.7387 6.77363 7.5923 5.92819 -57024.1 49339.2 49478.8 301278 66899.9 -2575.56 -7.42074 
453 1 61.1577 6.77886 7.5903 5.94504 -47882.4 29762.3 -48843.9 303761 -6111.1 -1495.93 -7.41395 
454 1 61.8821 8.00262 7.59834 5.93617 -56952.8 51436.7 58268 275785 66006.6 -1729.14 -7.42156 
455 1 63.3012 8.00745 7.59582 5.95344 -46358.7 31556 -57508.4 278184 -5524.82 -1098.66 -7.41375 
456 1 63.9967 6.77082 7.58872 5.92909 -50949.3 45021.3 48116 296787 66567.5 -1470.5 -7.42066 
457 1 65.4158 6.77615 7.58655 5.9454 -42027 25789 -47504.1 298644 -6627.88 -560.238 -7.41405 
32 1 66.0426 0.619696 7.5586 5.91626 -32871.8 17798.8 3897.51 370418 43491.6 -3954.77 -7.41656 
33 1 67.4617 0.62645 7.55842 5.91831 -32134.1 15805.5 -4365.33 369860 -33560.3 -605.952 -7.41593 
34 1 70.3024 0.617547 7.55824 5.91833 -32403.5 18612.8 3841.37 365366 43172.1 -3167.12 -7.41659 
35 1 71.7215 0.624276 7.55807 5.92013 -31650.8 16568 -4277.25 364918 -33847.1 110.949 -7.41598 
36 1 74.5621 0.615547 7.55788 5.91995 -32087.8 19263.6 3785.19 361558 42875.3 -2498.16 -7.41661 
142 1 66.0779 3.07923 7.56781 5.91621 -40300.5 29465.4 20700.8 352450 57339.5 -2775.39 -7.41805 
143 1 67.4969 3.08566 7.56687 5.92555 -36295.2 17950.8 -20812 353094 -19022.3 -135.983 -7.415 
144 1 68.1902 1.8483 7.56225 5.9164 -36283.7 23707.9 12097.3 361522 50733.7 -3016.9 -7.41727 
145 1 69.6092 1.85493 7.56169 5.92195 -33901.6 16721.3 -12416.2 361648 -26097.8 66.6014 -7.41545 
146 1 70.3371 3.07709 7.566 5.91788 -37948.1 28344 20360.7 347754 56819.6 -2024.97 -7.41805 
147 1 71.7562 3.08351 7.56502 5.92672 -33980.1 16968.5 -20447 348451 -19478.4 532.367 -7.41506 
148 1 72.4497 1.84625 7.56117 5.91813 -34855.5 23473.2 11916.1 357247 50322.1 -2309.11 -7.41729 
149 1 73.8688 1.85286 7.56059 5.92324 -32475.5 16534.7 -12224.8 357421 -26463 695.175 -7.4155 
150 1 74.5964 3.07509 7.56411 5.91905 -35698 27178.2 20095.6 344196 56368.1 -1381.66 -7.41806 
300 1 66.1107 5.53933 7.57996 5.9235 -45910.6 39113.8 38427.3 316476 65190.8 -1499.41 -7.41976 
301 1 67.5298 5.5451 7.57817 5.93809 -38666.6 21494.4 -38005 318000 -9320.1 -111.599 -7.41435 
302 1 68.2241 4.30811 7.57231 5.91969 -41716.2 33512.8 29186.3 333865 61887.7 -1720.91 -7.41889 
303 1 69.6432 4.31424 7.57092 5.93176 -36082.7 18646.8 -29006.3 334970 -13649.5 257.398 -7.41468 
304 1 70.3695 5.53711 7.5765 5.92446 -41722.4 36258.8 37727.4 312354 64699.8 -780.795 -7.41974 
305 1 71.7886 5.54287 7.57464 5.93863 -34614.5 18778.1 -37308 313799 -9793.61 528.703 -7.41442 
306 1 72.4832 4.30601 7.56963 5.9208 -38504.2 31528.1 28722.6 330006 61382 -1050.33 -7.41888 
307 1 73.9023 4.31213 7.56821 5.93244 -32898.3 16785.2 -28549.9 331075 -14110.2 846.031 -7.41473 
308 1 74.6285 5.53501 7.57288 5.9251 -37742.9 33442.1 37189.4 309193 64253.1 -171.789 -7.41972 
458 1 66.1401 7.99993 7.59366 5.93666 -50504.4 46350.9 56802.2 271602 65880.4 -777.99 -7.42149 
459 1 67.5591 8.00483 7.59094 5.95353 -40100.9 26830.8 -56080.4 273489 -5874.01 -283.441 -7.41384 
460 1 68.2551 6.7684 7.58459 5.92987 -45640.5 41120.4 47095.6 292515 66190.9 -663.1 -7.42061 
461 1 69.6742 6.77376 7.58228 5.94576 -36861.8 22190.7 -46487.5 294150 -7062.11 154.619 -7.41412 
462 1 70.3984 7.99754 7.5884 5.93701 -44657.2 41822.8 55673.9 267920 65672.8 -37.4526 -7.42143 
463 1 71.8175 8.00245 7.58557 5.95352 -34432.4 22334.9 -54982.3 269624 -6194.2 358.907 -7.41391 
464 1 72.5138 6.76618 7.58011 5.93039 -40855.9 37425.7 46287.3 289090 65816 -8.16941 -7.42058 
465 1 73.933 6.77153 7.57775 5.94587 -32134 18663.1 -45713.9 290628 -7466.05 724.453 -7.41418 
466 1 74.6572 7.99527 7.58284 5.93705 -39050 37460.2 54820.5 265060 65413.6 576.714 -7.42139 
37 1 75.9812 0.62224 7.55769 5.92149 -31327.3 17167.4 -4206.44 361267 -34111.5 734.029 -7.41602 
38 1 78.8217 0.613602 7.55747 5.92103 -31734.7 19756.5 3772.84 359150 42582.3 -1938.39 -7.41663 
39 1 80.2408 0.620269 7.55726 5.92231 -30952.2 17531.3 -4153.09 359141 -34363 1297.51 -7.41604 
40 1 83.0814 0.611667 7.55704 5.92152 -31494.9 19863.3 3765.44 358140 42306 -1481.19 -7.41663 
151 1 76.0155 3.08148 7.5631 5.9275 -31732.2 15956.5 -20174.9 344989 -19869.9 1099.06 -7.4151 
152 1 76.7092 1.84429 7.56003 5.91934 -33638.5 23188.5 11808.7 354151 49954 -1696.91 -7.4173 
153 1 78.1283 1.85087 7.55942 5.92406 -31251 16260.2 -12085.9 354561 -26766.2 1263.22 -7.41553 
154 1 78.8559 3.07313 7.5621 5.91972 -33628.2 25999.4 19967.2 341940 55981.1 -836.841 -7.41806 
155 1 80.275 3.0795 7.56103 5.92781 -29654.1 14719.1 -20017.8 342924 -20182.2 1600.94 -7.41512 
156 1 80.9688 1.84236 7.55878 5.91998 -32319.6 22713.9 11773.7 352517 49632.8 -1199.71 -7.41731 
157 1 82.3879 1.84891 7.55814 5.92438 -29957.2 15574.6 -12022 353105 -27040.1 1755.16 -7.41554 
158 1 83.1155 3.07116 7.55992 5.91986 -31661.7 24453.5 19923.9 340999 55652.1 -372.895 -7.41806 
309 1 76.0476 5.54077 7.57098 5.93885 -30607.8 16179.3 -36794.7 310637 -10218.4 1052.7 -7.41446 
310 1 76.7425 4.304 7.56684 5.92145 -35413.6 29610.5 28420.4 327174 60940.6 -469.985 -7.41887 
311 1 78.1616 4.3101 7.56537 5.93272 -29879.8 14873.9 -28243.8 328421 -14489.5 1352.01 -7.41477 
312 1 78.8878 5.53296 7.56908 5.92526 -33977.9 30648.6 36891.1 307182 63852.1 351.644 -7.41971 
313 1 80.307 5.53869 7.56708 5.93865 -26879.3 13312.1 -36509.5 308696 -10560.3 1498.03 -7.41448 
314 1 81.002 4.302 7.56385 5.92164 -32377.4 27508.1 28291.1 325667 60568.1 19.7919 -7.41887 
315 1 82.4212 4.30808 7.56229 5.93255 -26880.5 12528.4 -28105.9 327026 -14782.5 1792.23 -7.41478 
316 1 83.1474 5.53087 7.565 5.92495 -30347.7 27496 36780 306318 63493.3 829.298 -7.41971 
467 1 76.0764 8.00018 7.57994 5.95323 -28861.2 18165.1 -54194.2 266696 -6531.51 867.737 -7.41395 
468 1 76.7729 6.76404 7.57545 5.9305 -36077.8 33984.6 45738.7 286604 65444.4 552.785 -7.42056 
469 1 78.1921 6.76938 7.57301 5.94565 -27477.2 15122.6 -45210.4 288205 -7837.71 1187.05 -7.41421 
470 1 78.9164 7.99304 7.577 5.93674 -33616.1 33140.5 54313.8 263201 65104.7 1111.52 -7.42137 
471 1 80.3356 7.99793 7.57399 5.95259 -23504.1 13616.1 -53754.1 264831 -6840.86 1284.92 -7.41398 
472 1 81.0324 6.76189 7.5705 5.93023 -31486.8 30260.1 45473.9 285225 65082.7 1050.33 -7.42055 
473 1 82.4515 6.76721 7.56795 5.94502 -22909.9 11248.8 -44976.4 286908 -8125.55 1591.13 -7.41423 
474 1 83.176 7.99075 7.57083 5.93599 -28368.5 28585.8 54109.3 262407 64760.1 1633.12 -7.42137 
41 1 84.5005 0.618315 7.55683 5.92254 -30750.6 17278.2 -4133.09 358399 -34632.8 1770.23 -7.41604 
42 1 87.3411 0.609708 7.55661 5.92116 -30921.4 19352.2 3757.35 358631 42025.4 -1005.34 -7.41663 
43 1 88.7602 0.616369 7.55639 5.92187 -30121.6 16626.9 -4129.15 359190 -34884.3 2216.63 -7.41604 
44 1 91.6009 0.60772 7.55622 5.92021 -30483.6 18297.8 3745.21 360546 41790.1 -432.883 -7.41661 
45 1 93.02 0.614408 7.55603 5.92063 -29649.4 15308.2 -4151.86 361348 -35125.8 2751.75 -7.41602 
159 1 84.5347 3.0775 7.55881 5.92762 -27740.6 12925.8 -19962.9 342209 -20441.2 2037.41 -7.41513 
160 1 85.2285 1.84039 7.55746 5.92005 -31221.2 21671.9 11759.6 352262 49332.7 -741.093 -7.41731 
161 1 86.6476 1.84694 7.5568 5.9241 -28766.1 14411.1 -12001.5 353172 -27286.7 2189.99 -7.41554 
162 1 87.3753 3.06913 7.55769 5.91938 -29462.3 22550.6 19925.5 341533 55344 126.562 -7.41806 
163 1 88.7945 3.07549 7.55661 5.92678 -25458.7 10786.6 -19956.1 342994 -20651.9 2470.96 -7.41512 
164 1 89.4883 1.83839 7.55618 5.91949 -29728 20254.2 11768.9 353488 49064.9 -204.121 -7.4173 
165 1 90.9074 1.84496 7.55557 5.92318 -27318.1 12562.4 -12022.8 354615 -27502.3 2663.48 -7.41553 
166 1 91.6353 3.06704 7.55566 5.91832 -27279.8 19903.4 19976.2 343391 55119 732.738 -7.41806 
167 1 93.0545 3.07342 7.55467 5.92536 -23211.5 7805.6 -20027.4 345068 -20821.7 2985.78 -7.4151 
317 1 84.5666 5.53659 7.56294 5.93799 -23270.6 10018.8 -36401.4 308011 -10810.4 1901.96 -7.41449 
318 1 85.2617 4.29995 7.56067 5.92126 -29655 24957.3 28258.7 325436 60230.5 497.625 -7.41887 
319 1 86.6809 4.30602 7.55911 5.93181 -24067.8 9923.55 -28062.8 327101 -15003.8 2206.26 -7.41478 
320 1 87.4074 5.5287 7.56086 5.92405 -26575.9 24137.7 36785 306840 63154.9 1357.33 -7.41971 
321 1 88.8266 5.53442 7.55886 5.93673 -19438.2 6315.16 -36390.1 308714 -11001.2 2326.6 -7.41448 
322 1 89.5217 4.29782 7.55761 5.92027 -26590.6 22035.1 28298.7 326656 59941.1 1059 -7.41887 
323 1 90.9409 4.30391 7.55614 5.93047 -21028.4 6455.33 -28100.1 328451 -15185.1 2665.34 -7.41476 
324 1 91.6676 5.52642 7.55704 5.92257 -22708 19939.9 36899 308569 62888.1 1989.21 -7.41971 
325 1 93.0868 5.53217 7.55518 5.93489 -15473.1 1786.6 -36525.1 310617 -11167.4 2818.15 -7.41445 
475 1 84.5953 7.99563 7.56773 5.95149 -18277 8916.65 -53579.1 264207 -7074.09 1678.38 -7.41398 
476 1 85.2921 6.75967 7.56531 5.92941 -27161 26239.4 45406.6 285043 64724.8 1563.83 -7.42055 
477 1 86.7114 6.76498 7.56276 5.94385 -18496.2 7126.14 -44903.3 286933 -8332.66 1993.26 -7.41422 
478 1 87.4361 7.98837 7.56458 5.93472 -23051.2 23716.3 54108.8 262903 64392.8 2211.08 -7.42137 
479 1 88.8554 7.99324 7.56157 5.94985 -12893.9 3663.35 -53574.5 264787 -7271.71 2105.82 -7.41397 
480 1 89.5523 6.75735 7.56028 5.92803 -22566.5 21793.7 45478.2 286166 64389.9 2159.77 -7.42056 
481 1 90.9716 6.76267 7.55787 5.94211 -13878.9 2156 -44975.8 288142 -8524.53 2446.87 -7.4142 