(written by TR)

37448	atoms
1	atom types
0	168.274484	xlo xhi
0	291.459957	ylo yhi
0	18.3999996	zlo zhi


Masses

1	12

Atoms

1 1 1 0 0.00000000 0.00000000 7.50000000 0 0 0
2 1 1 0 2.13893032 1.21415704 7.50000000 0 0 0
3 1 1 0 3.55889230 1.20377963 7.50000000 0 0 0
4 1 1 0 6.39881676 1.18302481 7.50000000 0 0 0
5 1 1 0 7.81877874 1.17264740 7.50000000 0 0 0
6 1 1 0 10.65870320 1.15189257 7.50000000 0 0 0
7 1 1 0 12.07866518 1.14151516 7.50000000 0 0 0
8 1 1 0 14.91858964 1.12076034 7.50000000 0 0 0
9 1 1 0 16.33855162 1.11038293 7.50000000 0 0 0
10 1 1 0 19.17847608 1.08962810 7.50000000 0 0 0
11 1 1 0 20.59843806 1.07925069 7.50000000 0 0 0
12 1 1 0 23.43836253 1.05849587 7.50000000 0 0 0
13 1 1 0 24.85832451 1.04811846 7.50000000 0 0 0
14 1 1 0 27.69824897 1.02736363 7.50000000 0 0 0
15 1 1 0 29.11821095 1.01698622 7.50000000 0 0 0
16 1 1 0 31.95813541 0.99623140 7.50000000 0 0 0
17 1 1 0 33.37809739 0.98585399 7.50000000 0 0 0
18 1 1 0 36.21802185 0.96509916 7.50000000 0 0 0
19 1 1 0 37.63798383 0.95472175 7.50000000 0 0 0
20 1 1 0 40.47790829 0.93396693 7.50000000 0 0 0
21 1 1 0 41.89787027 0.92358952 7.50000000 0 0 0
22 1 1 0 44.73779473 0.90283469 7.50000000 0 0 0
23 1 1 0 46.15775671 0.89245728 7.50000000 0 0 0
24 1 1 0 48.99768117 0.87170246 7.50000000 0 0 0
25 1 1 0 50.41764315 0.86132505 7.50000000 0 0 0
26 1 1 0 53.25756761 0.84057022 7.50000000 0 0 0
27 1 1 0 54.67752959 0.83019281 7.50000000 0 0 0
28 1 1 0 57.51745405 0.80943799 7.50000000 0 0 0
29 1 1 0 58.93741603 0.79906058 7.50000000 0 0 0
30 1 1 0 61.77734049 0.77830575 7.50000000 0 0 0
31 1 1 0 63.19730247 0.76792834 7.50000000 0 0 0
32 1 1 0 66.03722693 0.74717352 7.50000000 0 0 0
33 1 1 0 67.45718891 0.73679611 7.50000000 0 0 0
34 1 1 0 70.29711337 0.71604128 7.50000000 0 0 0
35 1 1 0 71.71707535 0.70566387 7.50000000 0 0 0
36 1 1 0 74.55699981 0.68490905 7.50000000 0 0 0
37 1 1 0 75.97696179 0.67453164 7.50000000 0 0 0
38 1 1 0 78.81688625 0.65377681 7.50000000 0 0 0
39 1 1 0 80.23684823 0.64339940 7.50000000 0 0 0
40 1 1 0 83.07677270 0.62264458 7.50000000 0 0 0
41 1 1 0 84.49673468 0.61226717 7.50000000 0 0 0
42 1 1 0 87.33665914 0.59151234 7.50000000 0 0 0
43 1 1 0 88.75662112 0.58113493 7.50000000 0 0 0
44 1 1 0 91.59654558 0.56038011 7.50000000 0 0 0
45 1 1 0 93.01650756 0.55000270 7.50000000 0 0 0
46 1 1 0 95.85643202 0.52924787 7.50000000 0 0 0
47 1 1 0 97.27639400 0.51887046 7.50000000 0 0 0
48 1 1 0 100.11631846 0.49811564 7.50000000 0 0 0
49 1 1 0 101.53628044 0.48773823 7.50000000 0 0 0
50 1 1 0 104.37620490 0.46698340 7.50000000 0 0 0
51 1 1 0 105.79616688 0.45660599 7.50000000 0 0 0
52 1 1 0 108.63609134 0.43585117 7.50000000 0 0 0
53 1 1 0 110.05605332 0.42547376 7.50000000 0 0 0
54 1 1 0 112.89597778 0.40471893 7.50000000 0 0 0
55 1 1 0 114.31593976 0.39434152 7.50000000 0 0 0
56 1 1 0 117.15586422 0.37358670 7.50000000 0 0 0
57 1 1 0 118.57582620 0.36320929 7.50000000 0 0 0
58 1 1 0 121.41575066 0.34245446 7.50000000 0 0 0
59 1 1 0 122.83571264 0.33207705 7.50000000 0 0 0
60 1 1 0 125.67563710 0.31132223 7.50000000 0 0 0
61 1 1 0 127.09559908 0.30094482 7.50000000 0 0 0
62 1 1 0 129.93552354 0.28018999 7.50000000 0 0 0
63 1 1 0 131.35548552 0.26981258 7.50000000 0 0 0
64 1 1 0 134.19540998 0.24905776 7.50000000 0 0 0
65 1 1 0 135.61537196 0.23868035 7.50000000 0 0 0
66 1 1 0 138.45529643 0.21792552 7.50000000 0 0 0
67 1 1 0 139.87525841 0.20754811 7.50000000 0 0 0
68 1 1 0 142.71518287 0.18679329 7.50000000 0 0 0
69 1 1 0 144.13514485 0.17641587 7.50000000 0 0 0
70 1 1 0 146.97506931 0.15566105 7.50000000 0 0 0
71 1 1 0 148.39503129 0.14528364 7.50000000 0 0 0
72 1 1 0 151.23495575 0.12452882 7.50000000 0 0 0
73 1 1 0 152.65491773 0.11415140 7.50000000 0 0 0
74 1 1 0 155.49484219 0.09339658 7.50000000 0 0 0
75 1 1 0 156.91480417 0.08301917 7.50000000 0 0 0
76 1 1 0 159.75472863 0.06226435 7.50000000 0 0 0
77 1 1 0 161.17469061 0.05188693 7.50000000 0 0 0
78 1 1 0 164.01461507 0.03113211 7.50000000 0 0 0
79 1 1 0 165.43457705 0.02075470 7.50000000 0 0 0
80 1 1 0 0.01797420 2.45944632 7.50000000 0 0 0
81 1 1 0 1.43793628 2.44906891 7.50000000 0 0 0
82 1 1 0 2.15690452 3.67360336 7.50000000 0 0 0
83 1 1 0 3.57686650 3.66322595 7.50000000 0 0 0
84 1 1 0 4.27786064 2.42831409 7.50000000 0 0 0
85 1 1 0 5.69782272 2.41793667 7.50000000 0 0 0
86 1 1 0 6.41679096 3.64247113 7.50000000 0 0 0
87 1 1 0 7.83675294 3.63209372 7.50000000 0 0 0
88 1 1 0 8.53774708 2.39718185 7.50000000 0 0 0
89 1 1 0 9.95770916 2.38680444 7.50000000 0 0 0
90 1 1 0 10.67667741 3.61133889 7.50000000 0 0 0
91 1 1 0 12.09663939 3.60096148 7.50000000 0 0 0
92 1 1 0 12.79763352 2.36604962 7.50000000 0 0 0
93 1 1 0 14.21759560 2.35567220 7.50000000 0 0 0
94 1 1 0 14.93656385 3.58020666 7.50000000 0 0 0
95 1 1 0 16.35652583 3.56982925 7.50000000 0 0 0
96 1 1 0 17.05751997 2.33491738 7.50000000 0 0 0
97 1 1 0 18.47748205 2.32453997 7.50000000 0 0 0
98 1 1 0 19.19645029 3.54907442 7.50000000 0 0 0
99 1 1 0 20.61641227 3.53869701 7.50000000 0 0 0
100 1 1 0 21.31740641 2.30378515 7.50000000 0 0 0
101 1 1 0 22.73736849 2.29340773 7.50000000 0 0 0
102 1 1 0 23.45633673 3.51794219 7.50000000 0 0 0
103 1 1 0 24.87629871 3.50756478 7.50000000 0 0 0
104 1 1 0 25.57729285 2.27265291 7.50000000 0 0 0
105 1 1 0 26.99725493 2.26227550 7.50000000 0 0 0
106 1 1 0 27.71622317 3.48680995 7.50000000 0 0 0
107 1 1 0 29.13618515 3.47643254 7.50000000 0 0 0
108 1 1 0 29.83717929 2.24152068 7.50000000 0 0 0
109 1 1 0 31.25714137 2.23114326 7.50000000 0 0 0
110 1 1 0 31.97610961 3.45567772 7.50000000 0 0 0
111 1 1 0 33.39607159 3.44530031 7.50000000 0 0 0
112 1 1 0 34.09706573 2.21038844 7.50000000 0 0 0
113 1 1 0 35.51702781 2.20001103 7.50000000 0 0 0
114 1 1 0 36.23599605 3.42454548 7.50000000 0 0 0
115 1 1 0 37.65595803 3.41416807 7.50000000 0 0 0
116 1 1 0 38.35695217 2.17925621 7.50000000 0 0 0
117 1 1 0 39.77691425 2.16887879 7.50000000 0 0 0
118 1 1 0 40.49588249 3.39341325 7.50000000 0 0 0
119 1 1 0 41.91584447 3.38303584 7.50000000 0 0 0
120 1 1 0 42.61683861 2.14812397 7.50000000 0 0 0
121 1 1 0 44.03680069 2.13774656 7.50000000 0 0 0
122 1 1 0 44.75576893 3.36228101 7.50000000 0 0 0
123 1 1 0 46.17573091 3.35190360 7.50000000 0 0 0
124 1 1 0 46.87672505 2.11699174 7.50000000 0 0 0
125 1 1 0 48.29668713 2.10661432 7.50000000 0 0 0
126 1 1 0 49.01565537 3.33114878 7.50000000 0 0 0
127 1 1 0 50.43561735 3.32077137 7.50000000 0 0 0
128 1 1 0 51.13661149 2.08585950 7.50000000 0 0 0
129 1 1 0 52.55657357 2.07548209 7.50000000 0 0 0
130 1 1 0 53.27554181 3.30001654 7.50000000 0 0 0
131 1 1 0 54.69550379 3.28963913 7.50000000 0 0 0
132 1 1 0 55.39649793 2.05472727 7.50000000 0 0 0
133 1 1 0 56.81646001 2.04434985 7.50000000 0 0 0
134 1 1 0 57.53542825 3.26888431 7.50000000 0 0 0
135 1 1 0 58.95539023 3.25850690 7.50000000 0 0 0
136 1 1 0 59.65638437 2.02359503 7.50000000 0 0 0
137 1 1 0 61.07634645 2.01321762 7.50000000 0 0 0
138 1 1 0 61.79531469 3.23775207 7.50000000 0 0 0
139 1 1 0 63.21527667 3.22737466 7.50000000 0 0 0
140 1 1 0 63.91627081 1.99246279 7.50000000 0 0 0
141 1 1 0 65.33623289 1.98208538 7.50000000 0 0 0
142 1 1 0 66.05520113 3.20661984 7.50000000 0 0 0
143 1 1 0 67.47516312 3.19624243 7.50000000 0 0 0
144 1 1 0 68.17615725 1.96133056 7.50000000 0 0 0
145 1 1 0 69.59611933 1.95095315 7.50000000 0 0 0
146 1 1 0 70.31508758 3.17548760 7.50000000 0 0 0
147 1 1 0 71.73504956 3.16511019 7.50000000 0 0 0
148 1 1 0 72.43604369 1.93019832 7.50000000 0 0 0
149 1 1 0 73.85600578 1.91982091 7.50000000 0 0 0
150 1 1 0 74.57497402 3.14435537 7.50000000 0 0 0
151 1 1 0 75.99493600 3.13397796 7.50000000 0 0 0
152 1 1 0 76.69593014 1.89906609 7.50000000 0 0 0
153 1 1 0 78.11589222 1.88868868 7.50000000 0 0 0
154 1 1 0 78.83486046 3.11322313 7.50000000 0 0 0
155 1 1 0 80.25482244 3.10284572 7.50000000 0 0 0
156 1 1 0 80.95581658 1.86793385 7.50000000 0 0 0
157 1 1 0 82.37577866 1.85755644 7.50000000 0 0 0
158 1 1 0 83.09474690 3.08209090 7.50000000 0 0 0
159 1 1 0 84.51470888 3.07171349 7.50000000 0 0 0
160 1 1 0 85.21570302 1.83680162 7.50000000 0 0 0
161 1 1 0 86.63566510 1.82642421 7.50000000 0 0 0
162 1 1 0 87.35463334 3.05095866 7.50000000 0 0 0
163 1 1 0 88.77459532 3.04058125 7.50000000 0 0 0
164 1 1 0 89.47558946 1.80566938 7.50000000 0 0 0
165 1 1 0 90.89555154 1.79529197 7.50000000 0 0 0
166 1 1 0 91.61451978 3.01982643 7.50000000 0 0 0
167 1 1 0 93.03448176 3.00944902 7.50000000 0 0 0
168 1 1 0 93.73547590 1.77453715 7.50000000 0 0 0
169 1 1 0 95.15543798 1.76415974 7.50000000 0 0 0
170 1 1 0 95.87440622 2.98869419 7.50000000 0 0 0
171 1 1 0 97.29436820 2.97831678 7.50000000 0 0 0
172 1 1 0 97.99536234 1.74340491 7.50000000 0 0 0
173 1 1 0 99.41532442 1.73302750 7.50000000 0 0 0
174 1 1 0 100.13429266 2.95756196 7.50000000 0 0 0
175 1 1 0 101.55425464 2.94718455 7.50000000 0 0 0
176 1 1 0 102.25524878 1.71227268 7.50000000 0 0 0
177 1 1 0 103.67521086 1.70189527 7.50000000 0 0 0
178 1 1 0 104.39417910 2.92642972 7.50000000 0 0 0
179 1 1 0 105.81414108 2.91605231 7.50000000 0 0 0
180 1 1 0 106.51513522 1.68114044 7.50000000 0 0 0
181 1 1 0 107.93509730 1.67076303 7.50000000 0 0 0
182 1 1 0 108.65406554 2.89529749 7.50000000 0 0 0
183 1 1 0 110.07402752 2.88492008 7.50000000 0 0 0
184 1 1 0 110.77502166 1.65000821 7.50000000 0 0 0
185 1 1 0 112.19498374 1.63963080 7.50000000 0 0 0
186 1 1 0 112.91395198 2.86416525 7.50000000 0 0 0
187 1 1 0 114.33391396 2.85378784 7.50000000 0 0 0
188 1 1 0 115.03490810 1.61887597 7.50000000 0 0 0
189 1 1 0 116.45487018 1.60849856 7.50000000 0 0 0
190 1 1 0 117.17383842 2.83303302 7.50000000 0 0 0
191 1 1 0 118.59380040 2.82265561 7.50000000 0 0 0
192 1 1 0 119.29479454 1.58774374 7.50000000 0 0 0
193 1 1 0 120.71475662 1.57736633 7.50000000 0 0 0
194 1 1 0 121.43372486 2.80190078 7.50000000 0 0 0
195 1 1 0 122.85368684 2.79152337 7.50000000 0 0 0
196 1 1 0 123.55468098 1.55661150 7.50000000 0 0 0
197 1 1 0 124.97464306 1.54623409 7.50000000 0 0 0
198 1 1 0 125.69361131 2.77076855 7.50000000 0 0 0
199 1 1 0 127.11357329 2.76039114 7.50000000 0 0 0
200 1 1 0 127.81456742 1.52547927 7.50000000 0 0 0
201 1 1 0 129.23452950 1.51510186 7.50000000 0 0 0
202 1 1 0 129.95349775 2.73963631 7.50000000 0 0 0
203 1 1 0 131.37345973 2.72925890 7.50000000 0 0 0
204 1 1 0 132.07445387 1.49434703 7.50000000 0 0 0
205 1 1 0 133.49441595 1.48396962 7.50000000 0 0 0
206 1 1 0 134.21338419 2.70850408 7.50000000 0 0 0
207 1 1 0 135.63334617 2.69812667 7.50000000 0 0 0
208 1 1 0 136.33434031 1.46321480 7.50000000 0 0 0
209 1 1 0 137.75430239 1.45283739 7.50000000 0 0 0
210 1 1 0 138.47327063 2.67737184 7.50000000 0 0 0
211 1 1 0 139.89323261 2.66699443 7.50000000 0 0 0
212 1 1 0 140.59422675 1.43208256 7.50000000 0 0 0
213 1 1 0 142.01418883 1.42170515 7.50000000 0 0 0
214 1 1 0 142.73315707 2.64623961 7.50000000 0 0 0
215 1 1 0 144.15311905 2.63586220 7.50000000 0 0 0
216 1 1 0 144.85411319 1.40095033 7.50000000 0 0 0
217 1 1 0 146.27407527 1.39057292 7.50000000 0 0 0
218 1 1 0 146.99304351 2.61510737 7.50000000 0 0 0
219 1 1 0 148.41300549 2.60472996 7.50000000 0 0 0
220 1 1 0 149.11399963 1.36981809 7.50000000 0 0 0
221 1 1 0 150.53396171 1.35944068 7.50000000 0 0 0
222 1 1 0 151.25292995 2.58397514 7.50000000 0 0 0
223 1 1 0 152.67289193 2.57359773 7.50000000 0 0 0
224 1 1 0 153.37388607 1.33868586 7.50000000 0 0 0
225 1 1 0 154.79384815 1.32830845 7.50000000 0 0 0
226 1 1 0 155.51281639 2.55284290 7.50000000 0 0 0
227 1 1 0 156.93277837 2.54246549 7.50000000 0 0 0
228 1 1 0 157.63377251 1.30755362 7.50000000 0 0 0
229 1 1 0 159.05373459 1.29717621 7.50000000 0 0 0
230 1 1 0 159.77270283 2.52171067 7.50000000 0 0 0
231 1 1 0 161.19266481 2.51133326 7.50000000 0 0 0
232 1 1 0 161.89365895 1.27642139 7.50000000 0 0 0
233 1 1 0 163.31362103 1.26604398 7.50000000 0 0 0
234 1 1 0 164.03258927 2.49057843 7.50000000 0 0 0
235 1 1 0 165.45255125 2.48020102 7.50000000 0 0 0
236 1 1 0 166.15354539 1.24528915 7.50000000 0 0 0
237 1 1 0 167.57350747 1.23491174 7.50000000 0 0 0
238 1 1 0 0.03594840 4.91889264 7.50000000 0 0 0
239 1 1 0 1.45591049 4.90851523 7.50000000 0 0 0
240 1 1 0 2.17487873 6.13304969 7.50000000 0 0 0
241 1 1 0 3.59484071 6.12267227 7.50000000 0 0 0
242 1 1 0 4.29583485 4.88776041 7.50000000 0 0 0
243 1 1 0 5.71579693 4.87738300 7.50000000 0 0 0
244 1 1 0 6.43476517 6.10191745 7.50000000 0 0 0
245 1 1 0 7.85472715 6.09154004 7.50000000 0 0 0
246 1 1 0 8.55572129 4.85662817 7.50000000 0 0 0
247 1 1 0 9.97568337 4.84625076 7.50000000 0 0 0
248 1 1 0 10.69465161 6.07078521 7.50000000 0 0 0
249 1 1 0 12.11461359 6.06040780 7.50000000 0 0 0
250 1 1 0 12.81560773 4.82549594 7.50000000 0 0 0
251 1 1 0 14.23556981 4.81511853 7.50000000 0 0 0
252 1 1 0 14.95453805 6.03965298 7.50000000 0 0 0
253 1 1 0 16.37450003 6.02927557 7.50000000 0 0 0
254 1 1 0 17.07549417 4.79436370 7.50000000 0 0 0
255 1 1 0 18.49545625 4.78398629 7.50000000 0 0 0
256 1 1 0 19.21442449 6.00852074 7.50000000 0 0 0
257 1 1 0 20.63438647 5.99814333 7.50000000 0 0 0
258 1 1 0 21.33538061 4.76323147 7.50000000 0 0 0
259 1 1 0 22.75534269 4.75285406 7.50000000 0 0 0
260 1 1 0 23.47431093 5.97738851 7.50000000 0 0 0
261 1 1 0 24.89427291 5.96701110 7.50000000 0 0 0
262 1 1 0 25.59526705 4.73209923 7.50000000 0 0 0
263 1 1 0 27.01522913 4.72172182 7.50000000 0 0 0
264 1 1 0 27.73419737 5.94625627 7.50000000 0 0 0
265 1 1 0 29.15415935 5.93587886 7.50000000 0 0 0
266 1 1 0 29.85515349 4.70096700 7.50000000 0 0 0
267 1 1 0 31.27511557 4.69058959 7.50000000 0 0 0
268 1 1 0 31.99408381 5.91512404 7.50000000 0 0 0
269 1 1 0 33.41404579 5.90474663 7.50000000 0 0 0
270 1 1 0 34.11503993 4.66983476 7.50000000 0 0 0
271 1 1 0 35.53500201 4.65945735 7.50000000 0 0 0
272 1 1 0 36.25397025 5.88399180 7.50000000 0 0 0
273 1 1 0 37.67393223 5.87361439 7.50000000 0 0 0
274 1 1 0 38.37492637 4.63870253 7.50000000 0 0 0
275 1 1 0 39.79488845 4.62832512 7.50000000 0 0 0
276 1 1 0 40.51385669 5.85285957 7.50000000 0 0 0
277 1 1 0 41.93381867 5.84248216 7.50000000 0 0 0
278 1 1 0 42.63481281 4.60757029 7.50000000 0 0 0
279 1 1 0 44.05477489 4.59719288 7.50000000 0 0 0
280 1 1 0 44.77374313 5.82172733 7.50000000 0 0 0
281 1 1 0 46.19370511 5.81134992 7.50000000 0 0 0
282 1 1 0 46.89469925 4.57643806 7.50000000 0 0 0
283 1 1 0 48.31466133 4.56606065 7.50000000 0 0 0
284 1 1 0 49.03362957 5.79059510 7.50000000 0 0 0
285 1 1 0 50.45359155 5.78021769 7.50000000 0 0 0
286 1 1 0 51.15458569 4.54530582 7.50000000 0 0 0
287 1 1 0 52.57454777 4.53492841 7.50000000 0 0 0
288 1 1 0 53.29351602 5.75946286 7.50000000 0 0 0
289 1 1 0 54.71347800 5.74908545 7.50000000 0 0 0
290 1 1 0 55.41447213 4.51417359 7.50000000 0 0 0
291 1 1 0 56.83443421 4.50379617 7.50000000 0 0 0
292 1 1 0 57.55340246 5.72833063 7.50000000 0 0 0
293 1 1 0 58.97336444 5.71795322 7.50000000 0 0 0
294 1 1 0 59.67435858 4.48304135 7.50000000 0 0 0
295 1 1 0 61.09432066 4.47266394 7.50000000 0 0 0
296 1 1 0 61.81328890 5.69719839 7.50000000 0 0 0
297 1 1 0 63.23325088 5.68682098 7.50000000 0 0 0
298 1 1 0 63.93424502 4.45190912 7.50000000 0 0 0
299 1 1 0 65.35420710 4.44153170 7.50000000 0 0 0
300 1 1 0 66.07317534 5.66606616 7.50000000 0 0 0
301 1 1 0 67.49313732 5.65568875 7.50000000 0 0 0
302 1 1 0 68.19413146 4.42077688 7.50000000 0 0 0
303 1 1 0 69.61409354 4.41039947 7.50000000 0 0 0
304 1 1 0 70.33306178 5.63493392 7.50000000 0 0 0
305 1 1 0 71.75302376 5.62455651 7.50000000 0 0 0
306 1 1 0 72.45401790 4.38964465 7.50000000 0 0 0
307 1 1 0 73.87397998 4.37926723 7.50000000 0 0 0
308 1 1 0 74.59294822 5.60380169 7.50000000 0 0 0
309 1 1 0 76.01291020 5.59342428 7.50000000 0 0 0
310 1 1 0 76.71390434 4.35851241 7.50000000 0 0 0
311 1 1 0 78.13386642 4.34813500 7.50000000 0 0 0
312 1 1 0 78.85283466 5.57266945 7.50000000 0 0 0
313 1 1 0 80.27279664 5.56229204 7.50000000 0 0 0
314 1 1 0 80.97379078 4.32738018 7.50000000 0 0 0
315 1 1 0 82.39375286 4.31700276 7.50000000 0 0 0
316 1 1 0 83.11272110 5.54153722 7.50000000 0 0 0
317 1 1 0 84.53268308 5.53115981 7.50000000 0 0 0
318 1 1 0 85.23367722 4.29624794 7.50000000 0 0 0
319 1 1 0 86.65363930 4.28587053 7.50000000 0 0 0
320 1 1 0 87.37260754 5.51040498 7.50000000 0 0 0
321 1 1 0 88.79256952 5.50002757 7.50000000 0 0 0
322 1 1 0 89.49356366 4.26511571 7.50000000 0 0 0
323 1 1 0 90.91352574 4.25473829 7.50000000 0 0 0
324 1 1 0 91.63249398 5.47927275 7.50000000 0 0 0
325 1 1 0 93.05245596 5.46889534 7.50000000 0 0 0
326 1 1 0 93.75345010 4.23398347 7.50000000 0 0 0
327 1 1 0 95.17341218 4.22360606 7.50000000 0 0 0
328 1 1 0 95.89238042 5.44814051 7.50000000 0 0 0
329 1 1 0 97.31234240 5.43776310 7.50000000 0 0 0
330 1 1 0 98.01333654 4.20285124 7.50000000 0 0 0
331 1 1 0 99.43329862 4.19247382 7.50000000 0 0 0
332 1 1 0 100.15226686 5.41700828 7.50000000 0 0 0
333 1 1 0 101.57222884 5.40663087 7.50000000 0 0 0
334 1 1 0 102.27322298 4.17171900 7.50000000 0 0 0
335 1 1 0 103.69318506 4.16134159 7.50000000 0 0 0
336 1 1 0 104.41215330 5.38587604 7.50000000 0 0 0
337 1 1 0 105.83211528 5.37549863 7.50000000 0 0 0
338 1 1 0 106.53310942 4.14058677 7.50000000 0 0 0
339 1 1 0 107.95307150 4.13020935 7.50000000 0 0 0
340 1 1 0 108.67203974 5.35474381 7.50000000 0 0 0
341 1 1 0 110.09200172 5.34436640 7.50000000 0 0 0
342 1 1 0 110.79299586 4.10945453 7.50000000 0 0 0
343 1 1 0 112.21295794 4.09907712 7.50000000 0 0 0
344 1 1 0 112.93192619 5.32361157 7.50000000 0 0 0
345 1 1 0 114.35188817 5.31323416 7.50000000 0 0 0
346 1 1 0 115.05288230 4.07832229 7.50000000 0 0 0
347 1 1 0 116.47284438 4.06794488 7.50000000 0 0 0
348 1 1 0 117.19181263 5.29247934 7.50000000 0 0 0
349 1 1 0 118.61177461 5.28210193 7.50000000 0 0 0
350 1 1 0 119.31276875 4.04719006 7.50000000 0 0 0
351 1 1 0 120.73273083 4.03681265 7.50000000 0 0 0
352 1 1 0 121.45169907 5.26134710 7.50000000 0 0 0
353 1 1 0 122.87166105 5.25096969 7.50000000 0 0 0
354 1 1 0 123.57265519 4.01605782 7.50000000 0 0 0
355 1 1 0 124.99261727 4.00568041 7.50000000 0 0 0
356 1 1 0 125.71158551 5.23021487 7.50000000 0 0 0
357 1 1 0 127.13154749 5.21983746 7.50000000 0 0 0
358 1 1 0 127.83254163 3.98492559 7.50000000 0 0 0
359 1 1 0 129.25250371 3.97454818 7.50000000 0 0 0
360 1 1 0 129.97147195 5.19908263 7.50000000 0 0 0
361 1 1 0 131.39143393 5.18870522 7.50000000 0 0 0
362 1 1 0 132.09242807 3.95379335 7.50000000 0 0 0
363 1 1 0 133.51239015 3.94341594 7.50000000 0 0 0
364 1 1 0 134.23135839 5.16795040 7.50000000 0 0 0
365 1 1 0 135.65132037 5.15757299 7.50000000 0 0 0
366 1 1 0 136.35231451 3.92266112 7.50000000 0 0 0
367 1 1 0 137.77227659 3.91228371 7.50000000 0 0 0
368 1 1 0 138.49124483 5.13681816 7.50000000 0 0 0
369 1 1 0 139.91120681 5.12644075 7.50000000 0 0 0
370 1 1 0 140.61220095 3.89152888 7.50000000 0 0 0
371 1 1 0 142.03216303 3.88115147 7.50000000 0 0 0
372 1 1 0 142.75113127 5.10568593 7.50000000 0 0 0
373 1 1 0 144.17109325 5.09530852 7.50000000 0 0 0
374 1 1 0 144.87208739 3.86039665 7.50000000 0 0 0
375 1 1 0 146.29204947 3.85001924 7.50000000 0 0 0
376 1 1 0 147.01101771 5.07455369 7.50000000 0 0 0
377 1 1 0 148.43097969 5.06417628 7.50000000 0 0 0
378 1 1 0 149.13197383 3.82926441 7.50000000 0 0 0
379 1 1 0 150.55193591 3.81888700 7.50000000 0 0 0
380 1 1 0 151.27090415 5.04342146 7.50000000 0 0 0
381 1 1 0 152.69086613 5.03304405 7.50000000 0 0 0
382 1 1 0 153.39186027 3.79813218 7.50000000 0 0 0
383 1 1 0 154.81182235 3.78775477 7.50000000 0 0 0
384 1 1 0 155.53079059 5.01228922 7.50000000 0 0 0
385 1 1 0 156.95075257 5.00191181 7.50000000 0 0 0
386 1 1 0 157.65174671 3.76699994 7.50000000 0 0 0
387 1 1 0 159.07170879 3.75662253 7.50000000 0 0 0
388 1 1 0 159.79067703 4.98115699 7.50000000 0 0 0
389 1 1 0 161.21063901 4.97077958 7.50000000 0 0 0
390 1 1 0 161.91163315 3.73586771 7.50000000 0 0 0
391 1 1 0 163.33159523 3.72549030 7.50000000 0 0 0
392 1 1 0 164.05056347 4.95002475 7.50000000 0 0 0
393 1 1 0 165.47052545 4.93964734 7.50000000 0 0 0
394 1 1 0 166.17151959 3.70473547 7.50000000 0 0 0
395 1 1 0 167.59148167 3.69435806 7.50000000 0 0 0
396 1 1 0 0.05392261 7.37833896 7.50000000 0 0 0
397 1 1 0 1.47388469 7.36796155 7.50000000 0 0 0
398 1 1 0 2.19285293 8.59249601 7.50000000 0 0 0
399 1 1 0 3.61281491 8.58211860 7.50000000 0 0 0
400 1 1 0 4.31380905 7.34720673 7.50000000 0 0 0
401 1 1 0 5.73377113 7.33682932 7.50000000 0 0 0
402 1 1 0 6.45273937 8.56136377 7.50000000 0 0 0
403 1 1 0 7.87270135 8.55098636 7.50000000 0 0 0
404 1 1 0 8.57369549 7.31607449 7.50000000 0 0 0
405 1 1 0 9.99365757 7.30569708 7.50000000 0 0 0
406 1 1 0 10.71262581 8.53023154 7.50000000 0 0 0
407 1 1 0 12.13258779 8.51985413 7.50000000 0 0 0
408 1 1 0 12.83358193 7.28494226 7.50000000 0 0 0
409 1 1 0 14.25354401 7.27456485 7.50000000 0 0 0
410 1 1 0 14.97251225 8.49909930 7.50000000 0 0 0
411 1 1 0 16.39247423 8.48872189 7.50000000 0 0 0
412 1 1 0 17.09346837 7.25381002 7.50000000 0 0 0
413 1 1 0 18.51343045 7.24343261 7.50000000 0 0 0
414 1 1 0 19.23239869 8.46796707 7.50000000 0 0 0
415 1 1 0 20.65236067 8.45758966 7.50000000 0 0 0
416 1 1 0 21.35335481 7.22267779 7.50000000 0 0 0
417 1 1 0 22.77331689 7.21230038 7.50000000 0 0 0
418 1 1 0 23.49228513 8.43683483 7.50000000 0 0 0
419 1 1 0 24.91224711 8.42645742 7.50000000 0 0 0
420 1 1 0 25.61324125 7.19154555 7.50000000 0 0 0
421 1 1 0 27.03320333 7.18116814 7.50000000 0 0 0
422 1 1 0 27.75217157 8.40570260 7.50000000 0 0 0
423 1 1 0 29.17213355 8.39532519 7.50000000 0 0 0
424 1 1 0 29.87312769 7.16041332 7.50000000 0 0 0
425 1 1 0 31.29308977 7.15003591 7.50000000 0 0 0
426 1 1 0 32.01205801 8.37457036 7.50000000 0 0 0
427 1 1 0 33.43201999 8.36419295 7.50000000 0 0 0
428 1 1 0 34.13301413 7.12928108 7.50000000 0 0 0
429 1 1 0 35.55297621 7.11890367 7.50000000 0 0 0
430 1 1 0 36.27194445 8.34343813 7.50000000 0 0 0
431 1 1 0 37.69190643 8.33306072 7.50000000 0 0 0
432 1 1 0 38.39290057 7.09814885 7.50000000 0 0 0
433 1 1 0 39.81286265 7.08777144 7.50000000 0 0 0
434 1 1 0 40.53183090 8.31230589 7.50000000 0 0 0
435 1 1 0 41.95179288 8.30192848 7.50000000 0 0 0
436 1 1 0 42.65278701 7.06701661 7.50000000 0 0 0
437 1 1 0 44.07274909 7.05663920 7.50000000 0 0 0
438 1 1 0 44.79171734 8.28117366 7.50000000 0 0 0
439 1 1 0 46.21167932 8.27079624 7.50000000 0 0 0
440 1 1 0 46.91267346 7.03588438 7.50000000 0 0 0
441 1 1 0 48.33263554 7.02550697 7.50000000 0 0 0
442 1 1 0 49.05160378 8.25004142 7.50000000 0 0 0
443 1 1 0 50.47156576 8.23966401 7.50000000 0 0 0
444 1 1 0 51.17255990 7.00475214 7.50000000 0 0 0
445 1 1 0 52.59252198 6.99437473 7.50000000 0 0 0
446 1 1 0 53.31149022 8.21890919 7.50000000 0 0 0
447 1 1 0 54.73145220 8.20853177 7.50000000 0 0 0
448 1 1 0 55.43244634 6.97361991 7.50000000 0 0 0
449 1 1 0 56.85240842 6.96324250 7.50000000 0 0 0
450 1 1 0 57.57137666 8.18777695 7.50000000 0 0 0
451 1 1 0 58.99133864 8.17739954 7.50000000 0 0 0
452 1 1 0 59.69233278 6.94248767 7.50000000 0 0 0
453 1 1 0 61.11229486 6.93211026 7.50000000 0 0 0
454 1 1 0 61.83126310 8.15664472 7.50000000 0 0 0
455 1 1 0 63.25122508 8.14626730 7.50000000 0 0 0
456 1 1 0 63.95221922 6.91135544 7.50000000 0 0 0
457 1 1 0 65.37218130 6.90097803 7.50000000 0 0 0
458 1 1 0 66.09114954 8.12551248 7.50000000 0 0 0
459 1 1 0 67.51111152 8.11513507 7.50000000 0 0 0
460 1 1 0 68.21210566 6.88022320 7.50000000 0 0 0
461 1 1 0 69.63206774 6.86984579 7.50000000 0 0 0
462 1 1 0 70.35103598 8.09438024 7.50000000 0 0 0
463 1 1 0 71.77099796 8.08400283 7.50000000 0 0 0
464 1 1 0 72.47199210 6.84909097 7.50000000 0 0 0
465 1 1 0 73.89195418 6.83871356 7.50000000 0 0 0
466 1 1 0 74.61092242 8.06324801 7.50000000 0 0 0
467 1 1 0 76.03088440 8.05287060 7.50000000 0 0 0
468 1 1 0 76.73187854 6.81795873 7.50000000 0 0 0
469 1 1 0 78.15184062 6.80758132 7.50000000 0 0 0
470 1 1 0 78.87080886 8.03211577 7.50000000 0 0 0
471 1 1 0 80.29077084 8.02173836 7.50000000 0 0 0
472 1 1 0 80.99176498 6.78682650 7.50000000 0 0 0
473 1 1 0 82.41172706 6.77644909 7.50000000 0 0 0
474 1 1 0 83.13069530 8.00098354 7.50000000 0 0 0
475 1 1 0 84.55065728 7.99060613 7.50000000 0 0 0
476 1 1 0 85.25165142 6.75569426 7.50000000 0 0 0
477 1 1 0 86.67161350 6.74531685 7.50000000 0 0 0
478 1 1 0 87.39058174 7.96985130 7.50000000 0 0 0
479 1 1 0 88.81054372 7.95947389 7.50000000 0 0 0
480 1 1 0 89.51153786 6.72456203 7.50000000 0 0 0
481 1 1 0 90.93149994 6.71418462 7.50000000 0 0 0
482 1 1 0 91.65046818 7.93871907 7.50000000 0 0 0
483 1 1 0 93.07043016 7.92834166 7.50000000 0 0 0
484 1 1 0 93.77142430 6.69342979 7.50000000 0 0 0
485 1 1 0 95.19138638 6.68305238 7.50000000 0 0 0
486 1 1 0 95.91035462 7.90758683 7.50000000 0 0 0
487 1 1 0 97.33031661 7.89720942 7.50000000 0 0 0
488 1 1 0 98.03131074 6.66229756 7.50000000 0 0 0
489 1 1 0 99.45127282 6.65192015 7.50000000 0 0 0
490 1 1 0 100.17024107 7.87645460 7.50000000 0 0 0
491 1 1 0 101.59020305 7.86607719 7.50000000 0 0 0
492 1 1 0 102.29119718 6.63116532 7.50000000 0 0 0
493 1 1 0 103.71115926 6.62078791 7.50000000 0 0 0
494 1 1 0 104.43012751 7.84532236 7.50000000 0 0 0
495 1 1 0 105.85008949 7.83494495 7.50000000 0 0 0
496 1 1 0 106.55108363 6.60003309 7.50000000 0 0 0
497 1 1 0 107.97104571 6.58965568 7.50000000 0 0 0
498 1 1 0 108.69001395 7.81419013 7.50000000 0 0 0
499 1 1 0 110.10997593 7.80381272 7.50000000 0 0 0
500 1 1 0 110.81097007 6.56890085 7.50000000 0 0 0
501 1 1 0 112.23093215 6.55852344 7.50000000 0 0 0
502 1 1 0 112.94990039 7.78305789 7.50000000 0 0 0
503 1 1 0 114.36986237 7.77268048 7.50000000 0 0 0
504 1 1 0 115.07085651 6.53776862 7.50000000 0 0 0
505 1 1 0 116.49081859 6.52739120 7.50000000 0 0 0
506 1 1 0 117.20978683 7.75192566 7.50000000 0 0 0
507 1 1 0 118.62974881 7.74154825 7.50000000 0 0 0
508 1 1 0 119.33074295 6.50663638 7.50000000 0 0 0
509 1 1 0 120.75070503 6.49625897 7.50000000 0 0 0
510 1 1 0 121.46967327 7.72079342 7.50000000 0 0 0
511 1 1 0 122.88963525 7.71041601 7.50000000 0 0 0
512 1 1 0 123.59062939 6.47550415 7.50000000 0 0 0
513 1 1 0 125.01059147 6.46512673 7.50000000 0 0 0
514 1 1 0 125.72955971 7.68966119 7.50000000 0 0 0
515 1 1 0 127.14952169 7.67928378 7.50000000 0 0 0
516 1 1 0 127.85051583 6.44437191 7.50000000 0 0 0
517 1 1 0 129.27047791 6.43399450 7.50000000 0 0 0
518 1 1 0 129.98944615 7.65852895 7.50000000 0 0 0
519 1 1 0 131.40940813 7.64815154 7.50000000 0 0 0
520 1 1 0 132.11040227 6.41323968 7.50000000 0 0 0
521 1 1 0 133.53036435 6.40286226 7.50000000 0 0 0
522 1 1 0 134.24933259 7.62739672 7.50000000 0 0 0
523 1 1 0 135.66929457 7.61701931 7.50000000 0 0 0
524 1 1 0 136.37028871 6.38210744 7.50000000 0 0 0
525 1 1 0 137.79025079 6.37173003 7.50000000 0 0 0
526 1 1 0 138.50921903 7.59626448 7.50000000 0 0 0
527 1 1 0 139.92918101 7.58588707 7.50000000 0 0 0
528 1 1 0 140.63017515 6.35097521 7.50000000 0 0 0
529 1 1 0 142.05013723 6.34059779 7.50000000 0 0 0
530 1 1 0 142.76910547 7.56513225 7.50000000 0 0 0
531 1 1 0 144.18906745 7.55475484 7.50000000 0 0 0
532 1 1 0 144.89006159 6.31984297 7.50000000 0 0 0
533 1 1 0 146.31002367 6.30946556 7.50000000 0 0 0
534 1 1 0 147.02899191 7.53400001 7.50000000 0 0 0
535 1 1 0 148.44895389 7.52362260 7.50000000 0 0 0
536 1 1 0 149.14994803 6.28871074 7.50000000 0 0 0
537 1 1 0 150.56991011 6.27833332 7.50000000 0 0 0
538 1 1 0 151.28887835 7.50286778 7.50000000 0 0 0
539 1 1 0 152.70884033 7.49249037 7.50000000 0 0 0
540 1 1 0 153.40983447 6.25757850 7.50000000 0 0 0
541 1 1 0 154.82979655 6.24720109 7.50000000 0 0 0
542 1 1 0 155.54876480 7.47173554 7.50000000 0 0 0
543 1 1 0 156.96872678 7.46135813 7.50000000 0 0 0
544 1 1 0 157.66972091 6.22644627 7.50000000 0 0 0
545 1 1 0 159.08968299 6.21606885 7.50000000 0 0 0
546 1 1 0 159.80865124 7.44060331 7.50000000 0 0 0
547 1 1 0 161.22861322 7.43022590 7.50000000 0 0 0
548 1 1 0 161.92960736 6.19531403 7.50000000 0 0 0
549 1 1 0 163.34956944 6.18493662 7.50000000 0 0 0
550 1 1 0 164.06853768 7.40947107 7.50000000 0 0 0
551 1 1 0 165.48849966 7.39909366 7.50000000 0 0 0
552 1 1 0 166.18949380 6.16418180 7.50000000 0 0 0
553 1 1 0 167.60945588 6.15380438 7.50000000 0 0 0
554 1 1 0 0.07189681 9.83778528 7.50000000 0 0 0
555 1 1 0 1.49185889 9.82740787 7.50000000 0 0 0
556 1 1 0 2.21082713 11.05194233 7.50000000 0 0 0
557 1 1 0 3.63078911 11.04156492 7.50000000 0 0 0
558 1 1 0 4.33178325 9.80665305 7.50000000 0 0 0
559 1 1 0 5.75174533 9.79627564 7.50000000 0 0 0
560 1 1 0 6.47071357 11.02081009 7.50000000 0 0 0
561 1 1 0 7.89067555 11.01043268 7.50000000 0 0 0
562 1 1 0 8.59166969 9.77552081 7.50000000 0 0 0
563 1 1 0 10.01163177 9.76514340 7.50000000 0 0 0
564 1 1 0 10.73060001 10.98967786 7.50000000 0 0 0
565 1 1 0 12.15056199 10.97930045 7.50000000 0 0 0
566 1 1 0 12.85155613 9.74438858 7.50000000 0 0 0
567 1 1 0 14.27151821 9.73401117 7.50000000 0 0 0
568 1 1 0 14.99048645 10.95854562 7.50000000 0 0 0
569 1 1 0 16.41044843 10.94816821 7.50000000 0 0 0
570 1 1 0 17.11144257 9.71325634 7.50000000 0 0 0
571 1 1 0 18.53140465 9.70287893 7.50000000 0 0 0
572 1 1 0 19.25037289 10.92741339 7.50000000 0 0 0
573 1 1 0 20.67033487 10.91703598 7.50000000 0 0 0
574 1 1 0 21.37132901 9.68212411 7.50000000 0 0 0
575 1 1 0 22.79129109 9.67174670 7.50000000 0 0 0
576 1 1 0 23.51025933 10.89628115 7.50000000 0 0 0
577 1 1 0 24.93022132 10.88590374 7.50000000 0 0 0
578 1 1 0 25.63121545 9.65099187 7.50000000 0 0 0
579 1 1 0 27.05117753 9.64061446 7.50000000 0 0 0
580 1 1 0 27.77014578 10.86514892 7.50000000 0 0 0
581 1 1 0 29.19010776 10.85477151 7.50000000 0 0 0
582 1 1 0 29.89110189 9.61985964 7.50000000 0 0 0
583 1 1 0 31.31106397 9.60948223 7.50000000 0 0 0
584 1 1 0 32.03003222 10.83401668 7.50000000 0 0 0
585 1 1 0 33.44999420 10.82363927 7.50000000 0 0 0
586 1 1 0 34.15098834 9.58872740 7.50000000 0 0 0
587 1 1 0 35.57095042 9.57834999 7.50000000 0 0 0
588 1 1 0 36.28991866 10.80288445 7.50000000 0 0 0
589 1 1 0 37.70988064 10.79250704 7.50000000 0 0 0
590 1 1 0 38.41087478 9.55759517 7.50000000 0 0 0
591 1 1 0 39.83083686 9.54721776 7.50000000 0 0 0
592 1 1 0 40.54980510 10.77175221 7.50000000 0 0 0
593 1 1 0 41.96976708 10.76137480 7.50000000 0 0 0
594 1 1 0 42.67076122 9.52646293 7.50000000 0 0 0
595 1 1 0 44.09072330 9.51608552 7.50000000 0 0 0