ITEM: TIMESTEP
347
ITEM: NUMBER OF ATOMS
22328
ITEM: BOX BOUNDS pp pp pp
0.0000000000000000e+00 1.2975027299999999e+02
0.0000000000000000e+00 2.2473406499999999e+02
0.0000000000000000e+00 1.5000000000000000e+01
ITEM: ATOMS id type x y z c_csym c_2[1] c_2[2] c_2[3] c_2[4] c_2[5] c_2[6] c_3 
208 1 0.893772 8.57721 2.98259 6.00601 -201958 -150245 -8654.95 -52630.5 19300.1 -2441.6 -7.41324 
209 1 0.161514 7.36371 2.97557 6.00554 -161522 -177952 8773.13 -47586.7 42750.7 -5801.41 -7.41481 
210 1 0.845186 6.12161 2.9673 6.00008 -198325 -151350 -3114.67 -39648.6 31008.9 -4156.73 -7.41326 
211 1 0.111122 4.90911 2.95786 6.00917 -164590 -178246 2251.91 -29297.9 42228.9 -3948.71 -7.41368 
212 1 0.792901 3.66609 2.94929 6.00366 -188495 -156496 -2450.02 -18077.9 29572.3 -6500.88 -7.413 
213 1 0.0568763 2.45462 2.94116 6.01731 -166873 -175509 -3352.98 -8849.56 25938 -1283.55 -7.41286 
214 1 0.737184 1.21087 2.93659 6.01871 -176514 -165568 -4942.58 -2644.15 12484.9 -7935.25 -7.41267 
215 1 4.61346e-06 -5.00606e-07 2.93416 6.02789 -170900 -170763 -5720.2 23.3499 -0.81274 4.44426 -7.41259 
392 1 2.31101 8.54575 2.9837 6.00041 -190985 -147600 9535.05 -44766 36065.4 -6554.67 -7.41519 
393 1 2.99427 7.30323 2.97853 6.00544 -226464 -122162 -1630.76 -42611.3 20640.1 -16018.8 -7.41373 
394 1 2.26237 6.08939 2.96961 5.9987 -192577 -151236 3411.84 -29555 42223.2 -12683.2 -7.41413 
395 1 2.94411 4.84618 2.96357 6.00196 -215329 -130173 1205.8 -21929.7 27127.9 -23580.1 -7.41359 
396 1 2.21007 3.63351 2.95292 6.00226 -186714 -158192 -1356.1 -6662.1 34017.5 -17003.8 -7.41324 
397 1 2.89049 2.38974 2.94931 6.00966 -195071 -148077 -638.51 -1411.35 19989.7 -28894.2 -7.41321 
398 1 2.15439 1.17818 2.94116 6.01036 -176117 -167107 -3955.01 9313.64 12066.5 -20070.6 -7.41279 
575 1 5.14165 8.48724 2.98803 6.00099 -239581 -103738 2225.7 -39314.8 7403.89 -19248.6 -7.41451 
576 1 4.41133 7.27239 2.98195 5.99375 -216057 -129765 620.535 -23228.3 31606.1 -10397.8 -7.41424 
577 1 5.09319 6.02912 2.97873 6.00066 -233461 -108501 6092.38 -19487.3 17883.4 -29417.3 -7.41455 
578 1 4.36116 4.81515 2.9696 5.99476 -209990 -138709 -2364.29 1616.15 31276.6 -20207.6 -7.41351 
579 1 5.04188 3.57147 2.9674 6.00568 -214864 -126765 5514.68 5110.63 19865.6 -38661.1 -7.41421 
580 1 4.3076 2.35872 2.95784 5.99972 -193086 -154341 -2551.02 24425.9 17842.2 -28309.7 -7.41313 
581 1 4.98791 1.11504 2.95939 6.00348 -186770 -156985 1479.15 20464.9 10596.1 -42003.5 -7.41367 
758 1 6.55869 8.45772 2.99082 5.9988 -224385 -121017 -5629.81 -17538.8 16719 -2135.62 -7.41397 
759 1 7.24099 7.21464 2.98981 5.99718 -234104 -100915 12112.8 -17802.9 6964.95 -25495.5 -7.41559 
760 1 6.51019 5.99987 2.98391 5.99667 -223244 -127484 -7771.27 8145.82 20082.4 -12626.2 -7.41346 
761 1 7.19156 4.75648 2.98292 6.00111 -223168 -113060 12054.5 9197.48 14100.4 -34814.5 -7.41537 
762 1 6.45892 3.54263 2.97546 6.00034 -209691 -141872 -5891.33 36626.8 15012.7 -23016.4 -7.41326 
763 1 7.13978 2.29921 2.97636 6.00251 -201026 -139303 7548.8 32181.2 13452 -40892.1 -7.41474 
764 1 6.40506 1.0865 2.96957 6.00208 -185005 -163131 -1068.93 54056.1 723.694 -31373.9 -7.41349 
942 1 8.65804 7.18654 2.99301 6.00448 -219065 -128441 -15456.7 7779.55 7196.72 -2394.42 -7.41315 
944 1 8.60861 4.72927 2.98804 6.00687 -213568 -137968 -12980 38889.7 6675 -10484.5 -7.4131 
945 1 9.29037 3.48629 2.98831 6.00388 -203584 -130316 14321.2 33856.9 12404.4 -29039.9 -7.41582 
946 1 8.55689 2.27276 2.98357 6.00987 -196753 -153990 -6348.79 64323.9 -95.6441 -18655.9 -7.41348 
947 1 9.23864 1.03002 2.98557 5.99628 -183416 -157855 5618.34 50753.9 10469.5 -29980.8 -7.41486 
11192 2 0.523445 8.60632 6.41704 6.00111 -148408 -187591 12053.9 52296.3 37198.9 5197.35 -7.41537 
11193 2 0.57204 6.15214 6.43255 6.0057 -153187 -188462 5517.23 40593.3 43415.4 2128.55 -7.41421 
11194 2 0.624334 3.69811 6.45065 6.00972 -158577 -184502 -635.473 19475.5 35022.5 -2860.73 -7.41321 
11195 2 0.68006 1.24386 6.46338 6.01869 -166015 -175973 -4939.91 3270.04 13118.2 -6841.22 -7.41267 
11196 2 7.30879e-06 1.41152e-06 6.46582 6.02787 -170938 -170779 -5719.31 -42.3745 -1.10618 4.06736 -7.41258 
11372 2 1.94094 8.63793 6.41606 5.99668 -158410 -192101 -7771.24 45681.1 20975.1 -11083.3 -7.41346 
11373 2 2.67478 7.42539 6.42123 6.00069 -122855 -219153 6093.11 44278.1 34418.4 -777.976 -7.41454 
11374 2 1.98946 6.18446 6.43035 5.99473 -157939 -190685 -2363.65 31633.1 33136.8 -16984.6 -7.41352 
11375 2 2.72486 4.97277 6.43639 6.00195 -132339 -212936 1206.81 25797.5 33986.6 -11702 -7.41359 
11376 2 2.04167 3.73073 6.44704 6.00232 -159584 -185226 -1354.08 9009.85 31733.6 -20957.3 -7.41324 
11377 2 2.77848 2.51971 6.45067 6.0037 -148841 -196096 -2447.75 4733.81 20419.3 -22355.2 -7.41299 
11378 2 2.09733 1.27656 6.45881 6.01733 -165704 -176674 -3352.12 -8261.9 14081.5 -21816.5 -7.41286 
11379 2 2.83449 0.0656253 6.45666 6.01002 -171036 -172217 -3233.57 -5757.21 -1073.66 -28776.8 -7.4129 
11555 2 4.77934 8.69642 6.41194 6.00099 -103586 -239579 2225.96 39177 20371.3 3210.89 -7.41451 
11556 2 4.09241 7.45652 6.41801 5.99372 -131250 -214477 621.624 25836.8 24806.3 -22176.3 -7.41425 
11557 2 4.82765 6.24473 6.42143 6.00545 -111315 -237262 -1630.45 23818.4 24194.6 -9865.15 -7.41373 
11558 2 4.14239 5.00396 6.43035 5.99872 -135927 -207698 3410.93 3125.68 32093.9 -30228.1 -7.41413 
11559 2 4.87887 3.79275 6.43265 6.00011 -128713 -220739 -3113.98 526.439 19106.5 -24775.7 -7.41326 
11560 2 4.19585 2.55078 6.44209 6.00922 -149446 -193271 2251.16 -20558.2 24533.1 -34596.7 -7.41368 
11561 2 4.93284 1.33969 6.44061 5.99775 -155638 -191604 -2131.61 -17867.7 5283.55 -36870.6 -7.41326 
11562 2 4.25171 0.0966114 6.44706 6.00379 -170431 -174016 -609.235 -32093 4361.43 -33663.9 -7.41322 
11738 2 6.19711 8.72633 6.40978 5.9982 -116669 -222250 6149.43 18048.2 11860.1 -20062.9 -7.41507 
11739 2 6.93193 7.51422 6.4112 6.01261 -104924 -244068 -8224.63 19571.9 11878.7 -1228.3 -7.41356 
11740 2 6.24533 6.27426 6.41626 6.00044 -119674 -218867 9536.06 -3618.43 23707.3 -27958.5 -7.41519 
11741 2 6.98119 5.06263 6.41737 6.006 -117634 -234571 -8656.09 -3942.67 11766.7 -15493.2 -7.41324 
11742 2 6.2964 3.82173 6.42439 6.00554 -132550 -206830 8771.34 -30976 26397.1 -34124.2 -7.41481 
11743 2 7.03293 2.6103 6.42363 5.99584 -140662 -210141 -5511.09 -27637.5 5285.05 -29760.3 -7.41338 
11744 2 6.35017 1.36826 6.43033 6.0027 -156334 -186695 4556.8 -51371.5 16370.8 -35574.5 -7.41411 
11745 2 7.08636 0.15647 6.42635 5.99405 -171117 -175140 570.031 -39445.3 -5199.13 -39353.8 -7.41396 
11921 2 9.03666 8.78248 6.40654 6.01365 -112684 -232290 -16104.1 19031.9 3670.91 6421.03 -7.41322 
11922 2 8.34966 7.5427 6.40808 6.00309 -118676 -212876 16387.4 -5960.04 11705.6 -21343.2 -7.41613 
11923 2 9.0846 6.33045 6.40817 6.01299 -120864 -228662 -16494.3 -3760.08 4077.91 -2660.03 -7.41299 
11924 2 8.39881 5.09007 6.4117 6.00303 -126473 -206159 15604.3 -33963.5 20264 -25075.9 -7.41593 
11925 2 9.13451 3.87808 6.41137 6.00223 -135868 -214683 -12497.5 -29906.4 1684.47 -14232 -7.4132 
11926 2 8.45037 2.63684 6.41594 5.99832 -144721 -192674 10432.7 -60079.5 20159 -26885.2 -7.41521 
11927 2 9.18623 1.42476 6.41418 5.99521 -158610 -189148 -4451.08 -48868.5 -4232.89 -24610.5 -7.41388 
11928 2 8.50361 0.18264 6.41804 6.00259 -171084 -173880 2343.94 -72538.9 11305.2 -24731.9 -7.41426 
941 1 9.38857 8.40146 2.99653 6.00058 -219891 -107621 19227.3 -21028.6 363.183 -19924.7 -7.41645 
943 1 9.3404 5.94365 2.99265 6.00203 -215317 -113574 18980 6116.72 8180.38 -24293.2 -7.4164 
1124 1 10.8057 8.37368 2.9985 6.01337 -201546 -137859 -23449.4 1207.62 -824.124 1892.96 -7.41284 
1125 1 11.4893 7.13142 2.99812 6.00872 -198087 -126378 26011.6 -2993 6940.07 -17881.9 -7.4171 
1126 1 10.7575 5.9171 2.9949 6.01503 -201416 -144680 -21065.9 31039.7 -1285.91 -478.737 -7.4128 
1127 1 11.4405 4.67471 2.99444 6.00662 -193374 -134459 21238.6 25841.5 12086.2 -17054.1 -7.41665 
1128 1 10.7075 3.46089 2.99164 6.01448 -195528 -153053 -14005.1 60409.2 -4059.8 -4737.04 -7.41321 
1129 1 11.39 2.2185 2.9921 6.00114 -184728 -149423 12140.5 49144.9 13295 -16655.3 -7.41571 
1130 1 10.6558 1.00529 2.99011 6.00545 -181146 -164159 -3566.97 78085 -10201 -9616.75 -7.41407 
1307 1 13.6385 8.31894 3.00313 6.01332 -185024 -140647 32826.3 -11672.7 11574.2 -22263.6 -7.41756 
1308 1 12.9066 7.1048 2.99913 6.02075 -181117 -155572 -28896.4 20325.4 -3838.23 -77.2242 -7.41262 
1309 1 13.5907 5.86305 2.99781 6.00925 -179731 -147286 27651.6 14956.6 15713.1 -14458 -7.41718 
1310 1 12.8577 4.64936 2.99511 6.01765 -181532 -160480 -22039.1 48609.4 -6570.22 1506.4 -7.41291 
1311 1 13.5412 3.40743 2.99437 6.00227 -177019 -152850 18650.9 40394.5 17195.1 -9234.52 -7.41634 
1312 1 12.8072 2.19411 2.99328 6.0077 -179116 -163203 -11087.9 71383.6 -10676.6 716.792 -7.41368 
1313 1 13.4904 0.95213 2.99385 6.00081 -173534 -160719 6268.4 56025.1 14644.9 -5629.36 -7.4152 
1490 1 15.0558 8.2924 3.00484 6.01885 -166577 -160494 -36443.7 15879 266.062 -9332.38 -7.4127 
1491 1 15.741 7.05118 3.00291 6.00634 -174640 -157370 34159.6 9870.08 23058.4 -23557.6 -7.41761 
1492 1 15.008 5.83754 2.99813 6.01737 -165093 -169003 -29855.8 40108 -4241.72 -3410.86 -7.41279 
1493 1 15.6924 4.5961 2.99641 5.99956 -169862 -161903 24606.3 34484.5 24146 -13039.6 -7.41681 
1494 1 14.9584 3.38288 2.99411 6.00814 -167957 -168938 -19092.8 63186.1 -9258.71 662.211 -7.41334 
1495 1 15.6421 2.14116 2.99382 5.99786 -169734 -162188 12393.3 53701 20888.1 -5784.61 -7.41575 
1496 1 14.9076 0.928106 2.99401 6.00271 -170927 -164029 -5256.63 77311.1 -14693 1483.85 -7.4143 
1673 1 17.8905 8.24035 3.01285 6.00155 -185446 -154100 42890.2 15237.4 30807.5 -38822.3 -7.41827 
1674 1 17.1583 7.02623 3.00504 6.0106 -158315 -168714 -37725.8 42475.7 2525.9 -15638.2 -7.41294 
1675 1 17.8434 5.78517 3.00282 5.99331 -172957 -165169 31685.3 38042.5 33116.8 -26049.3 -7.41737 
1676 1 17.1097 4.5718 2.99725 6.00565 -157970 -173464 -27117.4 63581.5 -4112.71 -9161.47 -7.41322 
1677 1 17.794 3.3304 2.99623 5.99041 -168456 -166637 18504.3 58790.3 29854.7 -15374 -7.41629 
1678 1 17.0594 2.11737 2.99414 5.99921 -163706 -168167 -13411.3 80091.3 -11732.7 -4812.66 -7.41391 
1679 1 17.7429 0.8756 2.9954 5.99329 -168575 -162033 4425.14 71066 21222.2 -8667.67 -7.41517 
12104 2 10.4543 8.81074 6.40449 6.00663 -130663 -197060 23017.2 -2662.07 3469.37 -19286.4 -7.41679 
12105 2 11.1882 7.59777 6.40357 6.01973 -133475 -208628 -24532.5 2040.58 1201.67 4386.64 -7.41272 
12106 2 10.5022 6.35738 6.40471 6.00703 -134733 -191718 22615.4 -29019.7 12365.8 -17254.8 -7.4168 
12107 2 11.2368 5.14469 6.40431 6.01082 -142509 -202249 -20535.5 -24252 -806.775 -930.086 -7.41288 
12108 2 10.552 3.90372 6.40671 5.99894 -144420 -185416 17182.7 -56865.4 17855.3 -15774.9 -7.41621 
12109 2 11.2871 2.69117 6.40637 6.00222 -155820 -189284 -11886.7 -47397.4 -4794.55 -8016.47 -7.41352 
12110 2 10.6036 1.44957 6.40907 5.99796 -161797 -175959 7736.02 -76296.3 16513.1 -13515.8 -7.41518 
12111 2 11.3386 0.236839 6.40807 5.99925 -171443 -169858 43.8149 -57417.4 -10005.4 -13921.5 -7.41455 
12287 2 13.2916 8.86547 6.39952 6.02136 -143468 -189243 -32212.6 9696.53 4714.96 747.437 -7.41264 
12288 2 12.6057 7.62491 6.40035 6.01204 -150849 -174212 29334.4 -20787.2 9475.11 -18340.7 -7.41734 
12289 2 13.3391 6.41149 6.39948 6.01853 -153013 -182099 -28336.4 -15206.1 1214.52 2239.42 -7.41267 
12290 2 12.6542 5.17041 6.40109 6.00478 -155259 -169220 24461.8 -47272.8 15472.3 -11396.4 -7.41693 
12291 2 13.3884 3.95727 6.40131 6.00989 -160716 -176815 -19902.7 -39835.7 -3286.07 917.529 -7.41314 
12292 2 12.7045 2.71575 6.40348 5.99983 -162781 -167087 14801.4 -69886.9 17860.2 -6014.48 -7.41601 
12293 2 13.4391 1.50277 6.40417 6.00374 -167940 -169665 -7596.27 -55721.5 -9141.03 -2213.83 -7.41404 
12294 2 12.7558 0.260925 6.40596 6.00124 -172157 -165389 2082.82 -79588.7 15471.9 -1983.25 -7.4148 
12470 2 14.709 8.89262 6.39451 6.01168 -162346 -167226 36155 -16431.4 14234.7 -28991.6 -7.41777 
12471 2 15.4415 7.6786 6.39323 6.0185 -155748 -168961 -35824.2 -9477.82 7453.88 -5518.73 -7.41275 
12472 2 14.7565 6.43748 6.3956 6.01111 -168485 -155804 31704.3 -39809.6 18120.5 -17729.5 -7.41742 
12473 2 15.4897 5.22375 6.39585 6.01308 -164592 -162283 -27602.2 -33764.9 1915.69 -1663.39 -7.41299 
12474 2 14.8057 3.98214 6.39866 6.00329 -170948 -153769 22540 -62438.3 20254.5 -8072.78 -7.41662 
12475 2 15.5397 2.76876 6.40018 6.00575 -168992 -160799 -15733.8 -53192.6 -5510.94 -396.475 -7.41363 
12476 2 14.8564 1.5269 6.40286 6.00076 -171898 -157804 9502.02 -76919.3 19014.9 -1450.27 -7.41549 
12477 2 15.5909 0.313784 6.40448 6.00117 -170353 -161350 -1647.33 -60845.8 -13900.7 -1759.56 -7.41461 
12653 2 17.5448 8.94472 6.38365 6.00406 -143380 -173234 -44165 -11962.9 14251.2 -18031 -7.41303 
12654 2 16.8589 7.70409 6.38751 6.01084 -172489 -156018 39532 -40979 26499.8 -31375.3 -7.41794 
12655 2 17.5914 6.4899 6.38782 6.00604 -158660 -157972 -35285.1 -35050.6 9128.34 -12535.6 -7.41313 
12656 2 16.907 5.24845 6.39189 6.00497 -177114 -146434 30409.8 -62246.5 26924 -19521.9 -7.41715 
12657 2 17.6404 4.03466 6.3937 6.00255 -166714 -153278 -23557.1 -56792.9 1000.61 -8140.4 -7.41351 
12658 2 16.957 2.79278 6.39793 5.99976 -175857 -148455 17543.4 -79297.4 24444.8 -9942.52 -7.41609 
12659 2 17.6913 1.57943 6.40027 5.99721 -169137 -156051 -9920.03 -70358.6 -9857.4 -6455.38 -7.4142 
12660 2 17.0081 0.33746 6.4036 5.99752 -170810 -157664 2186.79 -86142.7 19039 -4783.51 -7.41493 
1856 1 19.3078 8.21715 3.01762 5.99772 -168211 -153814 -46987.2 56667.4 9847.34 -27369.4 -7.41318 
1857 1 19.9933 6.97632 3.01585 5.98602 -190108 -154162 42059.7 52185 40945.7 -41115.4 -7.41824 
1858 1 19.2607 5.76219 3.00657 5.99888 -159122 -168033 -35428.2 76317.5 3250.77 -22573.3 -7.41331 
1859 1 19.9454 4.52106 3.0051 5.97996 -176763 -163633 26699 74348.8 40119 -30041.1 -7.41702 
1860 1 19.2112 3.30769 2.99891 5.99209 -159452 -169415 -21702.5 94017.5 -6036.95 -17363.5 -7.41374 
1861 1 19.895 2.06615 2.99956 5.98035 -170415 -163340 11160.9 90749 31576.8 -21272.4 -7.41583 
1862 1 19.1601 0.853047 2.99764 5.98894 -165522 -161302 -6101.3 104223 -16493.9 -14776.1 -7.41451 
2039 1 22.1412 8.17128 3.03391 5.98094 -218169 -128746 55818.8 73115.1 44960.9 -51650 -7.41947 
2040 1 21.4106 6.95576 3.02253 5.98991 -174867 -149455 -45387 98225.2 9248.18 -32566.3 -7.41342 
2041 1 22.0956 5.71484 3.02122 5.96993 -196466 -147799 38287.2 97417.4 48674.2 -43223.6 -7.4181 
2042 1 21.3626 4.50055 3.01105 5.98385 -165564 -161414 -30354.1 118191 540.431 -29741.2 -7.41372 
2043 1 22.0467 3.25926 3.01083 5.9657 -180810 -156979 20232.4 118781 43230.7 -34978.6 -7.41671 
2044 1 21.3122 2.04571 3.00454 5.97759 -164338 -161433 -14532.9 132692 -11632.9 -26908.2 -7.41428 
2045 1 21.9955 0.804073 3.00699 5.96531 -170114 -158027 3649.95 130204 29278.2 -29058.2 -7.41553 
2222 1 23.5583 8.15379 3.04215 5.98578 -201687 -120470 -58139.8 123012 11380.4 -36100.7 -7.41333 
2223 1 24.2437 6.91305 3.04181 5.96373 -223474 -120698 52442.9 122428 53072.3 -50424.7 -7.41945 
2224 1 23.5127 5.6973 3.02955 5.97827 -183498 -142462 -40695.1 146593 5351.33 -36986.1 -7.41368 
2225 1 24.1972 4.45629 3.02861 5.95338 -199804 -139742 32038.7 149439 53156.1 -44854.2 -7.41787 
2226 1 23.4639 3.24176 3.01844 5.96739 -172330 -153319 -23395.8 166927 -5997.49 -36102.4 -7.41413 
2227 1 24.1475 2.00044 3.01919 5.95045 -180671 -150899 12851.4 168612 42227.6 -39571.5 -7.41643 
2228 1 23.4128 0.786597 3.01346 5.96172 -167039 -154817 -6296.85 177262 -20808.6 -35787.9 -7.41485 
2405 1 26.3893 8.11625 3.06291 5.96226 -251719 -88758.3 67538.8 144144 52827.1 -51028.5 -7.42087 
2406 1 25.6607 6.89873 3.05077 5.97665 -209010 -115998 -53556.5 172406 6956.49 -38156.2 -7.41346 
2407 1 26.3458 5.65805 3.04966 5.94611 -223785 -114322 45579.1 176376 58862.2 -48394 -7.41922 
2408 1 25.6143 4.44209 3.03742 5.9613 -189505 -136711 -33852.6 199514 -1289.85 -39786.4 -7.41394 
2409 1 26.2984 3.20116 3.03632 5.93723 -197897 -134763 23961.6 204387 53678.6 -45264.6 -7.41753 
2410 1 25.5647 1.98637 3.02705 5.95005 -175148 -147860 -15345.7 218244 -15406.7 -40373.2 -7.41457 
2411 1 26.2483 0.745294 3.02791 5.93306 -174354 -149926 4639.02 218390 37455.2 -42391.5 -7.4161 
2588 1 27.8062 8.10495 3.07116 5.97836 -235787 -87609.4 -67997.7 191313 5558.63 -35186.5 -7.41307 
2590 1 27.7627 5.64704 3.05804 5.95997 -211842 -115010 -46353.2 224306 1419.67 -38524.6 -7.41363 
2592 1 27.7154 3.19048 3.04417 5.94361 -190437 -134575 -25703.2 252472 -9675.15 -40247.1 -7.41425 
2594 1 27.6655 0.734828 3.03455 5.93275 -172002 -147169 -6628.01 266011 -26292 -41787.4 -7.41513 
12836 2 18.9622 8.96845 6.37656 6.00635 -160560 -173514 49492.2 -51983.3 36883.9 -44926.4 -7.41878 
12837 2 19.6944 7.75398 6.37748 5.98995 -139396 -170601 -44555.6 -45111.2 14757.5 -24478.8 -7.41337 
12838 2 19.0087 6.51329 6.3824 6.0005 -172715 -153105 39112.6 -72263.4 37109.5 -34646.9 -7.41785 
12839 2 19.7418 5.29916 6.38439 5.98841 -154606 -156595 -31673.6 -68678.2 8079.63 -20302.9 -7.41362 
12840 2 19.0577 4.05764 6.38981 5.99504 -175917 -146067 25931.3 -91286.2 33368.2 -24434.1 -7.41673 
12841 2 19.7918 2.84398 6.3924 5.98542 -163238 -153509 -17856.4 -87689.4 -3317.94 -16984 -7.41408 
12842 2 19.1085 1.60207 6.39756 5.99028 -172412 -150808 10370.7 -103319 26126.1 -17097.9 -7.41556 
12843 2 19.8433 0.388821 6.39898 5.98236 -167396 -157751 -3622.72 -95937.2 -17826.2 -16809.6 -7.41481 
13019 2 21.7998 9.0142 6.36711 5.97244 -109344 -197734 -56818 -61203.8 16336.6 -31815.5 -7.4134 
13020 2 21.1119 7.77487 6.37177 5.98965 -154676 -174601 49823.2 -89616.5 46975.7 -46765.6 -7.41889 
13021 2 21.8448 6.56052 6.37419 5.97076 -132086 -174214 -41719.2 -86329 12663.2 -30702.1 -7.41372 
13022 2 21.1592 5.31993 6.37953 5.98464 -165770 -156003 35294.5 -111142 44163.8 -38975.7 -7.41761 
13023 2 21.893 4.10598 6.38218 5.96838 -148924 -160823 -26277.3 -110925 3403.47 -28372.1 -7.4141 
13024 2 21.2091 2.86457 6.38805 5.97937 -169085 -150408 19175.3 -128775 36244.8 -31465.9 -7.41631 
13025 2 21.9437 1.65101 6.38967 5.96607 -160727 -156910 -11425.4 -127324 -11791.2 -27041.2 -7.41466 
13026 2 21.2605 0.409273 6.39462 5.97635 -167201 -154763 2179.56 -136794 24724.7 -27023.6 -7.41515 
13202 2 23.2174 9.03191 6.36262 5.97551 -125981 -205569 62804.4 -109188 52826.3 -52576.6 -7.42019 
13203 2 23.9502 7.81737 6.36589 5.95442 -103072 -202367 -54513.6 -105614 13102 -35804.1 -7.41358 
13204 2 23.2623 6.57822 6.36981 5.97046 -145246 -177524 46375.8 -133637 53286.6 -48720.4 -7.4188 
13205 2 23.996 5.364 6.37256 5.95118 -126896 -179261 -36580.3 -135199 7779.54 -36270.8 -7.41405 
13206 2 23.3104 4.1236 6.3775 5.96555 -157260 -159930 28950.6 -157567 47291.8 -43204.2 -7.4173 
13207 2 24.045 2.90972 6.37922 5.94847 -146748 -164582 -19889.7 -160458 -5084.92 -35653.7 -7.41457 
13208 2 23.3611 1.66854 6.38427 5.9616 -163440 -154064 11195 -173814 35632.7 -38173.3 -7.41592 
13209 2 24.0961 0.454855 6.38314 5.94763 -163967 -157040 -4066.77 -172937 -23825.4 -36278 -7.41532 
13385 2 26.0585 9.0692 6.36127 5.94219 -72853.5 -233292 -68955.6 -122882 9957.08 -35527 -7.41316 
13386 2 25.3679 7.83169 6.36315 5.95564 -118213 -205012 59118.3 -153481 57837.7 -52239.5 -7.42018 
13387 2 26.1014 6.61719 6.36615 5.93751 -101436 -204497 -49123.9 -155833 8426.51 -38929.2 -7.41377 
13388 2 25.4135 5.37819 6.36894 5.95052 -137722 -178146 40045.2 -183133 56076.7 -49602.6 -7.41854 
13389 2 26.1479 4.16397 6.3707 5.93335 -127476 -181076 -29988.4 -189181 109.75 -40154.6 -7.41436 
13390 2 25.4624 2.92379 6.37432 5.94584 -152371 -161359 21015.4 -208716 46913.4 -45474.3 -7.41691 
13391 2 26.1974 1.70975 6.37375 5.93117 -151485 -163697 -12640.1 -212777 -16733.1 -40754.9 -7.41507 
13392 2 25.5134 0.468877 6.37673 5.94499 -163934 -153419 2603.59 -221864 32098.9 -41975.5 -7.41554 
13568 2 27.4764 9.08033 6.36051 5.9432 -90073.4 -232222 72474.9 -167796 57338.9 -50826.2 -7.42154 
13570 2 27.5191 6.62804 6.36429 5.93667 -114760 -200279 52310.1 -201184 60327.9 -50661.2 -7.41991 
13572 2 27.5654 4.17456 6.36738 5.93123 -135891 -174895 31823.5 -235110 55890.2 -48098.9 -7.4181 
13574 2 27.6148 1.72019 6.36874 5.92893 -154543 -158325 12176.7 -259487 43480.9 -44528.7 -7.41642 
2589 1 28.492 6.86463 3.07051 5.94426 -247342 -86619.9 59728.3 195597 59776.9 -46340.1 -7.42058 
2591 1 28.4476 4.40656 3.05556 5.92917 -218407 -112821 36324.6 231409 61208 -45299.7 -7.41876 
2593 1 28.3996 1.94984 3.04235 5.92288 -190289 -135518 14684.9 256561 50033.7 -43963.7 -7.41703 
2771 1 30.6358 8.07561 3.08909 5.94663 -267269 -61614.3 73564.6 206248 57028.4 -41208.5 -7.42184 
2772 1 29.9088 6.85641 3.07755 5.96207 -233941 -92335.8 -60002.6 238760 1800.69 -34395.4 -7.41323 
2773 1 30.5947 5.61642 3.07442 5.92698 -238182 -89889.9 49306.5 247024 64120.8 -41204.3 -7.42001 
2774 1 29.8645 4.39888 3.06229 5.94251 -209349 -117989 -37473.9 274843 -4841.73 -36795.7 -7.41388 
2775 1 30.5495 3.15875 3.05825 5.91453 -208338 -117063 25829.5 282417 59429.5 -41291.4 -7.41808 
2776 1 29.8167 1.94261 3.04828 5.92635 -185882 -136590 -16731.3 299668 -19151.4 -38386 -7.41467 
2777 1 30.5014 0.702516 3.04549 5.91103 -178511 -142431 4821.38 299907 42890 -41028.8 -7.41639 
2954 1 32.0525 8.06963 3.0946 5.96298 -252337 -71960.9 -73460 243584 153.476 -29328 -7.41279 
2955 1 32.7395 6.83017 3.09152 5.92947 -254460 -69617.6 62278.8 251977 63214.2 -35362.2 -7.42119 
2956 1 32.0115 5.61119 3.07958 5.9451 -227481 -100547 -49997.3 284449 -1934.5 -31822.3 -7.41348 
2957 1 32.6975 4.3716 3.07414 5.91197 -225583 -97819.8 37705.1 294509 64806.7 -36031.7 -7.41919 
2958 1 31.9665 3.1542 3.06291 5.92552 -202154 -123700 -27636.4 319386 -12109.6 -33351 -7.41422 
2959 1 32.6518 1.91456 3.05767 5.90357 -195719 -125937 15058.5 324334 53721.5 -36802.4 -7.41725 
2960 1 31.9185 0.698379 3.04934 5.91113 -177160 -141709 -7091.8 335953 -29327.7 -34988.4 -7.41525 
3137 1 34.8822 8.04709 3.1064 5.93486 -266234 -53960.4 74648.4 248661 59800.7 -29564.4 -7.42225 
3138 1 34.1562 6.82679 3.09517 5.94987 -242210 -85039.1 -62458.1 283275 -1297.55 -26661.6 -7.41308 
3139 1 34.8435 5.58777 3.08914 5.91423 -239855 -81141.1 49810.1 294622 66453.5 -30045.9 -7.4203 
3140 1 34.1144 4.3691 3.07741 5.92865 -217752 -110511 -38981.8 325154 -6630.31 -27991.3 -7.4138 
3141 1 34.8007 3.12996 3.07043 5.90062 -211704 -109096 26026.7 334240 61506.4 -31243 -7.41822 
3142 1 34.0689 1.91271 3.0605 5.91056 -192361 -130992 -17307.3 353921 -20731.2 -29100 -7.41469 
3143 1 34.7549 0.67365 3.05471 5.89669 -181924 -137813 4654.58 353911 45212.7 -32213.6 -7.4164 
3320 1 36.2989 8.04506 3.10876 5.95234 -252386 -72016.7 -74317 274626 -2552.8 -22024.1 -7.41271 
3321 1 36.9874 6.8066 3.1028 5.9197 -250343 -68038.3 61659.3 285982 65207.9 -24552.1 -7.42134 
3322 1 36.2602 5.58674 3.09114 5.93441 -230289 -98510.4 -50389.1 319633 -3495.19 -23043.7 -7.41342 
3323 1 36.9477 4.34813 3.08318 5.9022 -225008 -94281.3 37326.6 331631 65986.3 -25562.1 -7.41926 
3324 1 36.2176 3.12978 3.07224 5.91403 -206493 -120430 -27724.5 358048 -13129.3 -23737 -7.41421 
3325 1 36.9043 1.89111 3.06471 5.8935 -197773 -122005 14941 363651 54777.8 -26991.1 -7.41724 
3326 1 36.172 0.673966 3.0563 5.8988 -181173 -138516 -6802.5 376321 -30407.9 -24935.5 -7.41531 
13569 2 28.2094 7.86551 6.36393 5.9287 -76535.9 -230281 -62802.8 -170305 5753.7 -37122.8 -7.41329 
13571 2 28.253 5.41344 6.36604 5.92294 -106263 -201997 -41732.3 -209203 2300.71 -40161.1 -7.41399 
13573 2 28.3002 2.96013 6.36722 5.91876 -134826 -177159 -22432.3 -243476 -9989.76 -41548.6 -7.41471 
13575 2 28.3497 0.505688 6.3653 5.91841 -162792 -156003 -4424.25 -261411 -29995.3 -42611.3 -7.41566 
13751 2 30.32 9.1095 6.36528 5.92424 -55053.8 -251555 -76104.1 -178357 1307.15 -32745.3 -7.41273 
13752 2 29.6273 7.87347 6.36371 5.92632 -92076.4 -221254 65012.2 -210740 59903.7 -48021.6 -7.42124 
13753 2 30.3606 6.65844 6.36542 5.91747 -86261.9 -222149 -54284.3 -219603 1414.16 -36920.8 -7.4135 
13754 2 29.6707 5.42093 6.36446 5.91981 -117213 -191113 43526 -249971 60800.6 -46905.5 -7.4194 
13755 2 30.4049 4.20607 6.36446 5.91137 -117185 -193827 -33224 -261777 -5354.46 -39139.2 -7.41425 
13756 2 29.7177 2.96727 6.36411 5.91554 -140817 -167794 22594.7 -284815 52972.7 -43863.6 -7.41749 
13757 2 30.4524 1.75241 6.36166 5.90835 -148148 -167464 -14121.5 -292195 -21687.8 -40312.9 -7.41514 
13758 2 29.767 0.51272 6.36065 5.9171 -163506 -151233 2770.18 -303697 37368.3 -40592.1 -7.41585 
13934 2 31.738 9.11518 6.36612 5.92042 -72635.5 -238391 77287.2 -213112 56279 -43578 -7.42242 
13935 2 32.4705 7.89966 6.36787 5.91585 -69447.4 -238325 -66691.4 -221806 -1510.22 -32115.7 -7.41298 
13936 2 31.7784 6.66344 6.36511 5.91186 -99625.6 -206516 55621.9 -254199 61522.3 -43424.8 -7.42068 
13937 2 32.5118 5.44809 6.36503 5.90868 -100941 -209726 -44551.8 -267981 -3505.32 -34819.4 -7.41376 
13938 2 31.8225 4.21049 6.36293 5.9062 -125758 -179430 33762.9 -296329 59199.5 -41097.2 -7.41868 
13939 2 32.5568 2.99521 6.36107 5.90315 -132674 -181521 -24160.1 -308544 -14494.5 -36254.4 -7.4146 
13940 2 31.8698 1.7565 6.35891 5.9048 -151723 -158612 12935.7 -327207 47377.6 -37743.1 -7.41676 
13941 2 32.6041 0.54102 6.35421 5.90236 -164622 -153703 -5084.42 -329991 -33833.8 -36930.1 -7.4157 
14117 2 34.5826 9.13789 6.37206 5.91694 -56078.2 -249520 -78329.5 -218084 -5271.29 -27019.1 -7.41248 
14118 2 33.8884 7.9028 6.36819 5.90824 -84862.9 -219278 67501.4 -250467 59139.8 -39027.5 -7.42184 
14119 2 34.6209 6.68691 6.36793 5.90852 -87121.9 -222402 -55985.4 -264679 -4021.92 -29862.8 -7.41329 
14120 2 33.9295 5.45045 6.36446 5.90048 -111743 -190686 45277.5 -295846 61816.8 -37329.8 -7.41988 
14121 2 34.663 4.2347 6.36278 5.9011 -118379 -194938 -34434.6 -311670 -9607.74 -31416.8 -7.41409 
14122 2 33.9742 2.99701 6.35963 5.89679 -138762 -167246 23678.3 -336283 55156.5 -34211.8 -7.41781 
14123 2 34.7082 1.78121 6.35598 5.89751 -150309 -166567 -14786.5 -345424 -24789.7 -32233.5 -7.41504 
14124 2 34.0214 0.542613 6.35199 5.89934 -165896 -148440 3096.54 -358388 39502.9 -31083 -7.41601 
14300 2 36.0005 9.13972 6.3725 5.90839 -73347 -228802 78696.4 -241505 55004.9 -34594.5 -7.42284 
14301 2 36.732 7.92326 6.3721 5.9099 -76189 -231262 -67169.3 -255041 -6042.54 -25096.1 -7.41285 
14302 2 36.0387 6.68782 6.36769 5.89826 -100048 -200235 56706.3 -286952 61370.5 -33336.7 -7.42102 
14303 2 36.7711 5.47154 6.36593 5.90101 -106220 -205722 -44925.7 -304552 -7227.85 -26607.1 -7.41363 
14304 2 36.0805 4.23483 6.362 5.89298 -126689 -175713 34653.2 -333035 60025.8 -30616.1 -7.41893 
14305 2 36.8138 3.01864 6.35895 5.89496 -137061 -178967 -24393.1 -347478 -17270.8 -27475.7 -7.41448 
14306 2 36.1255 1.78088 6.35475 5.89175 -154055 -155806 13593 -366802 48608 -27383.5 -7.41691 
14307 2 36.8589 0.56446 6.34942 5.89212 -168189 -150744 -5166.44 -369927 -35560.2 -27735.9 -7.41562 
3503 1 39.1294 8.02749 3.11483 5.92705 -257121 -58732.1 72917.5 271921 61989.1 -20047.6 -7.4223 
3504 1 38.4041 6.80657 3.1037 5.94086 -239047 -88288.4 -61595.6 306399 -2671.19 -18815.4 -7.41309 
3505 1 39.0928 5.5685 3.09543 5.90715 -234920 -82487.5 48593.5 319879 67437.1 -20508.9 -7.42029 
3506 1 38.3645 4.34908 3.08403 5.92013 -217956 -110847 -38232.9 350735 -7580.06 -19184.5 -7.41381 
3507 1 39.0522 3.11086 3.07533 5.89398 -210924 -108046 25535.1 360899 61825.8 -21917.4 -7.41818 
3508 1 38.3213 1.89278 3.06562 5.90218 -195007 -129425 -16695.7 381173 -21487.7 -19766.7 -7.41472 
3509 1 39.0086 0.654598 3.05837 5.89041 -184424 -135311 4674.25 381412 45845.6 -23204.3 -7.41633 
3686 1 40.5461 8.02808 3.11474 5.94593 -244195 -80243.6 -72408.1 288541 -3647.8 -15371 -7.41279 
3687 1 41.2361 6.79056 3.10669 5.91425 -241379 -73950.4 59588.6 302335 66422.1 -16391.8 -7.42128 
3688 1 40.5096 5.57016 3.09538 5.92677 -226051 -102634 -48768.4 335348 -4424.98 -15455.9 -7.41348 
3689 1 41.1983 4.33241 3.08606 5.89774 -220785 -96614.5 36215.9 348729 66090.3 -17408 -7.41918 
3690 1 40.4691 3.11341 3.07555 5.90805 -206222 -121280 -26593 374835 -13946.7 -15616.1 -7.41426 
3691 1 41.157 1.87553 3.06709 5.88981 -197922 -121398 14694.4 381105 54699.4 -18910.7 -7.41717 
3692 1 40.4257 0.657641 3.05888 5.89358 -183843 -136819 -6083.99 393632 -30970.5 -16455.4 -7.41537 
3869 1 43.3777 8.01388 3.11649 5.92246 -244924 -68460.6 70168 281633 63597.9 -13213.1 -7.4222 
3870 1 42.6528 6.79262 3.10574 5.9342 -230756 -96058.2 -59247.2 314928 -3458.48 -12471.2 -7.41319 
3871 1 43.3428 5.55536 3.09633 5.90387 -227373 -88141.1 46837.2 330106 67694.9 -13666.1 -7.42018 
3872 1 42.6152 4.33547 3.08554 5.91471 -214206 -114471 -36550.4 359998 -8479.64 -12351.7 -7.41389 
3873 1 43.304 3.09797 3.07627 5.89193 -208144 -109878 24825.8 371095 61424.1 -15045.7 -7.41811 
3874 1 42.574 1.87929 3.06708 5.89875 -195363 -129562 -15672.5 390675 -22202.8 -12624.3 -7.41479 
3875 1 43.2624 0.64177 3.05951 5.88926 -186077 -133829 4736.48 391609 45751.3 -16320.1 -7.41629 
4052 1 44.7944 8.0161 3.11463 5.94201 -232650 -90961.4 -69541.2 291994 -4197.16 -10107 -7.41293 
4053 1 45.4857 6.77935 3.10555 5.91153 -231092 -82507.1 57296.4 307659 67019.1 -10718.1 -7.42116 
4054 1 44.7596 5.55865 3.095 5.92229 -218975 -108988 -46605.3 339335 -5271.31 -9796.83 -7.41359 
4055 1 45.4495 4.32156 3.08536 5.89652 -215034 -101016 35009.1 353856 65683.6 -11722.6 -7.41909 
4056 1 44.7209 3.10212 3.07564 5.90511 -203645 -123633 -25224.3 378806 -14828.2 -9705.55 -7.41435 
4057 1 45.4099 1.86484 3.06719 5.88968 -196969 -122016 14401.7 385813 54169.6 -13158.3 -7.41713 
4058 1 44.6795 0.646379 3.05956 5.89253 -185528 -135665 -5412.93 397636 -31480.1 -10290.8 -7.41544 
14483 2 38.8449 9.15778 6.37667 5.9134 -67859 -236225 -77828.1 -241519 -8779 -20872.4 -7.41246 
14484 2 38.1498 7.92323 6.37175 5.89981 -90898.2 -207442 67736.3 -272633 58787 -29551.4 -7.42205 
14485 2 38.8812 6.70638 6.36981 5.90383 -96486.2 -213281 -55531.8 -290488 -6914.53 -22282.6 -7.41324 
14486 2 38.1887 5.47057 6.36529 5.89108 -116527 -182978 45592.7 -320759 61978 -27243.7 -7.42004 
14487 2 38.9211 4.25391 6.36246 5.89547 -125595 -189151 -34131.3 -338871 -12001.8 -23066.8 -7.41401 
14488 2 38.2312 3.01698 6.35813 5.8884 -142973 -162638 24147.7 -363054 55662.9 -24161.9 -7.41793 