ITEM: TIMESTEP
0
ITEM: NUMBER OF ATOMS
22328
ITEM: BOX BOUNDS pp pp pp
0.0000000000000000e+00 1.2975027299999999e+02
0.0000000000000000e+00 2.2473406499999999e+02
0.0000000000000000e+00 1.5000000000000000e+01
ITEM: ATOMS id type x y z c_csym c_2[1] c_2[2] c_2[3] c_2[4] c_2[5] c_2[6] c_3 
208 1 0.79 8.589 3 6.02511 -150529 -147137 -50197.3 -16655.1 44924.5 -3358.52 -7.41272 
209 1 0.07 7.368 3 6.02334 -132413 -156945 -52045.6 -13021.5 43802 -845.853 -7.41195 
210 1 0.767 6.133 3 6.02637 -140755 -131933 -56299.4 2852.63 36647.7 -4098.38 -7.4122 
211 1 0.046 4.912 3 6.01955 -161691 -122209 -58539.5 -8593.61 31865.6 -471.971 -7.41206 
212 1 0.744 3.677 3 6.02329 -131384 -118823 -60976.5 -11514.9 24095.9 -4809.29 -7.41156 
213 1 0.023 2.456 3 6.02394 -160381 -122356 -62888.7 -9749.89 16837.4 -226.964 -7.41185 
214 1 0.721 1.221 3 6.02257 -176933 -117559 -63786.7 -9717.3 8496.11 -5055.67 -7.412 
215 1 0 0 3 6.02596 -122710 -133507 -64317.1 279.056 -33.5543 -7.09809 -7.41153 
392 1 2.208 8.575 3 6.0211 -123876 -130869 -47209.3 21381.2 47629.4 -11720 -7.41214 
393 1 2.906 7.341 3 6.02148 -189779 -148271 -51598 823.866 40136 -16534 -7.41296 
394 1 2.185 6.12 3 6.02217 -133481 -142600 -54845.7 3234.44 37975.2 -12822.5 -7.41191 
395 1 2.882 4.885 3 6.02589 -146843 -149345 -57122.2 -12489.3 29900.2 -18185.2 -7.41235 
396 1 2.162 3.664 3 6.02657 -140817 -154535 -60305.2 -9414.8 24497 -13754.3 -7.41219 
397 1 2.859 2.429 3 6.02721 -137242 -134070 -60877.3 1698.8 15955.6 -19226.7 -7.41196 
398 1 2.138 1.208 3 6.02224 -174539 -117343 -63211.3 -10001.8 8351.99 -14366.1 -7.41204 
575 1 5.044 8.549 3 6.02114 -142460 -132218 -44442.3 30933.6 40830.2 -26263.3 -7.41292 
576 1 4.323 7.327 3 6.01966 -170890 -127476 -49383.4 23305.1 41543 -22632.3 -7.41274 
577 1 5.021 6.093 3 6.02294 -140568 -152499 -50828.7 71.4044 33514.9 -29260.8 -7.41241 
578 1 4.3 4.872 3 6.02329 -124822 -127928 -55463.3 -10221.9 30237.7 -24994.9 -7.41173 
579 1 4.998 3.637 3 6.02304 -178476 -117751 -55785.5 -17676.5 22144.1 -31257.7 -7.41242 
580 1 4.277 2.416 3 6.02461 -135848 -138093 -58982.4 4698.62 15766.6 -26577.2 -7.41182 
581 1 4.974 1.181 3 6.02589 -142854 -150231 -58418.9 -12919.4 7983.18 -32147.3 -7.41228 
758 1 6.462 8.535 3 6.02537 -140212 -176126 -42872.4 21469.4 42246.5 -28618.1 -7.41322 
759 1 7.159 7.301 3 6.01884 -147306 -153411 -42685.5 15501.5 34560.5 -36905.1 -7.41298 
760 1 6.439 6.079 3 6.02345 -139216 -158169 -48874.5 23764.7 33635.3 -32656.1 -7.41289 
761 1 7.136 4.845 3 6.02361 -138214 -135562 -47778.9 29398.5 26157.2 -40320 -7.41275 
762 1 6.415 3.623 3 6.01966 -172033 -126444 -53403.5 24097.5 21138.8 -35850.8 -7.41241 
763 1 7.113 2.389 3 6.02292 -136899 -155831 -51639.6 -1748.92 14610.1 -42117.1 -7.41237 
764 1 6.392 1.168 3 6.02313 -127300 -124749 -55347.9 -8931.31 6630.38 -37615 -7.41148 
942 1 8.577 7.287 3 6.02329 -125829 -128824 -42149.8 -7582.11 33989.5 -36223.8 -7.41253 
944 1 8.554 4.831 3 6.02537 -140507 -175044 -46623.7 22332 24451 -40747.9 -7.41303 
945 1 9.251 3.597 3 6.01884 -142811 -156716 -43369.5 13754.5 18737.8 -48272 -7.41305 
946 1 8.531 2.375 3 6.019 -138842 -159482 -49200.3 24434.8 12206.9 -43973.1 -7.41278 
947 1 9.228 1.141 3 6.02521 -142710 -169947 -46391.7 11277.6 7568.58 -49373.2 -7.41303 
11192 2 0.628 8.602 6.4 6.0216 -128386 -132595 -47901.1 -31793.2 47843 -2538.73 -7.41265 
11193 2 0.651 6.146 6.4 6.02218 -137558 -149086 -55631.6 -17246.9 38178.1 -3510.15 -7.41199 
11194 2 0.674 3.691 6.4 6.02158 -136389 -147002 -61155.2 14200.5 24667.6 -4429.83 -7.41193 
11195 2 0.697 1.235 6.4 6.02425 -140332 -149420 -63735.9 10115.7 8623.11 -4930.27 -7.41173 
11196 2 0 0 6.4 6.02596 -122646 -133569 -64314.8 -2431.25 33.2771 -0.998313 -7.41153 
11372 2 2.046 8.616 6.4 6.02329 -159063 -180389 -49371.5 -2998.85 45091.7 -12892.6 -7.41299 
11373 2 2.766 7.395 6.4 6.0204 -141526 -157362 -50350.8 16391.5 42143 -14456.5 -7.41256 
11374 2 2.069 6.16 6.4 6.02522 -151468 -145585 -55519.2 15992.8 36768.6 -13658.9 -7.41234 
11375 2 2.789 4.939 6.4 6.02308 -142144 -156123 -57097.6 15467.4 30672.1 -16840.2 -7.4121 
11376 2 2.092 3.704 6.4 6.02596 -139505 -132914 -60082.9 -2441.27 24226.8 -14195.9 -7.4119 
11377 2 2.813 2.483 6.4 6.0224 -174399 -120839 -61321.4 12452.6 16028.7 -18521.1 -7.41213 
11378 2 2.115 1.248 6.4 6.02345 -128355 -120793 -62661.2 8365.09 8505.15 -14498.9 -7.41153 
11379 2 2.836 0.027 6.4 6.02313 -127495 -119530 -62434.8 13154.4 -109.488 -19278.4 -7.41149 
11555 2 4.881 8.643 6.4 6.02141 -140656 -161745 -44730.7 17947.9 43093.7 -22280.7 -7.41263 
11556 2 4.184 7.408 6.4 6.02519 -145005 -131216 -49366.5 -2736.08 40238.3 -24810.4 -7.41235 
11557 2 4.905 6.187 6.4 6.0224 -173703 -124121 -51471.3 14667.4 34337.4 -26465.9 -7.41263 
11558 2 4.207 4.952 6.4 6.02329 -132534 -119250 -54933.7 8414.43 30193.4 -26454 -7.41188 
11559 2 4.928 3.731 6.4 6.02329 -126351 -125189 -55970.1 14042.2 21966.9 -29636.2 -7.41181 
11560 2 4.23 2.496 6.4 6.02241 -177794 -118068 -58832.2 8125.39 16386.6 -27380.7 -7.41226 
11561 2 4.951 1.275 6.4 6.02653 -134645 -137347 -58464.6 252.096 7207.15 -31635.8 -7.41209 
11562 2 4.254 0.04 6.4 6.02445 -143729 -150952 -60236.9 9063.76 471.26 -27470.1 -7.41193 
11738 2 6.299 8.656 6.4 6.02329 -136828 -118246 -41132.5 8385.24 41245.9 -32522.3 -7.41258 
11739 2 7.02 7.435 6.4 6.02329 -125914 -128516 -44848.4 16339.3 35093.3 -32334.3 -7.4124 
11740 2 6.322 6.2 6.4 6.0224 -181765 -116977 -47175.1 8069.98 33974.6 -35547 -7.41285 
11741 2 7.043 4.979 6.4 6.02705 -133399 -140981 -50125.9 2611.91 25442.4 -37253.9 -7.41253 
11742 2 6.346 3.744 6.4 6.02657 -145823 -151601 -52041.3 8307.1 22501.3 -37606.9 -7.41261 
11743 2 7.066 2.523 6.4 6.02589 -141276 -156085 -52945.1 16469.9 13134.2 -40547.4 -7.41257 
11744 2 6.369 1.288 6.4 6.02233 -136676 -139288 -55171.5 -4865.12 8517.15 -38173.7 -7.41192 
11745 2 7.09 0.067 6.4 6.02164 -182201 -152488 -53622.1 3911.84 -822.965 -42305 -7.41284 
11921 2 9.135 8.683 6.4 6.02705 -133088 -144040 -37748.8 4721.84 33349.4 -34157.5 -7.41317 
11922 2 8.438 7.448 6.4 6.02657 -149847 -150690 -38367.6 8438.44 35169.3 -40739.4 -7.41332 
11923 2 9.158 6.227 6.4 6.02657 -140465 -159425 -42614 18826.9 26491.8 -40514.3 -7.4131 
11924 2 8.461 4.992 6.4 6.02705 -140047 -135624 -43434.5 -6759.31 26827 -43754.7 -7.41287 
11925 2 9.182 3.771 6.4 6.0224 -174253 -124957 -46311.3 17254.1 16434.3 -45391.1 -7.4129 
11926 2 8.484 2.536 6.4 6.02329 -130567 -126185 -47035.6 7747.92 15274.6 -45521.3 -7.41191 
11927 2 9.205 1.315 6.4 6.02292 -134421 -159525 -47349.2 4200.6 4591.63 -48403.3 -7.4126 
11928 2 8.507 0.081 6.4 6.01934 -172873 -122800 -49218.4 -25743.6 1633.46 -45578.8 -7.41274 
941 1 9.298 8.508 3 6.02329 -138062 -120736 -32757.4 -14952.5 33168 -40787.3 -7.41277 
943 1 9.275 6.052 3 6.02238 -180166 -121513 -38389.4 -17876.9 27768.5 -45302.9 -7.41318 
1124 1 10.716 8.495 3 6.02398 -140544 -160819 -35288.9 -2157.14 31987.8 -35417.1 -7.41348 
1125 1 11.413 7.26 3 6.02586 -144699 -135772 -28381 -2763.07 26910.5 -46271.4 -7.41342 
1126 1 10.692 6.039 3 6.0224 -174086 -126615 -39674.3 -1669.53 25116.8 -41371.2 -7.41325 
1127 1 11.39 4.804 3 6.02329 -132701 -126940 -33492 -17184.5 21069.2 -50211.4 -7.41262 
1128 1 10.669 3.583 3 6.02292 -133762 -161546 -41896.9 9916.14 15281.1 -45775.5 -7.41287 
1129 1 11.367 2.349 3 6.01966 -175847 -126068 -37692.6 13010.6 12506.8 -52310.9 -7.41323 
1130 1 10.646 1.127 3 6.02409 -133405 -138998 -42421 38242.6 3519.38 -48576.5 -7.41303 
1307 1 13.551 8.468 3 6.02398 -150621 -153421 -18506.2 -16216.2 24363.4 -43583.8 -7.41434 
1308 1 12.831 7.247 3 6.02657 -143086 -158660 -33005.7 108.175 23325.8 -37742.7 -7.41359 
1309 1 13.528 6.012 3 6.02657 -150704 -152649 -23494.3 -15536.6 21212.5 -48084.9 -7.41408 
1310 1 12.808 4.791 3 6.02398 -141208 -160192 -35051.9 -1854.73 16056.8 -43271 -7.41349 
1311 1 13.505 3.556 3 6.02342 -142802 -139880 -27834 -6795.29 15329.4 -51121.2 -7.41321 
1312 1 12.784 2.335 3 6.02303 -175158 -125708 -35754.9 -6752.12 6786.37 -47268.8 -7.41345 
1313 1 13.482 1.1 3 6.02346 -127706 -127655 -31327.8 -20206.9 7454.4 -52068.4 -7.41296 
1490 1 14.969 8.455 3 6.02329 -125470 -129965 -27731.1 139.44 19319.5 -31178.3 -7.41349 
1491 1 15.667 7.22 3 6.02329 -134599 -123450 -13447.4 -17040.4 19727.9 -42991.6 -7.41422 
1492 1 14.946 5.999 3 6.02587 -135495 -144654 -29223.1 13073.3 14711.5 -37204.6 -7.41339 
1493 1 15.643 4.764 3 6.02398 -147226 -156853 -18436.7 -18343.3 16200.6 -46440.3 -7.41434 
1494 1 14.923 3.543 3 6.02657 -144239 -158015 -29969.9 29.8397 7818.1 -41904.3 -7.41376 
1495 1 15.62 2.308 3 6.02673 -147642 -155730 -22372.6 -17778.5 10820.5 -48050.8 -7.41415 
1496 1 14.9 1.087 3 6.02398 -142635 -157057 -28704.4 -3423.81 -349.002 -44910.5 -7.41381 
1673 1 17.805 8.428 3 6.02522 -152552 -152765 -4614.93 -22008.9 17126.5 -36003.8 -7.41504 
1674 1 17.085 7.207 3 6.02269 -142211 -161996 -25014.9 -1874.99 11712.9 -28731.7 -7.41376 
1675 1 17.782 5.972 3 6.02586 -142921 -140225 -9050.68 -5090.6 15921.2 -39363.9 -7.41442 
1676 1 17.061 4.751 3 6.02329 -126600 -129248 -24961 104.219 6908.02 -33770.9 -7.41364 
1677 1 17.759 3.516 3 6.02329 -131434 -126386 -13490.6 -19102 12727.7 -41335.2 -7.41421 
1678 1 17.038 2.295 3 6.02587 -137246 -143661 -23601.7 12721.2 691.209 -37510.8 -7.41368 
1679 1 17.735 1.06 3 6.02413 -143949 -157175 -17712.7 -19170.5 8011.11 -41641.4 -7.41437 
12104 2 10.553 8.696 6.4 6.02705 -144005 -134724 -28423.6 -6602.08 33952.9 -41864.1 -7.41364 
12105 2 11.274 7.475 6.4 6.02241 -173543 -127841 -36155.9 19345.7 24801.7 -39496.5 -7.41344 
12106 2 10.576 6.24 6.4 6.02329 -135785 -122832 -33641.3 7766.14 28521.3 -45991.3 -7.41272 
12107 2 11.297 5.019 6.4 6.02329 -125928 -129355 -38998 23665.1 17639.7 -45658.4 -7.4127 
12108 2 10.599 3.784 6.4 6.02238 -178087 -123645 -38321.2 9207.09 19776.1 -48628.9 -7.4132 
12109 2 11.32 2.563 6.4 6.02537 -141182 -175699 -40543.2 -7538.32 8295.24 -50044.3 -7.41333 
12110 2 10.623 1.329 6.4 6.01884 -141270 -158717 -41217.7 -24230.9 8543.89 -49562.3 -7.41318 
12111 2 11.343 0.107 6.4 6.01916 -139585 -158026 -40107.6 -10065.8 -2240.68 -52302.5 -7.41322 
12287 2 13.389 8.723 6.4 6.02329 -125216 -131472 -30064.1 25266.2 21221.1 -34630.8 -7.41315 
12288 2 12.691 7.488 6.4 6.02238 -181834 -122643 -23480.7 9502.07 28001.6 -44326.8 -7.41395 
12289 2 13.412 6.267 6.4 6.02537 -140057 -178280 -32616 -5537.05 16477.1 -41718.9 -7.41374 
12290 2 12.715 5.033 6.4 6.01884 -145256 -158344 -28160.1 -23567.8 22174.7 -47638.5 -7.41371 
12291 2 13.435 3.811 6.4 6.02345 -139765 -160850 -33959.4 -8808.06 9591.1 -47244.5 -7.41368 
12292 2 12.738 2.577 6.4 6.02361 -136692 -140519 -32129.4 -39053.6 13637.1 -49366.7 -7.41356 
12293 2 13.459 1.355 6.4 6.01982 -173456 -129337 -33512.1 -10550.4 1238.15 -50836.3 -7.41345 
12294 2 12.761 0.121 6.4 6.02292 -135377 -158544 -34718.6 -10840.5 3630.37 -49298.8 -7.41324 
12470 2 14.807 8.737 6.4 6.01884 -148763 -157057 -13497.7 -23392.7 25504.3 -39740.7 -7.41447 
12471 2 15.527 7.515 6.4 6.02345 -139362 -162860 -27467.2 -7508.54 13779.3 -34484 -7.41387 
12472 2 14.83 6.281 6.4 6.02114 -140132 -139329 -18321.5 -38620.9 22461.4 -43403.4 -7.41428 
12473 2 15.551 5.059 6.4 6.01966 -171216 -131294 -28244.3 -8877.39 8896.48 -40820.5 -7.41382 
12474 2 14.853 3.825 6.4 6.02294 -138943 -159788 -22355.5 -9050.13 16718.9 -45636.5 -7.41386 
12475 2 15.574 2.604 6.4 6.02329 -126093 -132561 -27424.5 23617.6 2603.47 -45199.6 -7.41317 
12476 2 14.876 1.369 6.4 6.0232 -177691 -124815 -26156.5 7237.54 9057.78 -46218.6 -7.41393 
12477 2 15.597 0.148 6.4 6.02342 -139717 -140518 -25503.1 10333.3 -4265.54 -47741 -7.41333 
12653 2 17.643 8.763 6.4 6.01966 -171488 -129415 -23999.7 -7861.05 9745.38 -25392.3 -7.41416 
12654 2 16.945 7.529 6.4 6.02169 -134771 -125671 -8572.88 -26105.8 21086.9 -36888.5 -7.41425 
12655 2 17.666 6.307 6.4 6.0211 -123699 -134692 -24265.5 -8144.78 6905.8 -31715.4 -7.41334 
12656 2 16.968 5.073 6.4 6.02148 -187890 -157120 -13207.4 -9385.11 17753.9 -39284.5 -7.41491 
12657 2 17.689 3.852 6.4 6.02166 -136798 -147039 -23004.6 11084.7 2554.14 -36747.4 -7.41334 
12658 2 16.992 2.617 6.4 6.02397 -145829 -158211 -17659.6 2791.82 12474.7 -40307.8 -7.41438 
12659 2 17.712 1.396 6.4 6.02657 -145310 -157928 -20843.9 19792.8 -2716.72 -40129.1 -7.41422 
12660 2 17.015 0.161 6.4 6.02688 -146016 -154723 -21138.3 -747.502 6046.75 -39734.5 -7.41419 
1856 1 19.223 8.414 3 6.02179 -132375 -148134 -22713.7 43192.6 7527.09 -19138.4 -7.41359 
1857 1 19.92 7.18 3 6.02304 -156227 -189941 -597.847 -7462.51 14742.3 -31096.3 -7.41555 
1858 1 19.2 5.959 3 6.0204 -142055 -161046 -21924.8 -2494.02 4693.19 -24161.4 -7.41404 
1859 1 19.897 4.724 3 6.02522 -149501 -155308 -5580.74 -23794.6 13325.2 -33055 -7.41499 
1860 1 19.177 3.503 3 6.02269 -143742 -161101 -20043.5 -2145.67 398.039 -28155.7 -7.41401 
1861 1 19.874 2.268 3 6.02587 -140159 -142299 -10020.9 -6909.73 10495.6 -33783.4 -7.41437 
1862 1 19.153 1.047 3 6.02313 -128209 -125787 -17149 -1611.77 -4767.56 -31090.5 -7.41402 
2039 1 22.059 8.388 3 6.02179 -142010 -142353 6640.43 23024.8 13573.4 -23439.4 -7.4152 
2040 1 21.338 7.166 3 6.0211 -124068 -129007 -20472.5 29851.1 1613.24 -14505.9 -7.41397 
2041 1 22.036 5.932 3 6.02169 -132841 -126096 1821.8 9312.84 13471.3 -24713.9 -7.41498 
2042 1 21.315 4.71 3 6.02179 -133831 -147183 -18008.1 43023 -1185.83 -18266.9 -7.41382 
2043 1 22.012 3.476 3 6.02304 -153344 -191773 -3196.23 -8975.49 11931.4 -25231.3 -7.41541 
2044 1 21.292 2.255 3 6.02169 -145605 -160244 -15018.6 -1017.57 -4746.08 -21404.4 -7.41415 
2045 1 21.989 1.02 3 6.02589 -146673 -154515 -8187.8 -18908.2 9514 -24778.1 -7.41484 
2222 1 23.477 8.374 3 6.02486 -148933 -190311 -20505.3 13244 -1182.2 -6262.56 -7.41451 
2223 1 24.174 7.14 3 6.02023 -149559 -157211 8028.45 9504.21 13689.9 -17618.1 -7.41555 
2224 1 23.454 5.918 3 6.02215 -140104 -160140 -17889.5 29351.9 -3056.02 -9292.25 -7.41434 
2225 1 24.151 4.684 3 6.02241 -140648 -141376 2853.58 21651 13188.4 -17532.3 -7.41512 
2226 1 23.43 3.462 3 6.0211 -124433 -130407 -14300.6 29799.1 -5795.73 -12107 -7.41415 
2227 1 24.128 2.228 3 6.02292 -137714 -159634 -2423.57 -9077.51 11650.7 -16983.1 -7.41509 
2228 1 23.407 1.007 3 6.02294 -138061 -142956 -10119.5 10169 -8757.61 -14439.8 -7.41398 
2405 1 26.313 8.347 3 6.02329 -137029 -124124 13650.8 -22760.6 14584.5 -12779.8 -7.41533 
2406 1 25.592 7.126 3 6.02587 -134296 -141414 -19127.8 8215.49 -4824.46 -2442.12 -7.41386 
2407 1 26.289 5.891 3 6.02041 -147144 -158761 8057.03 -25614.8 14589.9 -11715.1 -7.41555 
2408 1 25.569 4.67 3 6.02487 -150661 -189314 -15135.7 13135.3 -6821.6 -4456.11 -7.41478 
2409 1 26.266 3.436 3 6.02023 -146800 -158093 2381.42 8756.43 13620.4 -10706.8 -7.41525 
2410 1 25.546 2.214 3 6.01937 -140181 -160883 -10583.4 29116.1 -9250.83 -6497.44 -7.41471 
2411 1 26.243 0.98 3 6.02489 -145006 -172057 -3345.18 5011.98 11957 -9356.72 -7.41511 
2588 1 27.731 8.334 3 6.02397 -139226 -156651 -21233 -1215.89 -5704.98 1561.01 -7.41414 
2590 1 27.707 5.878 3 6.02329 -125698 -125117 -17070.9 -314.925 -7627.49 469.265 -7.41398 
2592 1 27.684 3.422 3 6.02586 -136286 -140411 -12252.6 8119.78 -9790.82 -774.189 -7.41421 
2594 1 27.661 0.966 3 6.02519 -151886 -185366 -6927.25 11535.7 -12046.6 -2316.44 -7.41531 
12836 2 19.06 8.777 6.4 6.02151 -191060 -155300 301.244 -9327.6 18540.5 -29452.3 -7.4156 
12837 2 19.781 7.556 6.4 6.0204 -133714 -146687 -22026.6 13578.5 3896.92 -21525.7 -7.41363 
12838 2 19.084 6.321 6.4 6.02395 -148681 -156423 -4557.19 8164.42 17554.7 -31549.2 -7.41503 
12839 2 19.804 5.1 6.4 6.02413 -144989 -159268 -20162.8 22715.2 1148.97 -26604.7 -7.41399 
12840 2 19.107 3.865 6.4 6.02589 -149461 -155469 -9310.56 1014.11 14469.8 -32643.6 -7.4148 
12841 2 19.827 2.644 6.4 6.02398 -142204 -160742 -17814.7 21919.2 -2531.89 -30490.3 -7.41437 
12842 2 19.13 1.409 6.4 6.02602 -139786 -142330 -13679.8 -12195.7 9939.26 -32541.7 -7.41419 
12843 2 19.851 0.188 6.4 6.02313 -128429 -125816 -14244.6 22065 -6665.5 -32977.3 -7.41417 
13019 2 21.896 8.804 6.4 6.02413 -143322 -158496 -21495.7 22676.9 1137.99 -11843.3 -7.41392 
13020 2 21.199 7.569 6.4 6.02589 -152479 -153508 3207.2 1150.98 16366.9 -23839.5 -7.41544 
13021 2 21.919 6.348 6.4 6.02397 -140337 -160480 -19275 22362.7 -706.374 -16332.8 -7.41428 
13022 2 21.222 5.113 6.4 6.02587 -142705 -140652 -1544.58 -11829.7 15168.2 -24579.2 -7.4148 
13023 2 21.943 3.892 6.4 6.02329 -126716 -128512 -16488.1 21705.7 -3482.36 -20277.4 -7.41406 
13024 2 21.245 2.657 6.4 6.02329 -131394 -126516 -6440.01 851.819 12524.8 -24590 -7.41457 
13025 2 21.966 1.436 6.4 6.02587 -137698 -143205 -12511.4 8147.39 -6451.69 -23144.5 -7.41424 
13026 2 21.269 0.201 6.4 6.02301 -145653 -157414 -11079.6 1377.27 8802.56 -23472.8 -7.41445 
13202 2 23.314 8.817 6.4 6.02587 -145599 -138645 9710.59 -11870.5 15294.8 -17502.7 -7.41537 
13203 2 24.035 7.596 6.4 6.02329 -124736 -127506 -19898.5 21493.5 -2497.55 -7568.13 -7.41386 
13204 2 23.337 6.361 6.4 6.02329 -134350 -124526 5155.6 1031.16 15272.6 -17456 -7.41516 
13205 2 24.058 5.14 6.4 6.02587 -135399 -142869 -16651.9 8354.99 -4461.06 -10773.4 -7.41401 
13206 2 23.361 3.905 6.4 6.02397 -147314 -157409 -77.273 1133.71 13962.8 -16978.4 -7.41526 
13207 2 24.081 2.684 6.4 6.02589 -144719 -156851 -12600.8 20760.3 -6917.11 -13594.5 -7.41462 
13208 2 23.384 1.449 6.4 6.02185 -148194 -158633 -5254.43 1386.63 11670.1 -16101.2 -7.41463 
13209 2 24.104 0.228 6.4 6.0232 -150306 -190028 -7584.64 11106.3 -9371.59 -15646.3 -7.41517 
13385 2 26.15 8.844 6.4 6.02587 -133352 -141355 -21294.8 7616.47 -3506.34 -1124.62 -7.41375 
13386 2 25.453 7.609 6.4 6.02397 -150170 -155486 10813.2 1187.39 15446 -12281.3 -7.41581 
13387 2 26.173 6.388 6.4 6.02589 -142462 -155756 -17866.1 20361.2 -5291.24 -3378.01 -7.41432 
13388 2 25.476 5.153 6.4 6.02413 -152407 -154484 5336.93 1330.01 15210.6 -11115.5 -7.41529 
13389 2 26.196 3.932 6.4 6.02304 -141116 -158142 -13843.9 26992.8 -7413.59 -5641.81 -7.41453 
13390 2 25.499 2.697 6.4 6.02166 -139647 -143085 9.47405 -9264.11 13797 -9839.51 -7.41474 
13391 2 26.22 1.476 6.4 6.02294 -135057 -159544 -8850.75 9412.03 -9799.83 -7666.99 -7.41475 
13392 2 25.522 0.242 6.4 6.02078 -126407 -126650 -5425.5 -30756.4 11744.8 -8313.95 -7.41459 
13568 2 27.568 8.857 6.4 6.02657 -153455 -152401 15925.5 -468.066 16061.4 -9947.06 -7.41607 
13570 2 27.591 6.401 6.4 6.0231 -143967 -141943 10535.6 -11016 16382.7 -7795.87 -7.41502 
13572 2 27.614 3.946 6.4 6.0211 -130278 -127722 4773.6 -29126.6 15740.8 -5822.73 -7.41499 
13574 2 27.638 1.49 6.4 6.01905 -144225 -156959 -1479.42 -28758.2 14210.3 -3996.76 -7.4153 
2589 1 28.428 7.099 3 6.02586 -143947 -139065 12998.3 -8026.23 16519.3 -8745.29 -7.41552 
2591 1 28.405 4.643 3 6.02329 -134286 -124833 6926.04 -23170.1 15981.5 -6862.25 -7.41498 
2593 1 28.381 2.187 3 6.02072 -144396 -158917 628.318 -25831.3 14479.3 -5015.99 -7.41516 
2771 1 30.566 8.307 3 6.02397 -150153 -155179 17676.6 -21835.5 19300.5 -8687.68 -7.41615 
2772 1 29.846 7.086 3 6.02657 -142027 -153362 -19571.1 -180.635 -7494.45 2417.02 -7.4142 
2773 1 30.543 5.851 3 6.02657 -150815 -153200 11140.7 -20466.5 18753.9 -5889.79 -7.41581 
2774 1 29.823 4.63 3 6.02398 -141095 -155998 -14892.6 -1216.26 -9783.7 1974.58 -7.41446 
2775 1 30.52 3.395 3 6.02586 -141080 -139389 4666.42 -7965.9 17274.9 -3569.01 -7.41507 
2776 1 29.799 2.174 3 6.02329 -127988 -124117 -9434.02 -401.026 -12272.3 960.727 -7.41438 
2777 1 30.497 0.939 3 6.02343 -129464 -124974 -1715.42 -21912.5 15158.3 -1680.68 -7.41439 
2954 1 31.984 8.294 3 6.02329 -125369 -123526 -21963.2 -3606.24 -6448 1199.8 -7.41346 
2955 1 32.682 7.059 3 6.02329 -134328 -123586 15862.5 -21099.1 22203.2 -7928.4 -7.41567 
2956 1 31.961 5.838 3 6.02586 -134582 -138627 -17605.5 11873.8 -9047.46 1665.48 -7.41391 
2957 1 32.658 4.603 3 6.02398 -147329 -155588 8824.78 -21551.3 20601.9 -4903.46 -7.41568 
2958 1 31.938 3.382 3 6.02657 -144089 -152950 -12349.8 -186.873 -11846.7 1417.35 -7.41457 
2959 1 32.635 2.147 3 6.02673 -147895 -153144 2060.63 -19958.3 18237.6 -2500.26 -7.41533 
2960 1 31.915 0.926 3 6.02322 -143025 -153088 -6445.17 -2489.9 -14577.2 507.991 -7.41488 
3137 1 34.82 8.267 3 6.02486 -159171 -186866 20875.4 -7750.27 26260.5 -12416.2 -7.41662 
3138 1 34.1 7.046 3 6.02141 -139174 -157589 -19884 -4785.62 -7264.03 -1383.64 -7.4138 
3139 1 34.797 5.811 3 6.02587 -142636 -139207 13723.3 -7339.69 24539 -8823.31 -7.41553 
3140 1 34.076 4.59 3 6.02329 -125629 -123103 -14950.5 -1790.14 -10597 -885.447 -7.41405 
3141 1 34.774 3.355 3 6.02329 -131239 -123915 6318.37 -20438 21940.3 -5912.34 -7.41516 
3142 1 34.053 2.134 3 6.02587 -136889 -138421 -9297.69 11841.2 -13972.2 -1183.21 -7.41433 
3143 1 34.75 0.899 3 6.02413 -143667 -153359 -1031.4 -19438.8 18464.7 -3711.29 -7.41515 
3320 1 36.238 8.253 3 6.02179 -129647 -141294 -21278.3 39864 -4618.8 -6566.89 -7.41368 
3321 1 36.935 7.019 3 6.02303 -155617 -189927 18939 -8484.18 28907.6 -14601.3 -7.41651 
3322 1 36.215 5.798 3 6.0204 -140415 -154931 -17006.4 -5636.43 -8390.51 -5388.68 -7.41419 
3323 1 36.912 4.563 3 6.02522 -148907 -153780 11179.2 -24125 26048 -11286.7 -7.41578 
3324 1 36.192 3.342 3 6.02269 -142601 -155608 -11677.6 -4574.12 -12414.3 -5076.94 -7.41434 
3325 1 36.889 2.107 3 6.02587 -139464 -139402 3617.25 -6376.82 22308.4 -8790.36 -7.415 
3326 1 36.168 0.886 3 6.02313 -127552 -121189 -5255.63 -3078.6 -16525.3 -5671.93 -7.41454 
13569 2 28.288 7.636 6.4 6.02306 -139133 -156814 -20210.1 21084.1 -5310.83 1098.38 -7.41419 
13571 2 28.312 5.18 6.4 6.02292 -132433 -158666 -15697.9 8844.15 -7571.29 -258.825 -7.41437 
13573 2 28.335 2.724 6.4 6.02313 -135885 -141562 -10786.1 -21531.3 -9990.09 -1788 -7.41427 
13575 2 28.358 0.268 6.4 6.02055 -142927 -155220 -5350.12 -7732.01 -12354 -3430.64 -7.41495 
13751 2 30.404 8.884 6.4 6.02329 -123014 -123742 -22716.5 24842.6 -4420.84 2259.31 -7.41367 
13752 2 29.706 7.649 6.4 6.02327 -133893 -125533 15282.5 4057.28 18113.7 -7437.21 -7.41553 
13753 2 30.427 6.428 6.4 6.02487 -140882 -172964 -18502.7 -5170.47 -6889.23 1987.05 -7.41418 
13754 2 29.73 5.194 6.4 6.01659 -145431 -158390 8966.78 -28807.8 17734.9 -4618.4 -7.41569 
13755 2 30.45 3.972 6.4 6.02237 -142017 -154242 -13589.4 -9518.17 -9636.45 1200.94 -7.41464 
13756 2 29.753 2.738 6.4 6.02452 -148071 -154230 2708.46 -30162.9 16496.5 -2327.61 -7.41536 
13757 2 30.473 1.516 6.4 6.01691 -140606 -159427 -7854.84 -7787.14 -12449.9 -25.9933 -7.4147 
13758 2 29.776 0.282 6.4 6.02487 -145460 -170729 -3540.62 -26414 14606.2 -474.708 -7.41496 
13934 2 31.822 8.898 6.4 6.01659 -148648 -158113 20102.8 -28375.6 20586.3 -9881.85 -7.41615 
13935 2 32.542 7.676 6.4 6.02452 -139503 -153224 -20974.3 -10647.7 -5276.93 1090.26 -7.41424 
13936 2 31.845 6.442 6.4 6.02452 -150123 -153118 13639.2 -29818.5 20276.2 -6377.65 -7.41605 
13937 2 32.565 5.22 6.4 6.01659 -137717 -158778 -16394 -8850.56 -8512.22 1108.76 -7.41423 
13938 2 31.868 3.986 6.4 6.02486 -148626 -172292 6783.34 -25042.7 19098.5 -3429.2 -7.41549 
13939 2 32.589 2.765 6.4 6.02327 -125384 -126204 -10857.8 24106.6 -11975 476.837 -7.41415 
13940 2 31.891 1.53 6.4 6.02345 -130239 -123352 86.6808 5516.76 17125.5 -1157.17 -7.41485 
13941 2 32.612 0.309 6.4 6.02486 -139185 -137291 -4647.27 10301.3 -15278.3 -703.842 -7.41432 
14117 2 34.657 8.924 6.4 6.01659 -134712 -157740 -23054.9 -10202.8 -2730.68 -2578.58 -7.414 
14118 2 33.96 7.69 6.4 6.02487 -151314 -172173 18494.3 -24765.1 23411 -10668.6 -7.4161 
14119 2 34.681 6.469 6.4 6.02327 -122633 -125649 -18671.5 22949.4 -6542.57 -1810.29 -7.41374 
14120 2 33.983 5.234 6.4 6.02329 -132862 -123325 11461.4 5721.18 22130.6 -7130.52 -7.41543 
14121 2 34.704 4.013 6.4 6.02487 -136615 -139237 -13436.7 7963.22 -10549.8 -1695.31 -7.41386 
14122 2 34.007 2.778 6.4 6.02306 -146114 -155272 4150.27 1371.23 19992.1 -4304.55 -7.41542 
14123 2 34.727 1.557 6.4 6.02657 -144743 -152958 -7608.51 18976.5 -14613.3 -2328.51 -7.41481 
14124 2 34.03 0.322 6.4 6.02688 -146085 -150553 -2849.91 -1006.45 17202 -2320.68 -7.41505 
14300 2 36.075 8.938 6.4 6.02292 -142620 -157403 24439 -10923.2 27182.4 -16825.2 -7.41644 
14301 2 36.796 7.717 6.4 6.0231 -132608 -141581 -20129.6 7134.46 -3690.02 -6846.57 -7.41338 
14302 2 36.099 6.482 6.4 6.02306 -148848 -155705 16517.6 1692.87 25762.2 -12787.3 -7.41607 
14303 2 36.819 5.261 6.4 6.02657 -141710 -153021 -15569.7 17796.1 -8235.79 -6104.67 -7.41438 
14304 2 36.122 4.026 6.4 6.02657 -149284 -153231 8830.5 447.526 23359.7 -9562.98 -7.41566 
14305 2 36.842 2.805 6.4 6.02397 -140930 -155664 -9986.71 19530.6 -13048.7 -6179.74 -7.41467 
14306 2 36.145 1.57 6.4 6.02602 -139464 -138816 1591.43 -11755.6 20213.8 -7151.03 -7.41489 
14307 2 36.866 0.349 6.4 6.02313 -127520 -121733 -3327.07 20589.5 -17928.2 -7074.16 -7.41464 
3503 1 39.074 8.227 3 6.02179 -141835 -144424 25603.4 23170.1 33312.9 -21442.8 -7.41602 
3504 1 38.353 7.005 3 6.02169 -121982 -124105 -17820.5 26017 -5539.82 -11445.1 -7.41401 
3505 1 39.051 5.771 3 6.02169 -131236 -125904 17346.3 9963.53 30552.6 -18025.1 -7.41585 
3506 1 38.33 4.549 3 6.02179 -132047 -142598 -12995.5 39518 -10122.5 -10655.3 -7.41398 
3507 1 39.027 3.315 3 6.02303 -152276 -190529 9020.74 -7498.43 26559.2 -15211.7 -7.41598 
3508 1 38.307 2.094 3 6.0204 -142646 -155687 -7284.44 -5760.87 -14816.3 -10602.5 -7.41469 
3509 1 39.004 0.859 3 6.02505 -144992 -151983 1475.58 -21756.9 21711.6 -13176.1 -7.41526 
3686 1 40.492 8.213 3 6.02522 -139580 -153944 -17439.5 -7842.94 -2137.35 -17884.4 -7.41427 
3687 1 41.189 6.978 3 6.0204 -149329 -158614 24457.5 -21501.3 34977.2 -24989.2 -7.41636 
3688 1 40.469 5.757 3 6.02303 -145489 -190094 -13420.1 7981.69 -6981.63 -16894.1 -7.4148 
3689 1 41.166 4.523 3 6.02179 -137793 -144868 15654.6 24368.2 31063.7 -22189.6 -7.4156 
3690 1 40.445 3.301 3 6.0211 -123876 -125423 -8115.02 25778.1 -12438 -16564.1 -7.41451 
3691 1 41.143 2.067 3 6.02169 -128477 -126881 7628.19 11259.1 25998.1 -20037.5 -7.41522 
3692 1 40.422 0.845 3 6.02227 -133867 -141597 -1871.04 38030.5 -17932.9 -17032.3 -7.41455 
3869 1 43.328 8.186 3 6.02241 -182303 -127058 32693.8 -17081.1 38947.7 -31268.1 -7.41691 
3870 1 42.607 6.965 3 6.02519 -133000 -140700 -12507.6 8200.61 -3708.04 -22934.2 -7.41414 
3871 1 43.304 5.73 3 6.02141 -147054 -162808 23350.7 -20088.1 35371.4 -28754.7 -7.41605 
3872 1 42.584 4.509 3 6.02486 -148276 -189151 -7993.86 8881.54 -9360.39 -22501.1 -7.41509 
3873 1 43.281 3.275 3 6.02023 -144836 -160518 14666.2 12662.5 30416.5 -26638.8 -7.41583 
3874 1 42.561 2.053 3 6.02247 -140020 -158909 -2183.62 24923.7 -15429.6 -22592 -7.41507 
3875 1 43.258 0.819 3 6.02225 -135192 -141037 6941.12 26509.4 24341.6 -25177.9 -7.41525 
4052 1 44.745 8.173 3 6.0224 -170504 -126257 -10515.5 -3887.87 -523.448 -27865.3 -7.41464 
4053 1 45.443 6.938 3 6.02329 -133173 -131108 32322 -15925.9 39282.7 -34039 -7.41631 
4054 1 44.722 5.717 3 6.02329 -123724 -129060 -6342.15 -3891.04 -6162.37 -27587.4 -7.41427 
4055 1 45.42 4.482 3 6.02241 -180287 -128624 23118.6 -17939 34697.1 -32348.9 -7.41615 
4056 1 44.699 3.261 3 6.02519 -134333 -142509 -1245.42 2568.88 -12453.3 -27665.2 -7.41472 
4057 1 45.396 2.026 3 6.02072 -141883 -163253 14412.1 -20918.1 28718.8 -31005.3 -7.41583 
4058 1 44.676 0.805 3 6.02519 -150004 -188751 4627.82 7113.39 -19134.7 -28255.8 -7.41575 
14483 2 38.911 8.965 6.4 6.02413 -141134 -153887 -20434.7 18826.5 -358.733 -13125.3 -7.41388 
14484 2 38.214 7.73 6.4 6.02589 -152009 -154264 22894.3 973.934 29804.9 -19720.4 -7.4164 
14485 2 38.934 6.509 6.4 6.02398 -138240 -155979 -16455.6 18517 -5270.93 -12110.8 -7.41433 
14486 2 38.237 5.274 6.4 6.02587 -142149 -139952 14885.4 -11382.9 27279.9 -16238.6 -7.41558 
14487 2 38.958 4.053 6.4 6.02329 -124833 -124399 -11340.3 18199.3 -10747.4 -11698.2 -7.41422 
14488 2 38.26 2.818 6.4 6.02329 -130636 -124461 6856.95 2089.08 23805 -13462.1 -7.41517 
14489 2 38.981 1.597 6.4 6.02587 -136100 -139790 -5419.19 5223.61 -16280.7 -12003 -7.41452 
14490 2 38.284 0.362 6.4 6.02188 -143159 -156688 -754.079 3726.5 19463.7 -11563.4 -7.41478 
14666 2 40.329 8.978 6.4 6.02587 -144890 -141429 30143.7 -10629.3 34038.1 -26885.6 -7.41639 
14667 2 41.05 7.757 6.4 6.02329 -122504 -125243 -15999.5 17483.3 -2027.18 -18608.7 -7.41399 
14668 2 40.352 6.522 6.4 6.02329 -133466 -125900 21594.3 2651.69 31483.5 -23403 -7.41595 
14669 2 41.073 5.301 6.4 6.02586 -133133 -140672 -11673.9 4243.74 -7694.47 -17970.8 -7.41418 
14670 2 40.376 4.066 6.4 6.02398 -146194 -157484 13101.1 3295.1 27744.8 -20448.4 -7.41588 
14671 2 41.096 2.845 6.4 6.02589 -142575 -155034 -6292.87 16841.1 -13845 -17943 -7.41485 
14672 2 40.399 1.61 6.4 6.02185 -146782 -157613 5299.07 4158.72 23145 -18326.1 -7.41511 
14673 2 41.119 0.389 6.4 6.0232 -148360 -188878 17.7496 7570.19 -20066.4 -18642.6 -7.4155 
14849 2 43.165 9.005 6.4 6.02586 -131356 -141915 -14374.8 3949.73 1241.05 -24531.9 -7.41404 
14850 2 42.468 7.77 6.4 6.02397 -149050 -159228 29399.3 4058.18 35672 -30093 -7.41674 
14851 2 43.188 6.549 6.4 6.02589 -140122 -156170 -10735.2 16187.5 -4400.79 -24071.4 -7.41463 
14852 2 42.491 5.314 6.4 6.02413 -150953 -157043 20472.4 4515.53 32035.6 -27308.5 -7.41601 
14853 2 43.211 4.093 6.4 6.02303 -138635 -158635 -6124.04 22589.5 -10775.7 -23898 -7.41487 
14854 2 42.514 2.858 6.4 6.02166 -137884 -144629 12132.2 -5719.48 27229.2 -25021 -7.41531 
14855 2 43.235 1.637 6.4 6.02294 -132619 -160417 -146.152 5031.33 -17730.8 -24319.3 -7.41513 
14856 2 42.537 0.403 6.4 6.02078 -124344 -127429 4777.19 -26827.1 21606.1 -23508.2 -7.41505 
15032 2 44.583 9.018 6.4 6.02413 -153822 -158965 38328.8 5435.21 39415.3 -35513.1 -7.41697 
15033 2 45.303 7.797 6.4 6.02303 -136744 -160022 -8763.58 22338.4 -1249.31 -29104.6 -7.41474 
15034 2 44.606 6.562 6.4 6.02166 -140785 -146545 29005.2 -4952.72 36220.7 -33136.6 -7.4162 
15035 2 45.327 5.341 6.4 6.02295 -129952 -161893 -4442.88 4441.44 -7655.96 -29145.5 -7.41491 
15036 2 44.629 4.107 6.4 6.0211 -128255 -132020 20321.8 -24732.9 31567.1 -31085.6 -7.41575 
15037 2 45.35 2.885 6.4 6.02316 -132503 -144566 758.581 -26109.4 -14630.7 -29408.6 -7.41495 
15038 2 44.653 1.651 6.4 6.02152 -141855 -160500 11918.9 -24201.2 25625.5 -29365.2 -7.41593 