ITEM: TIMESTEP
64
ITEM: NUMBER OF ATOMS
1352
ITEM: BOX BOUNDS pp pp pp
0.0000000000000000e+00 3.1928000000000001e+01
0.0000000000000000e+00 5.5300918199999998e+01
0.0000000000000000e+00 1.5000000000000000e+01
ITEM: ATOMS id type x y z c_csym c_2[1] c_2[2] c_2[3] c_2[4] c_2[5] c_2[6] c_3 
47 1 1.05311 8.56072 2.92376 6.00955 -173806 -126078 -28165.4 -36917.4 18459.2 -6999.88 -7.41377 
48 1 0.29729 7.36136 2.91132 6.0171 -144237 -154270 17502.2 -26595.6 35795.5 -5700.77 -7.41612 
49 1 0.956949 6.10617 2.89985 6.0146 -165040 -133368 -10368.7 -19114.8 16303.9 -7052.48 -7.41402 
50 1 0.19968 4.90758 2.88965 6.02333 -144021 -153817 4538.68 -11153.8 20698.1 -3772.14 -7.41455 
51 1 0.85839 3.65195 2.88209 6.02228 -156546 -140264 -1650.03 -6523.55 9445.46 -5576.38 -7.4139 
52 1 0.100229 2.45381 2.87609 6.02823 -145310 -151084 1412.64 -2434.49 7855.61 -1877.9 -7.41385 
53 1 0.7585 1.19797 2.87311 6.02892 -150406 -145657 1362.23 -1191.26 2597.97 -3074.01 -7.41374 
54 1 1.93576e-07 -3.1533e-06 2.87163 6.0313 -147957 -147948 1637.47 17.9313 0.100692 0.00999533 -7.4137 
93 1 2.46996 8.50326 2.92648 6.00646 -166322 -133098 19873.7 -32005.9 40257.1 -7145.09 -7.41694 
94 1 3.12963 7.24784 2.91639 6.01016 -185796 -114006 -7388.22 -27562 16887.9 -20808.6 -7.41468 
95 1 2.37374 6.04849 2.90282 6.01426 -157699 -141692 3651.4 -13253.3 27139.8 -8301.82 -7.41505 
96 1 3.03251 4.79275 2.89558 6.01648 -170409 -127562 736.459 -10961.8 13048 -17692.7 -7.41449 
97 1 2.27513 3.59418 2.8851 6.02168 -151427 -146092 -1017.29 -549.376 12276.7 -7540.73 -7.41408 
98 1 2.93344 2.33829 2.88212 6.02447 -157730 -139351 2133 -2172.17 5993.08 -12872.4 -7.41412 
99 1 2.17522 1.14015 2.87608 6.02625 -148567 -147833 191.369 4349.4 1518.59 -6355.68 -7.41379 
138 1 5.30041 8.3913 2.93743 6.00586 -206764 -92213.9 7628.53 -33606.5 13564.8 -33337.9 -7.41624 
139 1 4.54635 7.19086 2.92276 6.0029 -177521 -123599 -5532.45 -14128.9 31596.2 -8969.68 -7.41531 
140 1 5.20526 5.93499 2.91667 6.01131 -188652 -109868 13384.5 -12743.1 15798.9 -31643.2 -7.41593 
141 1 4.44921 4.73562 2.90277 6.01246 -164077 -135309 -9769.65 3980.95 17763.5 -12106.1 -7.41425 
142 1 5.10761 3.47966 2.90004 6.0187 -170787 -127504 9766.07 951.26 11321.1 -26615 -7.41521 
143 1 4.35012 2.28105 2.88957 6.01881 -154351 -143216 -5853.94 12885.3 4256.88 -13220.9 -7.41394 
144 1 5.00843 1.02517 2.89112 6.02042 -155281 -142962 2266.65 5519.62 4182.31 -20522.7 -7.4145 
183 1 6.71708 8.33542 2.94485 5.99596 -197513 -102901 -26099.7 -15645.5 30571.1 -3558.09 -7.41491 
184 1 7.37629 7.07951 2.94091 6.00434 -203165 -91108.8 38602.6 -12734.3 14528.3 -41136.3 -7.41831 
185 1 6.6219 5.87906 2.9263 6.00381 -180806 -119417 -28038.5 9690.26 20756.2 -11995.5 -7.41401 
186 1 7.28054 4.62308 2.92434 6.01285 -185416 -111438 29677 7841.24 15788.6 -39218.8 -7.41729 
187 1 6.52423 3.42366 2.91102 6.01093 -165969 -133471 -19397.8 25666.1 7140.16 -17604.5 -7.41389 
188 1 7.18269 2.16778 2.91258 6.01305 -167343 -132170 13512 17745.6 11096.7 -34009.3 -7.41599 
189 1 6.42507 0.969063 2.90276 6.01342 -153743 -145078 -5740.14 30718.2 -5439.32 -21349.3 -7.41435 
228 1 9.54584 8.22642 2.96205 5.99876 -204435 -79283.1 70877.1 -13755 8334.27 -40341.9 -7.42121 
229 1 8.79291 7.02497 2.94993 6.00153 -193547 -103643 -56667.3 12001.6 18564.7 -6690.83 -7.41313 
230 1 9.45211 5.76917 2.94928 6.00721 -192086 -96711.9 60714.3 14554.9 16912.5 -43289 -7.42016 
231 1 8.69712 4.56879 2.93608 6.00779 -178531 -120749 -43317.2 37775.4 7380.55 -16004.6 -7.41332 
232 1 9.35595 3.31303 2.93766 6.00701 -177902 -118275 37538.7 33229.2 17295.7 -41657.9 -7.41841 
233 1 8.59926 2.11355 2.92615 6.0094 -164085 -136127 -20838.7 50824.9 -5900.72 -23092.8 -7.41422 
234 1 9.25821 0.858038 2.93097 6.00095 -160286 -140530 8426.63 38927 13199.7 -36367.2 -7.41647 
681 2 0.363438 8.61668 6.47566 6.01285 -136524 -160231 29675.8 35824.5 41858.1 5935.65 -7.41729 
682 2 0.459673 6.16315 6.49996 6.01868 -139166 -159194 9765.43 19165.9 28709.4 3503.77 -7.41521 
683 2 0.558297 3.70957 6.51788 6.02452 -142065 -154969 2132.94 6882.49 14144.6 1246.06 -7.41412 
684 2 0.65822 1.25586 6.52689 6.02896 -145822 -150303 1362.14 1430.61 3961.35 -712.696 -7.41374 
685 2 -5.80469e-08 -2.02263e-06 6.52837 6.03133 -147963 -147975 1637.5 -6.87605 0.104602 0.0796019 -7.4137 
723 2 1.78047 8.67427 6.4737 6.00378 -143151 -156998 -28038.2 31596.5 20766.4 -11977.8 -7.41402 
724 2 2.53722 7.47539 6.48333 6.01129 -118449 -180005 13384 27644.8 35303 2138.25 -7.41593 
725 2 1.87657 6.22094 6.49723 6.01245 -146069 -153385 -9769.83 14558.4 19365.9 -9330.44 -7.41425 
726 2 2.63438 5.02261 6.50442 6.01641 -128894 -169250 736.609 13041.1 21847.1 -2453.25 -7.41449 
727 2 1.97509 3.76741 6.5149 6.02165 -146984 -150595 -1017.33 2036.6 12668.7 -6861.57 -7.41408 
728 2 2.73348 2.56936 6.51791 6.02223 -138780 -158134 -1649.98 3777.68 9552.45 -5391.45 -7.4139 
729 2 2.07495 1.31371 6.52391 6.02819 -147557 -148886 1412.52 -3734.72 5553.89 -5864.24 -7.41385 
730 2 2.83346 0.115715 6.52242 6.02593 -147914 -148685 359.568 385.157 1051.81 -8438.16 -7.41386 
768 2 4.61688 8.78594 6.46257 6.00586 -91794.3 -207241 7628.22 32704.7 35654.5 4921.35 -7.41624 
769 2 3.9543 7.53269 6.47724 6.00292 -124910 -176222 -5532.76 16352.1 23565.4 -22879.2 -7.41531 
770 2 4.712 6.33425 6.48361 6.01017 -108168 -191708 -7388.05 17334.6 26464.8 -4221.41 -7.41468 
771 2 4.05127 5.07996 6.49718 6.01425 -134303 -165219 3651.53 257.213 20760.4 -19352.3 -7.41505 
772 2 4.80962 3.88183 6.50015 6.0146 -124802 -173708 -10368.4 4181.09 14260.5 -10592.9 -7.41402 
773 2 4.15025 2.62672 6.51035 6.02335 -141758 -156156 4538.76 -9938.22 13616.8 -16039.4 -7.41455 
774 2 4.90877 1.42865 6.50892 6.0178 -140486 -157451 -5546.44 -3404.52 3893.09 -15292.6 -7.41404 
775 2 4.25016 0.173032 6.51488 6.02125 -147782 -149398 383.803 -14126.3 5651.79 -14064.6 -7.41411 
813 2 6.03418 8.84247 6.4551 5.99581 -97490.9 -202630 11064.3 17747 21948.8 -33002.7 -7.41719 
814 2 6.79164 7.64385 6.46001 6.0096 -85560.8 -214779 -26413.8 19403.7 25097.4 -1442.8 -7.41434 
815 2 6.12906 6.39068 6.47352 6.00642 -113715 -185856 19874.3 -1681.7 26316.3 -31289.9 -7.41694 
816 2 6.88724 5.19238 6.47624 6.00953 -106204 -193784 -28164.9 2357.53 15292.9 -12486.1 -7.41377 
817 2 6.22648 3.93814 6.48868 6.01712 -128643 -169806 17501.9 -17815.1 22835.3 -28150 -7.41612 
818 2 6.98496 2.73993 6.48758 6.00919 -127834 -171904 -19228.2 -10799.4 4567.18 -20685.5 -7.41401 
819 2 6.32549 1.48487 6.49708 6.01518 -141884 -156428 7819.8 -27574.8 15271.8 -24644.4 -7.41516 
820 2 7.0838 0.28653 6.49159 6.00958 -148453 -151670 -4055.61 -17872.8 -4138.16 -27518.1 -7.41483 
858 2 8.87321 8.9514 6.43974 6.0117 -71733.7 -225152 -55460.2 20682.1 18615.5 4466.74 -7.41337 
859 2 8.20891 7.69918 6.4496 6.00158 -91276.3 -202218 47894.6 -1515.77 24633.4 -37434.5 -7.41959 
860 2 8.96663 6.50054 6.45191 6.01043 -90573 -207376 -56375.9 -469.092 12181.2 -8952.3 -7.41292 
861 2 8.30425 5.24723 6.46318 6.0118 -111148 -183192 43325.3 -24395.4 28359.4 -36166.4 -7.41864 
862 2 9.06248 4.04874 6.46279 6.00393 -113851 -185185 -43397.4 -20233.9 2187.84 -20013.7 -7.41344 
863 2 8.40176 2.79444 6.47323 6.00922 -131018 -165780 27547.4 -41819.3 25104.9 -32993.3 -7.41716 
864 2 9.16001 1.59587 6.46908 6.00009 -138473 -162656 -20239.5 -33774.9 -6825.43 -28949.2 -7.41472 
865 2 8.50044 0.340846 6.47714 6.00928 -148794 -150611 4637.59 -51330.7 17273.4 -28557.3 -7.41559 
903 2 10.2906 9.00586 6.43133 5.9999 -77726.8 -203980 79685.8 3333.14 14636.1 -35319.6 -7.42232 
905 2 10.3838 6.554 6.44025 6.00772 -97027.4 -186264 76599.2 -25220.9 26029.8 -35614.5 -7.42166 
907 2 10.4794 4.10139 6.44907 6.00274 -119450 -169386 58145.7 -51224.1 30146.8 -33489.3 -7.41996 
909 2 10.5767 1.64803 6.45468 6.0017 -141427 -154677 27467.9 -69056.9 27757.5 -29466.7 -7.41774 
273 1 10.9625 8.17294 2.96788 6.00649 -193836 -96326.2 -88797.5 7347.81 12374.5 -703.247 -7.41183 
274 1 11.6227 6.91763 2.9688 6.0055 -183719 -91459.1 93460.1 16297.8 13852.4 -35641.4 -7.42312 
275 1 10.8687 5.71649 2.95841 6.0114 -182646 -111682 -75212.7 42122.6 4556.94 -9908.65 -7.41221 
276 1 11.5283 4.46109 2.96001 6.00419 -178012 -108217 69779 44831 20898.8 -38191.6 -7.42131 
277 1 10.7725 3.26087 2.94957 6.0125 -171905 -126848 -47016 66110.1 -7730.56 -17749.3 -7.41348 
278 1 11.4319 2.00557 2.95312 5.99589 -168306 -128090 33069.4 60044 21217.2 -36135.3 -7.41883 
279 1 10.6748 0.806044 2.94473 6.00591 -158966 -140961 -10102.7 74845.5 -19779 -24194.9 -7.41544 
318 1 13.7931 8.06732 2.97987 6.0096 -160195 -101709 117036 10971 7373.01 -19311.6 -7.42529 
319 1 13.0395 6.86592 2.97336 6.01718 -172678 -113885 -104808 35193.8 1075.53 -3677.48 -7.411 
320 1 13.7002 5.61116 2.97484 6.00362 -163128 -109292 99213.7 46591 20776.6 -24055.4 -7.42385 
321 1 12.945 4.4105 2.96726 6.01591 -168714 -124257 -78400.8 68761.6 -9284.87 -8931.41 -7.41231 
322 1 13.6051 3.15562 2.96928 5.99471 -165110 -121873 63302.4 72435.2 26495.6 -25505.9 -7.42131 
323 1 12.8485 1.9556 2.96265 6.00393 -163753 -133782 -36477.4 88175.9 -21466.1 -13541.3 -7.41459 
324 1 13.5086 0.700808 2.96589 5.99209 -160410 -135959 14580.7 82583.6 26616.9 -23029.3 -7.41817 
363 1 15.21 8.01571 2.97993 6.02455 -149510 -131059 -121805 19007 -753.772 -7.48632 -7.41023 
364 1 15.8723 6.7618 2.9809 6.00637 -136676 -125415 116426 37200.5 17283.4 -3912 -7.42529 
365 1 15.117 5.56116 2.97643 6.01603 -151965 -134054 -103205 56809.3 -8454.84 -930.832 -7.41124 
366 1 15.7782 4.30687 2.97666 5.99528 -148496 -127847 88308 70641.5 27849.9 -7254.51 -7.42314 
367 1 15.0218 3.10672 2.97262 6.00376 -156764 -136139 -65463.2 85149.4 -20095.9 -1845.65 -7.41337 
368 1 15.6824 1.85222 2.97308 5.9915 -157252 -133091 42494.7 91028.8 31595.6 -8289.02 -7.42004 
369 1 14.9252 0.652388 2.97081 5.99571 -158629 -137329 -13305.4 97517.6 -29593.2 -2544.86 -7.41642 
407 1 17.3812 9.16443 2.97993 6.02459 -119214 -161378 -121804 -1542.91 383.638 -649.064 -7.41023 
408 1 18.045 7.91149 2.97987 6.00962 -106777 -155083 117036 19880.6 13036.8 16041 -7.42528 
409 1 17.2893 6.71129 2.9776 6.01661 -125996 -157218 -112958 34119.5 -4498.83 3632.67 -7.4107 
410 1 17.9517 5.45772 2.97563 5.99987 -123743 -147062 99663.2 55214.5 26090.3 13432.4 -7.4238 
411 1 17.1951 4.25782 2.97378 6.00463 -138254 -151156 -85179 66635.7 -14682.7 7100.43 -7.41231 
412 1 17.8564 3.00372 2.97123 5.99444 -142394 -142549 64053.3 82907.6 32410.6 10434.6 -7.42118 
413 1 17.0991 1.80401 2.97112 5.99606 -151527 -143788 -39814.9 87063.2 -24828.2 10330.8 -7.41499 
414 1 17.7597 0.549565 2.96882 5.99446 -155746 -139127 14210.3 96310.8 31882.2 8148 -7.41795 
452 1 20.2185 9.05915 2.97484 6.00362 -82466.4 -189997 99214.5 98.5161 10444.9 30020.5 -7.42385 
453 1 19.4622 7.85956 2.97336 6.01717 -98006.6 -188473 -104809 7810.88 2646.55 2769.67 -7.411 
454 1 20.1258 6.60675 2.9688 6.0055 -100530 -174677 93461.4 31904.3 23940.1 29816.4 -7.42312 
455 1 19.3688 5.40736 2.96788 6.00646 -114228 -175882 -88799.2 38469.3 -5577.59 11068.2 -7.41183 
456 1 20.0308 4.15373 2.96205 5.99876 -122685 -161138 70878.4 61241.6 30770.8 27388.4 -7.42121 
457 1 19.2732 2.95443 2.96315 5.99762 -134775 -160800 -55924 62799.2 -15763 18204.7 -7.41375 
458 1 19.934 1.70014 2.95744 5.99713 -143907 -149792 33877.4 80996.7 30858.8 23610.7 -7.41861 
459 1 19.1764 0.500757 2.96132 5.9924 -153774 -144919 -10616.4 75348.4 -22770.5 24584.8 -7.41648 
904 2 11.0475 7.80668 6.4331 6.01631 -87038.9 -204175 -88490.9 -638.399 7290.54 -2944.37 -7.41171 
906 2 11.1414 5.35501 6.44087 6.00605 -106239 -187513 -75399.3 -27432.7 -1105.25 -13633.4 -7.41229 
908 2 11.2373 2.90243 6.44708 5.99734 -129824 -168313 -47356.6 -49057.8 -10950.3 -22651.7 -7.41388 
910 2 11.3345 0.448918 6.44942 5.99363 -151990 -148286 -8820.18 -60749.5 -17874.5 -30393.2 -7.4162 
948 2 13.129 9.11184 6.42266 6.02109 -100571 -183144 -112859 5045.02 2774.56 1437.49 -7.41067 
949 2 12.4648 7.85931 6.42475 6.00746 -94791.4 -173916 105978 -17667.7 16257.1 -26178.8 -7.4243 
950 2 13.2211 6.65959 6.42634 6.01308 -111544 -174495 -104919 -27503.2 -2540.62 -6096.97 -7.41104 
951 2 12.5584 5.40627 6.43052 6.00058 -114462 -161233 90418.5 -50713.7 27600.7 -24422 -7.42288 
952 2 13.3155 4.20675 6.43106 6.00228 -128564 -162953 -78865.8 -57528 -12547.4 -12414.2 -7.41253 
953 2 12.6542 2.95275 6.43583 5.99578 -136255 -151316 57990.5 -77066.8 32197.4 -21217.8 -7.42044 
954 2 13.4117 1.75329 6.43415 5.995 -146920 -149813 -36600.2 -77004.1 -21917.1 -18115.9 -7.41504 
955 2 12.7512 0.498799 6.43847 5.99669 -153630 -142488 12736.9 -90580.2 30014.6 -17552 -7.41748 
993 2 14.5463 9.16446 6.41787 6.01212 -108868 -149421 122560 -2074.77 2650.1 -11338.8 -7.42581 
994 2 15.3011 7.96386 6.42004 6.02262 -130814 -149652 -121818 -17694.7 -1573.04 -1066.53 -7.41023 
995 2 14.6383 6.71041 6.42036 6.00508 -121438 -141969 113893 -38505.1 19254.4 -8816.78 -7.42503 
996 2 15.3941 5.51014 6.42328 6.0119 -138350 -147177 -103313 -54202.8 -9430.88 -3308.8 -7.41128 
997 2 14.7325 4.25616 6.42467 5.99554 -138128 -138686 86480 -71645.5 29513.2 -5661.92 -7.42289 
998 2 15.4893 3.05623 6.4267 6.00086 -149128 -143352 -65612.1 -82012.7 -20664 -5203.92 -7.41346 
999 2 14.8284 1.80189 6.42815 5.99296 -152367 -137813 41609.4 -92751.5 32934.3 -3494.67 -7.41982 
1000 2 15.5857 0.60213 6.42818 5.99401 -157208 -138480 -13168.9 -94883.4 -29144.2 -7107.52 -7.41658 
1039 2 16.7182 8.01526 6.41787 6.01213 -141054 -117237 122560 -16504.2 8493.92 7965.31 -7.42581 
1040 2 17.4724 6.81417 6.42266 6.02109 -158188 -125608 -112860 -38212.8 -2632.26 1683.96 -7.41067 
1041 2 16.811 5.55985 6.4217 6.00083 -149442 -119872 104107 -53171 22568.8 12193.6 -7.42431 
1042 2 17.5666 4.35934 6.42717 6.01161 -159520 -130851 -84891.3 -72519.6 -12971 4109.39 -7.41218 
1043 2 16.906 3.10477 6.42618 5.99271 -157724 -126954 66764.5 -80421.9 29354.6 14245.7 -7.42165 
1044 2 17.6628 1.90477 6.43058 6.00079 -160488 -135434 -39702.4 -93025.8 -24619.6 6249.79 -7.41474 
1045 2 17.0024 0.650169 6.42893 5.9922 -159195 -135594 15131 -92060.3 30004.8 13207.2 -7.41833 
1084 2 19.5501 8.12005 6.42634 6.0131 -182552 -103319 -104920 -13459.7 6550.8 847.319 -7.41104 
1085 2 18.8892 6.86517 6.42475 6.00746 -169394 -99230.2 105979 -25463.9 14542.9 27168.7 -7.4243 
1086 2 19.6435 5.66406 6.4331 6.01628 -175417 -115729 -88492.4 -50330.4 -1095.04 7785.72 -7.41171 
1087 2 18.9834 4.40903 6.43133 5.99992 -169552 -112289 79687 -56379.6 23268.8 30335.2 -7.42232 
1088 2 19.7393 3.20872 6.43974 6.01172 -168936 -127909 -55461.4 -76621.8 -13175.5 13888.3 -7.41337 
1089 2 19.0794 1.95371 6.43668 5.99346 -165607 -128285 38130.7 -73679.7 25232.2 29253.8 -7.41953 
1090 2 19.8365 0.754 6.4433 6.00135 -159526 -139126 -11449.1 -86956 -24515.9 19118.8 -7.41582 
1129 2 20.9668 8.17279 6.43052 6.00059 -193387 -82304 90419.5 5034.61 7349.14 36113.5 -7.42288 
1131 2 21.0602 5.71565 6.44025 6.0077 -185641 -97551.5 76599.6 -26077.9 17828.3 40350.1 -7.42166 
1133 2 21.1559 3.25954 6.4496 6.0016 -175765 -117675 47895.7 -47386.3 20102.7 40050 -7.41959 
1135 2 21.2531 0.804517 6.45509 5.99578 -160862 -139037 11065.3 -54387.9 17607.6 35508.4 -7.41719 
497 1 21.6359 9.00543 2.96726 6.01591 -75820.4 -217142 -78401.6 -15220 12376.7 -3575.77 -7.41231 
498 1 22.3004 7.75327 2.96001 6.00416 -86937.4 -199268 69779.7 7848.07 22625.5 37195.4 -7.42131 
499 1 21.543 6.55436 2.95841 6.01143 -92986.8 -201485 -75211.8 9549.63 6302.78 8900.64 -7.41221 
500 1 22.2057 5.30118 2.94928 6.00721 -108162 -180790 60715.2 34235.9 29034.7 36290.5 -7.42016 
501 1 21.4477 4.1024 2.94992 6.00151 -115730 -181530 -56667.8 32770.6 -3486.96 19422.3 -7.41313 
502 1 22.1088 2.8483 2.94091 6.00434 -130252 -163968 38602.9 55075 28361.2 33149.5 -7.41831 
503 1 21.3508 1.64945 2.94485 5.99598 -140012 -160315 -26099.9 48672.3 -12204.3 28254.8 -7.4149 
504 1 22.0107 0.394637 2.93743 6.00584 -149988 -148945 7627.98 66490.8 22089 28416 -7.41624 
542 1 24.4752 8.89754 2.95312 5.9959 -86171.1 -210200 33068.6 -12639.4 20686 36443.1 -7.41883 
543 1 23.7177 7.69884 2.94957 6.01252 -80810.4 -217911 -47016.1 -13711.4 19236.2 2180.55 -7.41348 
544 1 24.3809 6.44598 2.93766 6.00698 -104471 -191698 37539.2 9248.38 27428 35807.6 -7.41842 
545 1 23.6228 5.24754 2.93608 6.00779 -102495 -196893 -43317.1 5949.07 10171.4 14394.8 -7.41332 
546 1 24.284 3.99359 2.92434 6.01286 -123225 -173597 29676 28287.6 26070.1 33283.3 -7.41729 
547 1 23.5256 2.7952 2.9263 6.00383 -126267 -173947 -28038.9 21571.1 9.19011 23973.1 -7.41401 
548 1 24.1855 1.54039 2.91667 6.01132 -140572 -157863 13385 40596.4 19503 29503.6 -7.41593 
549 1 23.4274 0.341827 2.92276 6.00288 -149266 -151898 -5532.08 30403.4 -8030.43 31847.7 -7.41531 
587 1 25.8925 8.84162 2.94473 6.0059 -80653.2 -219306 -10103.3 -29643.9 30843.2 -5031.6 -7.41544 
588 1 26.5558 7.58882 2.93097 6.00094 -111719 -189070 8427.17 -10938.9 24894.2 29615.7 -7.41647 
589 1 25.798 6.39041 2.92615 6.0094 -99049.8 -201190 -20839.1 -13391.5 22948.9 6436.13 -7.41422 
590 1 26.4593 5.1365 2.91258 6.01301 -125523 -173857 13512.8 6480.89 23904.4 26614 -7.41599 
591 1 25.7009 3.93832 2.91102 6.01092 -119265 -180128 -19398 1193.68 11676.3 14985.1 -7.41389 
592 1 26.3607 2.68349 2.90004 6.01865 -137581 -160806 9766.11 18334.8 17389.1 23112.7 -7.41521 
593 1 25.6022 1.48532 2.90277 6.01244 -138984 -160412 -9770.11 10353.7 1602.05 21436.9 -7.41425 
594 1 26.2611 0.229864 2.89558 6.0165 -147840 -150221 736.419 24019.1 8799.02 20146.5 -7.41449 
632 1 28.7301 8.73074 2.93092 6.00007 -127185 -173775 -20239.5 -27502.4 21657.5 20386.7 -7.41472 
633 1 27.973 7.53202 2.92286 6.00928 -105705 -193683 4637.88 -26330.8 33368 -680.837 -7.41559 
634 1 28.6342 6.27801 2.90841 6.00961 -135421 -164813 -4055.8 -10336.1 21762 17342.1 -7.41483 
635 1 27.8762 5.07974 2.90276 6.0134 -120557 -178220 -5740.06 -11643.6 21208.5 5964 -7.41435 
636 1 28.536 3.82484 2.89112 6.02044 -141306 -156978 2266.26 2624.92 15682.7 13883.7 -7.4145 
637 1 27.7775 2.62679 2.88957 6.01885 -134793 -162759 -5854.31 -1676.65 9320.78 10296.6 -7.41394 
638 1 28.4363 1.37129 2.88212 6.02447 -145783 -151200 2133.02 9083.5 8151.23 11626.5 -7.41412 
639 1 27.6778 0.17323 2.8851 6.02168 -147931 -149612 -1017.65 2621.9 392.476 14402.1 -7.41408 
669 1 30.1472 8.67336 2.92677 6.00922 -120906 -175861 27547.7 -35775.7 41125.8 -5245.76 -7.41716 
670 1 30.8084 7.41912 2.91242 6.00917 -151518 -148311 -19228.3 -24545.8 20199.2 6387.58 -7.41401 
671 1 30.0512 6.22047 2.90292 6.01517 -128970 -169385 7819.59 -19968.1 28979.1 -903.749 -7.41516 
672 1 30.7109 4.96545 2.89108 6.01778 -150298 -147731 -5546.63 -9093.32 15190.9 4274.1 -7.41404 
673 1 29.9528 3.76727 2.88512 6.02116 -136797 -160414 383.653 -7752.8 15006.6 2138.19 -7.41412 
674 1 30.6115 2.51171 2.87758 6.02596 -148822 -147761 359.592 -150.692 7833.76 3308.57 -7.41386 
675 1 29.853 1.31372 2.87608 6.02616 -144216 -152106 191.586 -1877.35 4744.28 4493.15 -7.41379 
676 1 30.5113 0.0578982 2.87311 6.02888 -147938 -148114 1362.35 2626.82 1363.35 3786.94 -7.41374 
1130 2 21.7198 6.97119 6.44086 6.00609 -191054 -102706 -75399.4 -21264.3 12359.7 5859.83 -7.41229 
1132 2 21.8151 4.51506 6.45191 6.01041 -178683 -119297 -56376.6 -50174.7 1661.49 15024.8 -7.41292 
1134 2 21.9124 2.0598 6.46001 6.00961 -165598 -134524 -26413.9 -65574.6 -11298.3 22457.3 -7.41433 
1174 2 23.7958 8.2806 6.44708 5.99733 -201277 -96839.2 -47356.1 7998.76 25092.3 1842.76 -7.41388 
1175 2 23.1364 7.02475 6.44907 6.00273 -201211 -87652.1 58144.9 3819.42 13929.2 42852 -7.41996 
1176 2 23.8905 5.82397 6.46279 6.00392 -185028 -114089 -43397.2 -20604.9 16238.7 11902 -7.41344 
1177 2 23.2316 4.56808 6.46318 6.01177 -186203 -108142 43325.7 -19189.8 17141.7 42642.8 -7.41864 
1178 2 23.9877 3.36834 6.47624 6.00957 -169955 -129993 -28165.4 -38969.5 3167.04 19486.2 -7.41377 
1179 2 23.329 2.11258 6.47352 6.00645 -169138 -130194 19874.2 -30471.1 13941 38436 -7.41694 
1180 2 24.0864 0.913581 6.48361 6.01015 -155748 -143941 -7388.39 -44872.7 -9576.13 25029.9 -7.41468 
1219 2 25.2124 8.3357 6.45468 6.00171 -211064 -84917.6 27467.2 28583.2 11641.7 38770.9 -7.41774 
1220 2 25.9659 7.13487 6.46908 6.00002 -185830 -115099 -20239 6505.21 28484.1 8562.47 -7.41472 
1221 2 25.3071 5.87891 6.47322 6.00922 -193250 -103576 27548.4 5701.57 16019.6 38238.8 -7.41716 
1222 2 26.0627 4.67919 6.48758 6.00917 -170288 -129485 -19228.2 -13555.5 15630.6 14298.6 -7.41401 
1223 2 25.4042 3.42322 6.48868 6.0171 -174935 -123656 17502.3 -9049.21 12960.3 33850.9 -7.41612 
1224 2 26.1614 2.22434 6.50015 6.01457 -157913 -140659 -10368.8 -23185.2 2043.39 17646.6 -7.41402 
1225 2 25.503 0.968521 6.49718 6.01425 -157181 -142300 3651.67 -13547 6380.3 27655.6 -7.41505 
1264 2 28.042 8.44686 6.46903 6.00098 -179153 -121527 8426.89 28018.7 38095.6 6751.56 -7.41647 
1265 2 27.3826 7.19117 6.47714 6.00929 -194453 -104799 4637.34 24891.8 16094.7 29237.5 -7.41559 
1266 2 28.138 5.99148 6.49159 6.0096 -166379 -133815 -4055.77 7567.68 25900.1 10175 -7.41483 
1267 2 27.4793 4.7356 6.49708 6.0152 -176606 -121701 7819.36 7418.48 13707.2 25548.6 -7.41516 
1268 2 28.2364 3.5368 6.50892 6.0178 -156116 -141789 -5546.45 -5606.24 11297.6 11018.2 -7.41404 
1269 2 27.5781 2.28086 6.51035 6.02333 -161149 -136834 4538.72 -1329.37 7081.74 19812.2 -7.41455 
1270 2 28.3361 1.08259 6.51791 6.0223 -149988 -146866 -1650.2 -10249 -106.921 10968.7 -7.4139 
1309 2 29.4588 8.50396 6.47385 6.00942 -187201 -113063 -20838.2 37550.9 17048.9 16657 -7.41422 
1310 2 30.214 7.30428 6.48742 6.01302 -156236 -143195 13512.2 24043.8 35001.2 7395.28 -7.41599 
1311 2 29.5547 6.0488 6.49724 6.01336 -173845 -124977 -5739.52 19141.1 15769 15385.2 -7.41435 
1312 2 30.3116 4.85001 6.50888 6.02049 -150806 -147515 2265.74 8058.51 19864.6 6639.78 -7.4145 
1313 2 29.6531 3.59423 6.51488 6.02123 -161132 -135974 383.717 6347.52 9355.41 11927.1 -7.41412 
1314 2 30.4111 2.39599 6.52242 6.026 -148154 -148399 359.59 -540.329 6782.09 5130.01 -7.41386 
1315 2 29.7528 1.14011 6.52391 6.02824 -151742 -144621 1412.75 1281.84 2301.62 7742.05 -7.41385 
1350 2 31.6309 7.36198 6.48898 6.0109 -163848 -135594 -19397.4 27075.8 18815.5 2619.82 -7.41389 
1351 2 31.7284 4.90784 6.51043 6.01889 -157216 -140328 -5854.25 11324 13577 2923.32 -7.41394 
1352 2 31.8278 2.45387 6.52392 6.02618 -151774 -144589 191.525 2507.11 6263.19 1862.03 -7.41379 
39 1 1.41654 18.3812 2.97996 6.02264 -160230 -120183 -121818 -695.646 -1709.53 -828.696 -7.41023 
40 1 0.663491 17.1797 2.98213 6.01215 -137469 -120807 122560 -18537.1 11144.6 3372.92 -7.42581 
41 1 1.32656 15.926 2.97734 6.0211 -166822 -116969 -112859 -33249 141.953 -3122.11 -7.41067 
42 1 0.57396 14.7245 2.97525 6.00747 -138827 -129907 105978 -43053.9 30800.9 -990.455 -7.4243 
43 1 1.23704 13.4707 2.9669 6.01629 -174228 -116937 -88492 -51130.2 6195.13 -4841.09 -7.41171 
44 1 0.484021 12.2697 2.95975 6.00769 -142130 -141164 76599 -51066.8 43858.9 -4736.2 -7.42166 
45 1 1.14632 11.0156 2.94809 6.0104 -177699 -120270 -56376.7 -50877.3 13843.5 -6072.87 -7.41293 
46 1 0.392107 9.81532 2.93682 6.01177 -144114 -150082 43325.2 -43210 45501.1 -6475.06 -7.41864 
85 1 2.83348 18.3285 2.97964 6.00509 -170071 -93193.4 113893 -10290.1 1991.74 21082.7 -7.42502 
86 1 3.49503 17.0739 2.97672 6.01192 -191940 -93600.9 -103314 -23348.4 -7581.25 -6512.06 -7.41127 
87 1 2.74352 15.8716 2.9783 6.00082 -173254 -96070.5 104107 -39340.3 21844.2 13447.5 -7.42431 
88 1 3.40538 14.617 2.97283 6.01162 -200925 -89535.2 -84891.4 -48728.4 -2925.96 -13287.9 -7.41218 
89 1 2.65398 13.4149 2.96867 5.9999 -175307 -106390 79686.8 -53001.9 37906 4984.43 -7.42232 
90 1 3.31554 12.1601 2.96026 6.01172 -204604 -92282.3 -55461.6 -56229.3 5439.77 -18354.9 -7.41337 
91 1 2.56323 10.9587 2.9504 6.00164 -173241 -120303 47894.7 -48791.3 44735.1 -2616.29 -7.41959 
92 1 3.22395 9.70366 2.93999 6.00962 -199115 -101006 -26414 -46321.6 13799.2 -21013.4 -7.41433 
130 1 5.66308 18.2222 2.96894 6.00226 -204341 -87332.2 -78866.9 -13972.9 -17023.9 -4658.8 -7.41253 
131 1 4.91183 17.0199 2.97533 5.99552 -200590 -76250.1 86480.7 -35556.8 9853.85 28390.4 -7.42289 
132 1 5.5726 15.7645 2.9733 6.00087 -215790 -76560.4 -65613.1 -43568.1 -14838.2 -15294 -7.41346 
133 1 4.82218 14.5618 2.97382 5.99274 -204309 -80292 66764 -53539.6 27014.3 18299.8 -7.42165 
134 1 5.48303 13.3064 2.96942 6.00076 -222191 -73554.2 -39702.8 -57443.9 -6896.8 -24446 -7.41473 
135 1 4.73232 12.104 2.96332 5.99342 -201488 -92459.5 38129.7 -53008.6 37950.7 7224.42 -7.41953 
136 1 5.39277 10.8485 2.9567 6.00135 -219521 -79226.9 -11448 -52318.1 4298.8 -30791.4 -7.41582 
137 1 4.64071 9.64699 2.94491 5.9958 -191611 -108369 11063.6 -36737.7 39554.5 -2506.52 -7.41719 
175 1 7.07976 18.168 2.96417 5.99577 -214283 -73285.9 57990.3 -31856.9 -2276.91 38492.5 -7.42044 
176 1 7.73975 16.9122 2.96585 5.99499 -215927 -80897.3 -36599.4 -37345.8 -26646.7 -9923.37 -7.41504 
177 1 6.9893 15.7096 2.97186 5.99296 -221726 -68519.7 41610.1 -52586.8 13440.2 30269 -7.41982 
178 1 7.64967 14.4539 2.97182 5.99399 -225351 -70426.9 -13168.5 -55530.6 -20727.4 -21686.7 -7.41658 
179 1 6.89974 13.251 2.97107 5.99221 -221169 -73586.8 15130.6 -56280 26440.9 19381 -7.41833 
180 1 7.56006 11.9953 2.96882 5.99445 -226654 -68134 14212 -55272.4 -8884.59 -31684.1 -7.41795 
181 1 6.80946 10.7928 2.96132 5.99239 -212371 -86262 -10617.3 -41554.4 32676.7 7427.27 -7.41648 
182 1 7.46934 9.537 2.95744 5.99713 -218439 -75368.4 33876.9 -37789.6 5018.65 -38530.5 -7.41861 
220 1 9.90796 18.0589 2.95058 5.99363 -201843 -98494.3 -8821.43 -32001.4 -35258.7 -282.978 -7.4162 
221 1 9.15642 16.857 2.96153 5.99671 -223742 -72504 12738.7 -49992.9 -192.63 34769.5 -7.41748 
222 1 9.81662 15.6013 2.96589 5.9921 -213565 -82729.7 14579.9 -51866.9 -33252.5 -11536.4 -7.41817 
223 1 9.06636 14.3986 2.97081 5.99572 -227056 -68822.3 -13304.7 -57938.3 12593.7 26900.1 -7.41642 
224 1 9.72685 13.143 2.97308 5.9915 -217890 -72384.1 42493.4 -55952 -22975.6 -23218.3 -7.42004 
225 1 8.97674 11.9402 2.97112 5.99608 -221163 -74191.3 -39814 -46903.2 21361.7 16336.6 -7.41499 
226 1 9.6371 10.6845 2.97123 5.99443 -214210 -70749.8 64051.1 -41298.1 -7167.9 -33287.2 -7.42118 
227 1 8.886 9.48215 2.96315 5.99764 -208815 -86835.6 -55923.4 -20242.5 23647.2 4549.03 -7.41375 
678 2 0.0899668 15.9788 6.42013 6.00961 -125746 -136005 117035 30816.6 20410.8 3269.33 -7.42528 
679 2 0.179481 13.5244 6.4312 6.0055 -128538 -146579 93460.9 47945.9 37792.7 5824.01 -7.42312 
680 2 0.270193 11.0703 6.45072 6.00721 -133068 -155812 60714.2 48463.8 45944.9 6998.23 -7.42016 
716 2 2.17198 17.2856 6.4191 6.00641 -96010 -166071 116425 13726.7 5253.66 16924.1 -7.42529 
717 2 1.5072 16.0331 6.4224 6.01661 -119802 -163310 -112957 30621.6 896.077 -5712.84 -7.4107 
718 2 2.26161 14.8327 6.42437 5.99988 -93462.1 -177349 99663.5 37608.2 24678.2 15878.6 -7.4238 
719 2 1.59671 13.5803 6.43212 6.00649 -127102 -163087 -88798.3 46037.5 6796.66 -10364.1 -7.41183 
720 2 2.35137 12.3801 6.43795 5.99876 -98619 -185267 70877.8 47152.3 39104.4 12954.3 -7.42121 
721 2 1.68734 11.1274 6.45008 6.00151 -136579 -160631 -56668.2 45069.5 15076.7 -12730.9 -7.41313 
722 2 2.44289 9.92781 6.45909 6.00432 -107906 -186305 38601.5 41973.7 42889.2 7986.62 -7.41831 
761 2 3.58937 17.3393 6.42358 6.01605 -89268.5 -196783 -103205 20647.2 -5033.05 -6857.59 -7.41124 
762 2 4.34502 16.1395 6.42334 5.9953 -71844.2 -204507 88307.8 26339.5 7642.25 27746.1 -7.42314 
763 2 3.67906 14.888 6.42622 6.00464 -90121.7 -199162 -85179.3 38945.1 -1191.77 -16265.1 -7.4123 
764 2 4.43451 13.6882 6.42877 5.99444 -70722.4 -214215 64052.3 41309.1 25244.2 22851.7 -7.42118 
765 2 3.76878 12.4366 6.43685 5.99764 -99897.9 -195838 -55924.2 42720.8 7884.53 -22753.4 -7.41375 
766 2 4.52462 11.2371 6.44256 5.99714 -78270.6 -215506 33875.3 42873.3 35877.4 14919.6 -7.41861 
767 2 3.86016 9.98487 6.45515 5.99598 -113025 -187378 -26099.3 33264.1 18366.6 -24695.2 -7.41491 
806 2 6.4286 17.4459 6.43072 5.9947 -70030 -216958 63302.9 17474.9 -8841.53 35699.2 -7.42131 
807 2 5.76259 16.1945 6.42738 6.00378 -67528.6 -225295 -65464 33649.1 -11646.9 -16479.8 -7.41337 
808 2 6.51872 14.9952 6.42692 5.99144 -60215.1 -230014 42495.4 34982.1 8620.48 31505.9 -7.42004 
809 2 5.85212 13.7442 6.42888 5.9961 -70254.9 -225109 -39814.9 40229.6 -3466.79 -26667.8 -7.41499 
810 2 6.6082 12.5448 6.43118 5.99447 -59914.7 -234988 14209.5 40928.7 22996.9 23537.2 -7.41795 
811 2 5.94213 11.2936 6.43868 5.99245 -81836 -216784 -10616.3 33874.8 9905.81 -32012.5 -7.41648 
812 2 6.69873 10.0945 6.4433 6.00135 -69008 -229712 -11449.1 34565.9 28816.4 11671.7 -7.41582 
851 2 7.84614 17.5011 6.43735 6.00394 -64981.9 -232619 -36476.7 31082.2 -22461.6 -11819.3 -7.41459 
852 2 8.60279 16.3021 6.43411 5.99211 -70568.6 -225718 14580.7 30758.9 -6634.83 34565.3 -7.41817 
853 2 7.9364 15.051 6.42919 5.99574 -58125.3 -237697 -13305.3 39583.6 -16998.8 -24356.9 -7.41642 
854 2 8.69259 13.8518 6.42818 5.99401 -61143.4 -234748 -13168.6 39333.6 8416.93 28793.8 -7.41658 
855 2 8.02586 12.6009 6.42893 5.99217 -61820.6 -233007 15131.9 35752.3 -3563.49 -32588.6 -7.41833 
856 2 8.78219 11.4017 6.43058 6.00076 -61080 -234697 -39701.7 35680.9 17722.9 18195.4 -7.41474 
857 2 8.11625 10.1503 6.43668 5.99345 -73860.8 -220126 38129.6 20771.6 12719.6 -36478.9 -7.41953 
897 2 10.0204 16.3582 6.43847 5.9967 -67002.5 -229280 12737.3 40425.2 -30207.2 -17217.3 -7.41749 
899 2 10.1103 13.9077 6.42815 5.99297 -61346.1 -229114 41608.8 40002.6 -19493.9 -26775.3 -7.41982 
901 2 10.1998 11.457 6.42618 5.99273 -65033.4 -219717 66763.4 26903 -2340.21 -32544.8 -7.42165 
265 1 11.3247 18.0028 2.94473 6.00592 -210175 -89631.9 -10102.6 -45178.2 -11064.7 29226.8 -7.41544 
266 1 11.9849 16.7474 2.95312 5.99593 -190148 -106243 33068.2 -47402.1 -41902.5 -306.788 -7.41883 
267 1 11.2333 15.5455 2.96266 6.00394 -217618 -79897 -36476 -57043.8 -994.147 25361 -7.41459 
268 1 11.8943 14.2903 2.96928 5.99471 -195337 -91590.3 63302.1 -54902.9 -35337 -10192.9 -7.4213 
269 1 11.1436 13.0878 2.97262 6.00377 -214999 -77781.2 -65463 -51587.5 8449.06 18326.7 -7.41337 
270 1 11.8047 11.8327 2.97666 5.99529 -194165 -82165 88307 -44288.7 -20207.3 -20492 -7.42314 