ITEM: TIMESTEP
0
ITEM: NUMBER OF ATOMS
1352
ITEM: BOX BOUNDS pp pp pp
0.0000000000000000e+00 3.1928000000000001e+01
0.0000000000000000e+00 5.5300918199999998e+01
0.0000000000000000e+00 1.5000000000000000e+01
ITEM: ATOMS id type x y z c_csym c_2[1] c_2[2] c_2[3] c_2[4] c_2[5] c_2[6] c_3 
47 1 1.039 8.562 3 6.02218 -169743 -131632 -129386 -16605.9 34293.6 -11106.4 -7.41165 
48 1 0.283 7.363 3 6.01928 -137060 -137539 -76916 -27953 60713.9 -3317.81 -7.41477 
49 1 0.945 6.108 3 6.02403 -145591 -85765.7 -137066 -13350.5 33132.8 -12027.7 -7.41104 
50 1 0.189 4.908 3 6.02502 -130877 -154294 -126764 17411.2 40891 -2707.66 -7.41242 
51 1 0.85 3.654 3 6.02801 -144680 -139377 -149563 11695.8 21550.6 -10108.6 -7.41082 
52 1 0.094 2.454 3 6.02183 -170313 -132470 -153812 2108.79 17664.5 -1809.96 -7.4111 
53 1 0.756 1.2 3 6.02333 -128219 -125653 -158863 -725.562 6995.65 -6119.4 -7.41049 
54 1 0 0 3 6.02606 -131169 -147050 -160998 15459.4 0.324367 -22.8653 -7.41057 
93 1 2.456 8.508 3 6.02484 -136254 -127266 -53713.4 9329.89 63080.6 -6811.32 -7.4157 
94 1 3.117 7.253 3 6.022 -175910 -149463 -110070 -31063.9 34176.5 -32171.2 -7.41303 
95 1 2.362 6.054 3 6.02288 -149460 -169492 -108071 -23373.2 49138.2 -11318.5 -7.41337 
96 1 3.023 4.799 3 6.02288 -147685 -104044 -125635 -937.052 29295.2 -30954 -7.4118 
97 1 2.267 3.599 3 6.02264 -131285 -150006 -143012 26018.9 25721 -13261.1 -7.41172 
98 1 2.928 2.345 3 6.02372 -150842 -159624 -142712 604.501 15846.6 -25147.9 -7.41144 
99 1 2.173 1.145 3 6.02128 -137702 -166795 -155965 6613.93 5000.94 -13896.9 -7.41121 
138 1 5.29 8.399 3 6.02379 -159510 -143681 -63116.5 13593.5 27823.2 -44233.9 -7.41572 
139 1 4.534 7.199 3 6.02414 -141545 -161822 -94647.1 31466 51067.1 -13579 -7.41382 
140 1 5.195 5.945 3 6.02052 -162826 -160878 -78947.1 178.872 32996.5 -47949.2 -7.41499 
141 1 4.44 4.745 3 6.02288 -139975 -142282 -130142 2535.03 32665.1 -21625.2 -7.41145 
142 1 5.101 3.49 3 6.02173 -148821 -141485 -103872 -18668.2 25928.3 -45647.4 -7.41365 
143 1 4.345 2.291 3 6.0206 -138616 -147523 -144940 -3763.57 10257.8 -26826.6 -7.41132 
144 1 5.006 1.036 3 6.02294 -139659 -136640 -127940 -23218 11474.5 -38363.7 -7.41207 
183 1 6.707 8.344 3 6.0217 -147525 -180259 -93847.3 15967.5 44088.4 -7451.19 -7.41405 
184 1 7.368 7.09 3 6.02666 -152321 -153745 -17112.7 13609.4 28181.4 -53279.5 -7.41795 
185 1 6.612 5.89 3 6.02368 -129208 -149239 -123586 19150.2 33329.9 -21543 -7.41202 
186 1 7.274 4.636 3 6.02183 -188314 -135472 -44508.1 1506.18 31040.2 -57553.6 -7.41708 
187 1 6.518 3.436 3 6.02469 -128960 -130135 -134431 19618.4 14071.9 -33002.7 -7.41108 
188 1 7.179 2.181 3 6.0211 -144531 -154480 -79986.7 -21342.7 23195 -55114.9 -7.41455 
189 1 6.423 0.982 3 6.02062 -134503 -141365 -125878 -13861.7 -5807.57 -41687.1 -7.41197 
228 1 9.541 8.235 3 6.02403 -137972 -106906 42879.9 -11704.7 16411.8 -45801.8 -7.42068 
229 1 8.785 7.035 3 6.02502 -133852 -162387 -127646 33448.5 26685.2 -13370.8 -7.41216 
230 1 9.446 5.781 3 6.02801 -147728 -160025 21423 12745 28444.6 -54636.5 -7.41978 
231 1 8.69 4.581 3 6.02217 -175867 -148472 -132127 20844.9 12840.8 -28366.9 -7.41191 
232 1 9.352 3.327 3 6.02334 -136316 -145059 -17569 -1392.89 29523 -58313.5 -7.41802 
233 1 8.596 2.127 3 6.02666 -136966 -165887 -116633 36475.9 -4938.34 -40852 -7.41257 
234 1 9.257 0.873 3 6.02073 -152118 -181370 -64251.4 -7731.25 22156.9 -54800.9 -7.41554 
681 2 0.378 8.617 6.4 6.02414 -145431 -158150 -44476.6 -17068 65363.4 1745.76 -7.41655 
682 2 0.472 6.163 6.4 6.02288 -141391 -139005 -103537 13147.6 52590.2 287.326 -7.41299 
683 2 0.567 3.709 6.4 6.0206 -136560 -144264 -142862 17566.3 29635.3 -1078.74 -7.41157 
684 2 0.661 1.254 6.4 6.02129 -139649 -160048 -158987 -251.383 8909.55 -2860.86 -7.41097 
685 2 0 0 6.4 6.02684 -131475 -146731 -160997 -12758.8 -0.790255 -29.0009 -7.41057 
723 2 1.795 8.671 6.4 6.022 -180210 -146049 -123807 31005.3 35361.3 -18133.1 -7.41226 
724 2 2.55 7.472 6.4 6.02288 -152043 -172854 -78553.1 38917.9 58042.3 -4564.3 -7.41488 
725 2 1.889 6.217 6.4 6.02288 -155079 -100400 -130271 -655.329 35023.5 -17329.5 -7.41147 
726 2 2.645 5.017 6.4 6.02264 -132427 -154994 -125586 -10255.7 41484.9 -9895.82 -7.41258 
727 2 1.984 3.763 6.4 6.02372 -157443 -155147 -142924 -5498.16 24347.4 -15748.9 -7.41139 
728 2 2.739 2.563 6.4 6.02156 -135800 -169282 -149669 8102.76 19512.3 -13606.4 -7.41148 
729 2 2.078 1.309 6.4 6.02412 -137347 -140517 -153657 -16003.1 10513.9 -14458.1 -7.41091 
730 2 2.834 0.109 6.4 6.02416 -133906 -148569 -153110 -8415.18 376.141 -18350.5 -7.41094 
768 2 4.629 8.781 6.4 6.01928 -138016 -144687 -63470.9 39558.1 52215.7 -1930.25 -7.41539 
769 2 3.967 7.526 6.4 6.02403 -148437 -91974.5 -94662.5 12737.2 37278.6 -37374.1 -7.4133 
770 2 4.723 6.326 6.4 6.02502 -133142 -164980 -110320 -2871.85 44927.2 -13558.9 -7.41309 
771 2 4.062 5.072 6.4 6.02801 -150922 -144809 -108271 -13922.3 34353 -36817 -7.41295 
772 2 4.818 3.872 6.4 6.02183 -172002 -145549 -137062 12210.4 26907.9 -22763.2 -7.41173 
773 2 4.156 2.618 6.4 6.02333 -134716 -129820 -126789 -4924.02 22876.2 -34012.9 -7.4121 
774 2 4.912 1.418 6.4 6.02666 -130172 -157840 -141364 -2517.35 6555.39 -30397.8 -7.41139 
775 2 4.251 0.164 6.4 6.02212 -145175 -165994 -141313 -8453.39 8236.6 -30579.6 -7.41182 
813 2 6.046 8.835 6.4 6.02368 -167876 -165462 -44433 -1888.39 30557.3 -47444.2 -7.41671 
814 2 6.801 7.635 6.4 6.0217 -144010 -182949 -105063 13621.5 38167.1 -9013.28 -7.41342 
815 2 6.14 6.381 6.4 6.02665 -152803 -150238 -53654 -13685.7 37508.5 -51146.5 -7.41603 
816 2 6.896 5.181 6.4 6.02368 -125749 -151935 -129503 16598.2 26676.7 -24186.6 -7.4117 
817 2 6.234 3.927 6.4 6.02183 -185480 -134710 -76518.2 -6091.24 33199.3 -51088.3 -7.4153 
818 2 6.99 2.727 6.4 6.0265 -133217 -167782 -131010 -2019.62 8900.1 -36858.4 -7.41159 
819 2 6.329 1.473 6.4 6.02281 -139352 -155314 -104163 -26496.4 21750.2 -47575.5 -7.41329 
820 2 7.085 0.273 6.4 6.02167 -125957 -112922 -112191 22296.3 -8780.89 -47426.8 -7.41241 
858 2 8.879 8.944 6.4 6.02406 -143250 -178245 -112154 14448.4 25628.6 151.666 -7.4131 
859 2 8.218 7.69 6.4 6.02379 -152254 -152532 8085.28 -13906.7 30412.8 -52525.4 -7.41957 
860 2 8.974 6.49 6.4 6.02414 -135133 -163909 -131789 -1647.25 19702.4 -17075.5 -7.4118 
861 2 8.313 5.236 6.4 6.02052 -157652 -171074 -11985.8 -2614.2 35401 -55823.2 -7.41855 
862 2 9.068 4.036 6.4 6.02288 -138344 -149534 -129632 29314.2 6139.62 -32643.4 -7.4114 
863 2 8.407 2.781 6.4 6.02173 -147967 -152089 -46174.7 8904.26 31169.1 -54940.2 -7.41674 
864 2 9.163 1.582 6.4 6.02173 -141921 -159449 -105099 30972.7 -9490.25 -45627.2 -7.41331 
865 2 8.502 0.327 6.4 6.02294 -144329 -147463 -84687.7 3265.36 20541.7 -49841.9 -7.41408 
903 2 10.296 8.999 6.4 6.02334 -141572 -138387 60635.2 -2697.83 16070 -43039.9 -7.42236 
905 2 10.391 6.544 6.4 6.022 -162831 -168354 49869.3 29667.6 28537.9 -47361.2 -7.42163 
907 2 10.485 4.09 6.4 6.02288 -143530 -124409 18204 -3929.3 32839.4 -48066.9 -7.4194 
909 2 10.58 1.636 6.4 6.02372 -155631 -179919 -28258.9 -12315.6 29865.2 -45243.7 -7.41734 
273 1 10.958 8.181 3 6.02288 -147293 -165646 -139135 -19661.8 16324.3 -4156.14 -7.41169 
274 1 11.619 6.926 3 6.02288 -143375 -121290 76388.6 1581.85 20110.5 -40055.1 -7.42255 
275 1 10.863 5.726 3 6.02264 -133411 -156304 -139181 33851.5 7984.02 -17305.8 -7.41177 
276 1 11.524 4.472 3 6.02372 -157691 -176809 42542.3 3052.14 29495 -46747.4 -7.42117 
277 1 10.769 3.272 3 6.02156 -142332 -179592 -117759 15499.5 -6668.98 -29196.6 -7.41298 
278 1 11.43 2.018 3 6.02412 -145683 -161864 -8117.99 7134.11 29882 -47990 -7.41846 
279 1 10.674 0.818 3 6.02416 -142440 -165687 -77783.9 27452.6 -20904.5 -38882.4 -7.4147 
318 1 13.791 8.072 3 6.02052 -152529 -169339 110261 1774.95 9664.59 -20458.8 -7.4252 
319 1 13.036 6.872 3 6.02288 -136888 -133671 -149442 -3214.22 2683.12 -7019.89 -7.41054 
320 1 13.697 5.617 3 6.02173 -149823 -150171 87144 -15056.5 24781.4 -26631.3 -7.42384 
321 1 12.941 4.418 3 6.02061 -139835 -149481 -128675 -5719.08 -8602.9 -14479.9 -7.41218 
322 1 13.602 3.163 3 6.02334 -149445 -142065 41306.1 -16036.9 31686.8 -30210.3 -7.42104 
323 1 12.847 1.963 3 6.02129 -148812 -174847 -86260.6 11501.7 -21780.9 -21060.8 -7.41463 
324 1 13.508 0.709 3 6.02665 -143829 -165647 -18492.3 7405.25 31246.2 -29094.1 -7.41796 
363 1 15.208 8.017 3 6.02368 -123501 -130371 -157191 2889.97 -257.426 -633.379 -7.41049 
364 1 15.87 6.763 3 6.02183 -184328 -135573 109994 3609.71 18178.4 -3566.63 -7.42544 
365 1 15.114 5.563 3 6.02469 -125013 -119171 -142175 4738.87 -8080.35 -2339.61 -7.41088 
366 1 15.775 4.308 3 6.0213 -150100 -153898 74677.5 -14800.9 29283.2 -7131.11 -7.42289 
367 1 15.019 3.109 3 6.02041 -134184 -136346 -104843 -25831.6 -20475.7 -3942.07 -7.41319 
368 1 15.681 1.854 3 6.02385 -135319 -110509 19481 -12042.6 33305.3 -8795.7 -7.41938 
369 1 14.925 0.654 3 6.02442 -141583 -162629 -48061.8 20966.1 -30209.7 -5012.31 -7.41656 
407 1 17.381 9.162 3 6.02502 -128791 -146652 -157203 12973.5 690.228 148.246 -7.41069 
408 1 18.042 7.908 3 6.02801 -142933 -156825 110262 13101.2 12873.9 18543 -7.42467 
409 1 17.286 6.708 3 6.02217 -170208 -133771 -151177 -2003.23 -3867.95 5121.15 -7.41114 
410 1 17.948 5.454 3 6.02334 -136989 -140877 87166.1 2864.5 25873.5 17062.5 -7.4237 
411 1 17.192 4.254 3 6.02666 -132530 -156720 -125219 15372.6 -14958 9144.32 -7.4123 
412 1 17.853 3 3 6.02052 -158246 -173515 41426.8 5478.07 32265.8 14614.5 -7.42125 
413 1 17.098 1.8 3 6.02288 -143958 -139358 -76835.5 -17044.8 -26488 12772.1 -7.41473 
414 1 17.759 0.545 3 6.02255 -144452 -124688 -19102.8 3891.28 32067.2 12663.3 -7.41763 
452 1 20.215 9.053 3 6.02414 -142333 -119931 86909.7 1189.15 10664 34951.2 -7.4233 
453 1 19.459 7.853 3 6.0239 -129225 -148202 -149272 8039.69 4679.46 5788.57 -7.41159 
454 1 20.12 6.599 3 6.02523 -156065 -173833 76135.4 -633.211 24683.7 37540.5 -7.42296 
455 1 19.365 5.399 3 6.02406 -138439 -174365 -139297 -12429 -4421.34 16260.6 -7.41169 
456 1 20.026 4.145 3 6.02379 -147772 -158286 42810.9 14842.8 31429.7 37076.5 -7.42118 
457 1 19.27 2.945 3 6.02414 -136436 -160070 -106378 2788.62 -17124.3 25304.1 -7.41323 
458 1 19.931 1.691 3 6.02156 -152924 -176562 -8024.87 5959.76 31472.4 34389.5 -7.41901 
459 1 19.176 0.491 3 6.02336 -147677 -148559 -53366.2 -18270.5 -27270.8 32743 -7.4156 
904 2 11.052 7.799 6.4 6.02484 -125386 -123010 -141119 9059.83 11129.1 -7140.57 -7.41108 
906 2 11.146 5.345 6.4 6.02288 -144595 -172986 -137464 45295.2 1398.98 -21093.2 -7.41172 
908 2 11.241 2.89 6.4 6.02264 -134810 -161816 -110814 -4927.55 -12014.8 -33241.5 -7.41326 
910 2 11.335 0.436 6.4 6.02123 -146779 -184957 -63952.1 9470.29 -23538.3 -42868.5 -7.4159 
948 2 13.13 9.108 6.4 6.02288 -127340 -115060 -151738 4130.76 3907.69 -213.318 -7.41026 
949 2 12.469 7.853 6.4 6.02218 -149268 -153210 95029.8 15166.9 16379.8 -31079 -7.42382 
950 2 13.225 6.654 6.4 6.01928 -127494 -132084 -148732 36652.5 -1330.33 -9299.53 -7.41098 
951 2 12.563 5.399 6.4 6.02403 -133804 -108659 72279.6 11224.7 27730.4 -31349.6 -7.42228 
952 2 13.319 4.199 6.4 6.02502 -130755 -158236 -125232 -8142.69 -12725.7 -17140.2 -7.4124 
953 2 12.658 2.945 6.4 6.02801 -146007 -162790 28075.3 -16572.5 32301.8 -29286 -7.42019 
954 2 13.414 1.745 6.4 6.02218 -179336 -145568 -79252.1 5786.22 -24541.8 -24153.4 -7.41487 
955 2 12.752 0.491 6.4 6.02352 -136723 -149009 -29205.9 -8089.41 30303.7 -26017.2 -7.41743 
993 2 14.547 9.162 6.4 6.02288 -137451 -118579 117835 -3006.72 2310.72 -12379.2 -7.42509 
994 2 15.303 7.962 6.4 6.02264 -132424 -142292 -157108 -15276.1 -1089.9 -1585.79 -7.41078 
995 2 14.642 6.708 6.4 6.02368 -153253 -172102 106256 -2726.39 19307.8 -10936.3 -7.42489 
996 2 15.397 5.508 6.4 6.0217 -138524 -167944 -141448 198.568 -9180.06 -3953.14 -7.41168 
997 2 14.736 4.254 6.4 6.02666 -145209 -158456 71185.7 -14575.8 29576.8 -8266.7 -7.42277 
998 2 15.492 3.054 6.4 6.02368 -128801 -141440 -103384 423.425 -21403 -5877.66 -7.41329 
999 2 14.83 1.8 6.4 6.02182 -187315 -140817 16328.1 -5482.54 33139.4 -6104.05 -7.42038 
1000 2 15.586 0.6 6.4 6.02468 -137594 -130100 -45790.1 -2320.26 -30710.7 -7959.6 -7.416 
1039 2 16.72 8.017 6.4 6.02523 -152845 -170201 117810 488.042 9569.52 8126.86 -7.4253 
1040 2 17.475 6.817 6.4 6.02406 -137878 -166026 -151523 -2347.7 -1819.98 3461.63 -7.41112 
1041 2 16.814 5.563 6.4 6.02379 -146418 -154163 94399 -12654.2 24560.5 12845.8 -7.42405 
1042 2 17.57 4.363 6.4 6.02414 -134207 -153236 -127110 -18587.8 -12820.4 7169.95 -7.4122 
1043 2 16.909 3.109 6.4 6.02156 -154537 -172698 47962.4 1163.85 32032.8 15882.1 -7.4221 
1044 2 17.664 1.909 6.4 6.02316 -144288 -141001 -80659.5 6410.1 -25026.6 10259.6 -7.4143 
1045 2 17.003 0.654 6.4 6.02131 -150337 -156313 -13322.2 18526.1 32576.2 15513.1 -7.41847 
1084 2 19.554 8.126 6.4 6.02217 -173132 -134115 -148552 -10541.6 8625.27 3524.3 -7.41123 
1085 2 18.892 6.872 6.4 6.02334 -136368 -140335 94955 -2652.32 18691.6 29744.8 -7.42411 
1086 2 19.648 5.672 6.4 6.02665 -132414 -157327 -141301 -30860.9 782.063 13217.5 -7.4114 
1087 2 18.987 4.418 6.4 6.02052 -157378 -173293 60322.1 -2266.68 29289.9 35548.2 -7.42226 
1088 2 19.742 3.218 6.4 6.02288 -139799 -143236 -112545 1200.24 -12860.8 22117 -7.41263 
1089 2 19.081 1.963 6.4 6.02152 -152425 -154891 7320.58 20735.5 31662.6 36704.9 -7.41931 
1090 2 19.837 0.764 6.4 6.02081 -146126 -158946 -64450 2576.39 -25119.2 29391.2 -7.41577 
1129 2 20.97 8.181 6.4 6.02183 -187839 -137816 72085.1 -3777.91 13133 39699.7 -7.42333 
1131 2 21.065 5.726 6.4 6.0213 -150608 -155492 50049.9 15038.9 26837.9 48357.7 -7.42145 
1133 2 21.159 3.272 6.4 6.02156 -133916 -112885 8097.34 15194.9 30349.4 52675.4 -7.41869 
1135 2 21.254 0.818 6.4 6.0261 -143414 -170243 -44369.3 -7896.8 25785.9 50240.6 -7.4163 
497 1 21.632 8.999 3 6.02288 -149638 -167532 -128672 -40422.5 16865.1 -219.896 -7.41203 
498 1 22.293 7.744 3 6.02288 -144353 -121348 42551.3 2512.9 25765.4 49012.8 -7.42093 
499 1 21.537 6.544 3 6.02264 -133822 -157702 -138690 2517.54 10961 15460.9 -7.41159 
500 1 22.198 5.29 3 6.02368 -156849 -175722 21052.1 3587.85 33160.3 51935 -7.4202 
501 1 21.443 4.09 3 6.0217 -140901 -181320 -127431 -14241.8 -1703.05 29790.7 -7.41224 
502 1 22.104 2.836 3 6.02665 -143746 -162313 -16938.2 19211.1 32033.9 51016.5 -7.41796 
503 1 21.348 1.636 3 6.02369 -130053 -151260 -93979.9 -12639.4 -15618.1 41918 -7.41364 
504 1 22.01 0.382 3 6.02202 -183111 -147628 -63027.6 13369.1 24391.9 46241 -7.41603 
542 1 24.466 8.89 3 6.02183 -197293 -134296 -7777.53 4909.33 26525.3 49834.7 -7.41878 
543 1 23.71 7.69 3 6.02288 -129475 -133031 -117677 -13158.5 28669.3 8758.07 -7.41188 
544 1 24.371 6.435 3 6.02219 -155691 -150440 -18067.2 -14961.5 35742.7 54748.5 -7.41782 
545 1 23.615 5.236 3 6.02041 -130008 -146716 -132058 -46861.5 17960 25451.8 -7.41166 
546 1 24.277 3.981 3 6.02156 -134942 -106817 -44179.1 -8684.3 34288.5 55669 -7.41591 
547 1 23.521 2.781 3 6.02281 -133190 -167933 -123822 1414 1942.39 39639.5 -7.41208 
548 1 24.182 1.527 3 6.0265 -141923 -161590 -78831.5 27068.9 25056.3 52543.3 -7.41448 
549 1 23.426 0.327 3 6.022 -176718 -151406 -94805.4 -7835.76 -13707.5 51050.9 -7.41423 
587 1 25.882 8.835 3 6.02217 -179570 -150068 -77676.4 -10524.6 44107.2 1456.8 -7.41488 
588 1 26.544 7.581 3 6.02334 -149918 -130443 -63838 1663.6 36391.1 46672 -7.41553 
589 1 25.788 6.381 3 6.02665 -134364 -168406 -116469 3158.98 37823.2 16129.2 -7.41258 
590 1 26.449 5.127 3 6.02052 -161980 -161900 -79916.2 4408.75 36150.6 47616.5 -7.41476 
591 1 25.694 3.927 3 6.02288 -135344 -147907 -134633 -30187.1 21669.7 28589.3 -7.41136 
592 1 26.355 2.672 3 6.02173 -149189 -142833 -103910 -11338.2 26470.6 45232.6 -7.41345 
593 1 25.599 1.473 3 6.0206 -136649 -154638 -130279 -28238 2321.26 39004.5 -7.41223 
594 1 26.26 0.218 3 6.02295 -142126 -138698 -125759 -3184.49 12160.4 40781.7 -7.4119 
632 1 28.716 8.726 3 6.02523 -173750 -155285 -105073 -1883.97 34807 30995.4 -7.41318 
633 1 27.961 7.526 3 6.02406 -145732 -181118 -84596.7 -13161.4 53458.1 7117.23 -7.41453 
634 1 28.622 6.272 3 6.02379 -158497 -138016 -112619 12353.7 36528.4 31306.9 -7.41288 
635 1 27.866 5.072 3 6.02414 -133827 -160101 -126141 550.216 38945.1 15773.3 -7.41215 
636 1 28.527 3.818 3 6.02156 -153676 -155684 -127813 1661.51 27507.8 29179.8 -7.41275 
637 1 27.772 2.618 3 6.02334 -135479 -138810 -144869 -23303.6 18096.2 22213.3 -7.41086 
638 1 28.433 1.363 3 6.0204 -140846 -138292 -142850 -9224.23 13935.1 26235.7 -7.41177 
639 1 27.677 0.164 3 6.02194 -140243 -147344 -142908 -23407.9 -1470.39 29018.2 -7.41141 
669 1 30.133 8.671 3 6.02264 -144721 -157097 -46278.5 12258.1 63166.6 396.761 -7.41653 
670 1 30.794 7.417 3 6.02368 -172097 -151899 -131422 1378.44 36409.6 10653 -7.412 
671 1 30.039 6.217 3 6.0217 -143703 -174767 -103829 -4552.27 52068.9 4966.3 -7.41363 
672 1 30.7 4.963 3 6.02666 -150772 -137146 -141486 13573.7 29554.7 9509.91 -7.41139 
673 1 29.944 3.763 3 6.02368 -123498 -138607 -141439 -5073.33 30505.6 8262.1 -7.41131 
674 1 30.606 2.509 3 6.02183 -179417 -122498 -153049 4458.53 16103.3 8893.72 -7.41136 
675 1 29.85 1.309 3 6.0263 -130775 -150937 -155897 13225.7 9601.19 11315.2 -7.41056 
676 1 30.511 0.055 3 6.02321 -133035 -146924 -158883 19676.6 1923.89 9209.79 -7.41057 
1130 2 21.726 6.981 6.4 6.02469 -128412 -126475 -137288 -16943.4 17533 11752.3 -7.41101 
1132 2 21.821 4.527 6.4 6.02041 -133104 -142586 -131529 11780.1 4869.52 25625.8 -7.41161 
1134 2 21.915 2.072 6.4 6.02241 -137728 -165466 -104909 -34451.1 -11248.4 37539.2 -7.4131 
1174 2 23.804 8.29 6.4 6.02288 -143316 -144399 -110469 -3108.73 34815.1 6090.65 -7.41249 
1175 2 23.143 7.035 6.4 6.02173 -155302 -149321 18421.2 14769.5 25145.6 52439 -7.42006 
1176 2 23.899 5.836 6.4 6.02061 -141737 -156820 -129862 -2902.68 25230.8 21662.7 -7.41197 
1177 2 23.238 4.581 6.4 6.02334 -149812 -140273 -11932.5 15802.4 30605.2 58576.6 -7.41812 
1178 2 23.993 3.381 6.4 6.0217 -145107 -178172 -129353 -20614.8 7665.72 35174.8 -7.4122 
1179 2 23.332 2.127 6.4 6.02665 -140608 -162513 -53738.5 -7191.07 25564.1 58045.5 -7.41601 
1180 2 24.088 0.927 6.4 6.0235 -131182 -149893 -109949 -17342.2 -10752.7 45737.8 -7.4128 
1219 2 25.221 8.344 6.4 6.02288 -153867 -114570 -28139.6 -848.852 24213.3 48617.3 -7.41691 
1220 2 25.977 7.144 6.4 6.02264 -138049 -161459 -105128 -34630.8 44173 14656.6 -7.41353 
1221 2 25.316 5.89 6.4 6.02372 -163456 -167956 -46230.2 -3499.42 31950 54429.9 -7.41641 
1222 2 26.071 4.69 6.4 6.02156 -140810 -179380 -131322 -17039.1 27416.5 26112.7 -7.41223 
1223 2 25.41 3.436 6.4 6.02414 -145578 -151627 -76484.1 -8741.48 27541 54323.4 -7.41487 
1224 2 26.166 2.236 6.4 6.02415 -135132 -157430 -137357 -28121.1 6125.6 34626.5 -7.41153 
1225 2 25.505 0.982 6.4 6.02177 -145410 -173755 -108283 10797.9 14686.3 48054.8 -7.41373 
1264 2 28.055 8.453 6.4 6.02502 -138702 -165306 -64210.8 -26431.8 58630.7 8245.66 -7.41548 
1265 2 27.394 7.199 6.4 6.02801 -158246 -145529 -84493.5 -11924.1 32882.7 42742 -7.41412 
1266 2 28.15 5.999 6.4 6.02217 -177038 -144530 -112461 -14075 45356 16089.3 -7.41307 
1267 2 27.488 4.745 6.4 6.02334 -141205 -128618 -104013 -46.0173 30390.5 42550.7 -7.41347 
1268 2 28.244 3.545 6.4 6.02665 -132413 -157324 -141556 -30859.5 22909.6 20826 -7.4114 
1269 2 27.583 2.291 6.4 6.02052 -150728 -161542 -126869 1723.15 17984.2 36766.3 -7.41235 
1270 2 28.338 1.091 6.4 6.02328 -137812 -133313 -149710 3311.98 2150.55 23598.8 -7.41092 
1309 2 29.472 8.508 6.4 6.02484 -163101 -137869 -116242 -12372 32902.6 24647.8 -7.41258 
1310 2 30.228 7.308 6.4 6.02368 -132545 -143595 -80303.9 -6451.83 59239.4 7544.88 -7.41448 
1311 2 29.566 6.054 6.4 6.02183 -197446 -118557 -126086 -1780.92 33087.1 25763.2 -7.41269 
1312 2 30.322 4.854 6.4 6.02469 -127369 -122448 -127767 -7411.84 39032.2 9304.03 -7.41166 
1313 2 29.661 3.599 6.4 6.0213 -148577 -136221 -141466 17308.8 22384.7 22437.2 -7.41138 
1314 2 30.417 2.4 6.4 6.02041 -128346 -129069 -152908 24705.7 15735.5 9547.94 -7.41073 
1315 2 29.755 1.145 6.4 6.02384 -124212 -96740.3 -153677 16914 7333.67 16312.7 -7.41031 
1350 2 31.645 7.363 6.4 6.02052 -171847 -148832 -134642 -123.153 35672.7 4316.98 -7.41192 
1351 2 31.739 4.908 6.4 6.02173 -156332 -128956 -144812 15949.5 28346.1 4563.63 -7.41142 
1352 2 31.834 2.454 6.4 6.02334 -142685 -120667 -156131 14520.9 14362.7 2680.36 -7.41065 
39 1 1.417 18.379 3 6.02519 -132869 -142827 -157123 22516 -1913.48 -138.345 -7.41089 
40 1 0.661 17.179 3 6.02379 -142449 -151677 117865 14499.7 11850.2 4183.33 -7.42558 
41 1 1.322 15.925 3 6.02406 -148070 -155815 -151554 -1166.56 2101.74 -3311.9 -7.41112 
42 1 0.567 14.725 3 6.02523 -155182 -172201 95139.3 -452.214 34993.9 1327.63 -7.42402 
43 1 1.228 13.471 3 6.02396 -149091 -136768 -141153 15291.3 11757.2 -5966.83 -7.41164 
44 1 0.472 12.271 3 6.02414 -141874 -143304 49847.5 6385.15 55374.8 -1059.52 -7.42139 
45 1 1.134 11.017 3 6.02183 -204867 -116462 -131609 4135.07 24578.1 -8590.5 -7.4121 
46 1 0.378 9.817 3 6.02288 -140635 -127527 -11799.2 2748.42 66042.9 -2824.13 -7.41758 
85 1 2.834 18.325 3 6.0213 -148369 -151162 106371 -15773.9 182.387 22100.4 -7.42458 
86 1 3.495 17.07 3 6.0262 -130799 -113308 -141531 8017.36 -8091.3 -5986.67 -7.41093 
87 1 2.739 15.87 3 6.02334 -137296 -138529 94259.6 1838.6 23396.6 14910.1 -7.42422 
88 1 3.401 14.616 3 6.02368 -138943 -126741 -127101 1659.5 -203.749 -14705.5 -7.41201 
89 1 2.645 13.416 3 6.0262 -145145 -161529 60492.8 15673.8 45362.4 7614.72 -7.42196 
90 1 3.306 12.162 3 6.02639 -156565 -141861 -112693 12748.1 12817.6 -22295.1 -7.41265 
91 1 2.55 10.962 3 6.02217 -187231 -144702 7841.65 5742.54 60717.9 -54.8513 -7.41949 
92 1 3.212 9.708 3 6.02334 -156696 -120659 -105206 1552.29 26874.8 -28437.7 -7.41339 
130 1 5.668 18.215 3 6.01928 -134667 -132912 -125406 -17623.4 -21375.5 -2454.55 -7.41219 
131 1 4.912 17.016 3 6.02149 -151424 -152292 71236.6 -15574.2 7651.33 29646.9 -7.42278 
132 1 5.573 15.761 3 6.02288 -148083 -132339 -103387 -6881.35 -15859.8 -15595.7 -7.41299 
133 1 4.818 14.561 3 6.02052 -155640 -173624 48042.7 2402.96 29629.8 19852.5 -7.42186 
134 1 5.479 13.307 3 6.02414 -153570 -146233 -80348.5 18837 -3708.79 -26745.8 -7.41467 
135 1 4.723 12.107 3 6.02379 -143061 -160308 7182.42 20664.2 47601.9 9054.6 -7.41978 
136 1 5.384 10.853 3 6.02523 -168399 -162636 -64427.2 -1384.62 12904.6 -36402.5 -7.41542 
137 1 4.629 9.653 3 6.02406 -151199 -180331 -44515.1 7293.36 56354.1 -2663.54 -7.41669 
175 1 7.085 18.161 3 6.02368 -161087 -172577 28103.2 2403.26 -9420.11 42546.3 -7.42062 
176 1 7.746 16.907 3 6.02264 -143682 -155068 -79225 25609 -33072.7 -9161.12 -7.41481 
177 1 6.99 15.707 3 6.02288 -146904 -120676 16173 1160.59 11313.5 31840.8 -7.41939 
178 1 7.651 14.452 3 6.02138 -159188 -166791 -45594.3 -28387.1 -22225.3 -22606.3 -7.41684 
179 1 6.896 13.253 3 6.02288 -161443 -169587 -13577.8 -26687.5 29867.2 20412 -7.41833 
180 1 7.557 11.998 3 6.02288 -146655 -118390 -18995.8 2742.89 -5210.05 -34045.1 -7.41771 
181 1 6.801 10.798 3 6.02264 -145282 -158057 -53390.5 25443.9 41993.6 7221.97 -7.41618 
182 1 7.462 9.544 3 6.02368 -164549 -169715 -7825.9 2154.83 14164.1 -44399.4 -7.41868 
220 1 9.918 18.052 3 6.02406 -149697 -180563 -63827.6 9005.75 -48853.3 956.459 -7.41565 
221 1 9.163 16.852 3 6.02523 -165658 -167354 -29382 -1285.55 -7351.81 39216.7 -7.41732 
222 1 9.824 15.598 3 6.02396 -142036 -161930 -18631 20952.6 -40756.5 -12562.8 -7.41819 
223 1 9.068 14.398 3 6.02414 -144480 -137424 -47794.5 6837.11 10736.4 28676.2 -7.41626 
224 1 9.73 13.144 3 6.02183 -189620 -140290 18899.5 6354.87 -24253.5 -24507.5 -7.4203 
225 1 8.974 11.944 3 6.02288 -138341 -123015 -76401 7321.07 24289.9 16533.8 -7.41421 
226 1 9.635 10.689 3 6.02218 -153941 -153816 41540.6 -15433.8 -3349.44 -35157.6 -7.42096 
227 1 8.879 9.49 3 6.01928 -136021 -137993 -106381 -17362 30678.7 2189.99 -7.41316 
678 2 0.094 15.979 6.4 6.02052 -152739 -169137 110305 -1681.92 22467.9 1829.25 -7.4252 
679 2 0.189 13.525 6.4 6.02379 -143586 -155683 76096.5 -16054.9 44795.9 2542.86 -7.42344 
680 2 0.283 11.071 6.4 6.02406 -154669 -176129 21580.3 2744.64 61441 2652.1 -7.42021 
716 2 2.173 17.288 6.4 6.02334 -136038 -136998 110027 -1973.23 6115.61 17452.7 -7.42508 
717 2 1.511 16.034 6.4 6.02368 -132332 -124826 -151102 2597.13 2397.74 -5905.6 -7.41077 
718 2 2.267 14.834 6.4 6.0262 -143968 -159621 87071.2 -13991.4 27692.2 13937.3 -7.42341 
719 2 1.606 13.58 6.4 6.02639 -150695 -139040 -139262 -11318.5 11833.2 -11992.7 -7.41128 
720 2 2.362 12.38 6.4 6.02217 -187416 -143730 42583.8 608.576 47909 8661.47 -7.42135 
721 2 1.7 11.126 6.4 6.02334 -155142 -117438 -127978 -1186.53 24973.8 -16444.3 -7.41219 
722 2 2.456 9.926 6.4 6.02484 -138267 -128275 -16945.5 2574.65 60208.1 2271.42 -7.41763 
761 2 3.59 17.343 6.4 6.02406 -143245 -163549 -141952 8270.17 -6076.5 -5842.26 -7.41162 
762 2 4.345 16.143 6.4 6.02523 -156269 -173625 74839.1 348.963 8393.04 28876.6 -7.42297 
763 2 3.684 14.889 6.4 6.02396 -141563 -143777 -125129 -12276.7 371.144 -17565.9 -7.41254 
764 2 4.44 13.689 6.4 6.02414 -140902 -144981 41272 -4370.17 28879 20574 -7.42101 
765 2 3.778 12.435 6.4 6.02183 -197517 -123113 -106228 -3714.12 13348.4 -27548.8 -7.41353 
766 2 4.534 11.235 6.4 6.02288 -139693 -131253 -7952.83 3858.83 45523.9 10143.9 -7.41779 
767 2 3.873 9.98 6.4 6.02219 -166772 -138105 -93983 16276.1 28430.6 -34348.2 -7.41361 
806 2 6.423 17.452 6.4 6.02406 -157957 -173094 41592 2289.34 -10446.4 42412.4 -7.42137 
807 2 5.762 16.198 6.4 6.02379 -141186 -147894 -104834 -8804.51 -13707.1 -15802.2 -7.41374 
808 2 6.518 14.998 6.4 6.02403 -145442 -121944 19146.4 -950.212 9087.07 33266.2 -7.41956 
809 2 5.857 13.743 6.4 6.02138 -161556 -160489 -76675.2 33678 -2143.68 -29277.7 -7.41516 
810 2 6.612 12.544 6.4 6.02288 -159838 -171423 -18895.7 33414.5 26809.7 21524.5 -7.41802 
811 2 5.951 11.289 6.4 6.02288 -151064 -113063 -53466.7 -2195.72 14762.8 -40027.7 -7.41583 
812 2 6.707 10.089 6.4 6.02264 -142793 -160486 -64698.1 -7182.23 38113.9 6998.39 -7.41555 
851 2 7.84 17.507 6.4 6.02219 -133097 -143914 -86720.3 4877.88 -29209.8 -8250.57 -7.41423 
852 2 8.596 16.307 6.4 6.02242 -149602 -116929 -18640.8 -2110.55 -9557.82 41640.3 -7.41763 
853 2 7.935 15.052 6.4 6.02288 -151686 -137481 -47778.8 16070.2 -19440.2 -23642.1 -7.41607 
854 2 8.69 13.852 6.4 6.02052 -156738 -169078 -45398.2 426.632 8464.01 30540.2 -7.41685 
855 2 8.029 12.598 6.4 6.02414 -152824 -153959 -13674.7 -17214.3 -2813.81 -36031.6 -7.41826 
856 2 8.785 11.398 6.4 6.02379 -138116 -156072 -80204.4 -9557.77 21425.4 16593.8 -7.41513 
857 2 8.124 10.144 6.4 6.02523 -163441 -170599 7348.38 729.43 16137.1 -45679 -7.41929 
897 2 10.013 16.361 6.4 6.0262 -137702 -131901 -29463.3 3588.64 -37691.3 -13298.9 -7.41668 
899 2 10.107 13.907 6.4 6.02368 -139229 -145079 15850.9 1935.99 -21944.9 -25753.9 -7.41964 
901 2 10.202 11.453 6.4 6.02639 -147667 -159506 48303.3 -13371.8 -2242.8 -35624.9 -7.42134 
265 1 11.335 17.997 3 6.02334 -154023 -125760 -77889.2 760.658 -23188.2 37476.7 -7.41486 
266 1 11.997 16.743 3 6.02368 -138277 -147443 -8056.72 6016.71 -56459.7 -1914.92 -7.41829 
267 1 11.241 15.543 3 6.0262 -154504 -147101 -86413.5 13950.4 -7350.8 29418.1 -7.41409 
268 1 11.902 14.289 3 6.02639 -145855 -162131 41537.7 15251.7 -41964.5 -12281.3 -7.42095 
269 1 11.146 13.089 3 6.02217 -187115 -130030 -104903 4041.14 6781.87 19717.4 -7.41356 
270 1 11.808 11.835 3 6.02334 -139023 -139234 74680.7 2790.97 -20847.4 -21809.2 -7.42318 
271 1 11.052 10.635 3 6.02484 -132044 -115883 -125338 9452.72 15326.4 8395.92 -7.41197 
272 1 11.713 9.38 3 6.022 -160981 -166787 87032.4 -29559.8 1902.48 -30941.4 -7.4237 
310 1 14.169 17.888 3 6.02288 -151038 -142604 -17516.9 -7761.75 -65274 3571.73 -7.41747 
311 1 13.414 16.688 3 6.02052 -171102 -151942 -117943 523.996 -22008.7 20425.9 -7.41285 
312 1 14.075 15.434 3 6.02414 -149841 -157886 42458.4 19902.9 -55357.3 -2119.04 -7.42118 
313 1 13.319 14.234 3 6.02379 -149162 -137258 -128737 16442.2 -8221.86 14673.5 -7.41252 
314 1 13.98 12.98 3 6.02523 -155465 -173076 87114.4 -202.641 -35418.5 -8170.94 -7.4236 
315 1 13.225 11.78 3 6.02406 -148613 -158154 -141988 468.996 1998.46 8185.76 -7.41162 
316 1 13.886 10.526 3 6.02379 -143181 -152611 109950 14415.6 -12199.1 -14071.2 -7.42514 
317 1 13.13 9.326 3 6.02414 -136240 -144418 -151181 23778.1 6321.62 767.088 -7.41097 
355 1 15.586 17.834 3 6.02288 -162841 -97995.5 -132106 -254.994 -30993.3 3005.71 -7.41129 
356 1 16.247 16.579 3 6.02288 -160289 -170666 21556.7 -31996.4 -61454.7 2832.26 -7.42021 
357 1 15.492 15.38 3 6.022 -173184 -145322 -138652 -30692.3 -18897.3 1789.41 -7.41154 
358 1 16.153 14.125 3 6.02519 -140365 -121413 76298.7 2728.24 -44822.6 2602.87 -7.42289 
359 1 15.397 12.925 3 6.02379 -146703 -132408 -149331 14628.7 -7347.88 1103 -7.41138 
360 1 16.058 11.671 3 6.02406 -151565 -171279 110316 -2371.62 -22468.7 1815.71 -7.42509 
361 1 15.303 10.471 3 6.02421 -145526 -156988 -157182 370.047 -430.308 427.716 -7.41063 
362 1 15.964 9.217 3 6.02484 -141071 -154310 121666 13937.6 1.08691 -45.2224 -7.42554 
400 1 18.42 17.725 3 6.02396 -142917 -160093 -16876 11087 -60213 2162.83 -7.41832 
401 1 17.664 16.525 3 6.02403 -150501 -85692.5 -128068 -12429.9 -25009.5 -16410.6 -7.4115 
402 1 18.326 15.27 3 6.01796 -192464 -137876 42628.7 -29612 -47900.9 8658.88 -7.42146 
403 1 17.57 14.071 3 6.02219 -156332 -133419 -139336 -17862.5 -11871.6 -11978.2 -7.41127 
404 1 18.231 12.816 3 6.02351 -139800 -125369 87070.6 2553.96 -27712.1 13954.7 -7.42296 
405 1 17.475 11.616 3 6.02334 -133513 -122694 -151092 1401.8 -2422.57 -5977.19 -7.41089 
406 1 18.137 10.362 3 6.02414 -137770 -140110 109866 4990.57 -6146.21 17491.7 -7.42473 
445 1 19.837 17.67 3 6.02801 -161124 -143739 -93842.8 12952.5 -28461.1 -34455.4 -7.41361 
446 1 20.498 16.416 3 6.02389 -142174 -165146 -7755.94 9293.55 -45501.6 9998.99 -7.4185 
447 1 19.742 15.216 3 6.02414 -197811 -125583 -106316 4785.15 -13397.8 -27602.9 -7.41343 
448 1 20.404 13.962 3 6.02219 -140635 -142480 41498.1 3265.67 -28847 20464 -7.42112 
449 1 19.648 12.762 3 6.02253 -139077 -109864 -125489 -874.425 -457.929 -17456.3 -7.41184 
450 1 20.309 11.507 3 6.02288 -161921 -168160 74700.4 -29550.7 -8453.09 29009.3 -7.42295 