ITEM: TIMESTEP
304
ITEM: NUMBER OF ATOMS
22328
ITEM: BOX BOUNDS pp pp pp
0.0000000000000000e+00 1.2975027299999999e+02
0.0000000000000000e+00 2.2473406499999999e+02
0.0000000000000000e+00 1.5000000000000000e+01
ITEM: ATOMS id type x y z c_csym c_2[1] c_2[2] c_2[3] c_2[4] c_2[5] c_2[6] c_3 
208 1 0.878034 8.57933 2.90999 6.01348 -171099 -142989 -2432.85 -24664.6 15628 -3333.57 -7.41525 
209 1 0.146245 7.36517 2.9062 6.02127 -150145 -164453 2481.92 -18005.2 20051.7 -1302.58 -7.41545 
210 1 0.831271 6.12382 2.90296 6.01848 -167359 -147177 -590.497 -13457.1 12594.5 -3014.56 -7.4151 
211 1 0.0985898 4.91013 2.90003 6.02406 -152280 -162475 1078.74 -8395.31 13353.8 -879.822 -7.41511 
212 1 0.782926 3.66845 2.89784 6.02266 -163397 -151263 237.478 -5425.74 8332.03 -2607.02 -7.41497 
213 1 0.0496353 2.45508 2.89606 6.02691 -154866 -160147 513.239 -2112.45 6545 -432.001 -7.41492 
214 1 0.733573 1.2132 2.89515 6.02738 -159480 -155398 427.086 -1105.11 2944.17 -2102.54 -7.41488 
215 1 -6.52942e-06 -6.77522e-06 2.89469 6.02964 -157518 -157477 418.965 41.2905 0.378951 -0.481222 -7.41486 
392 1 2.29551 8.5509 2.91077 6.01567 -161825 -152909 2926 -20005.6 22696.8 -4251.63 -7.41566 
393 1 2.98055 7.30948 2.90773 6.01613 -179683 -134726 -470.552 -18108.6 14007.7 -9770.6 -7.41529 
394 1 2.24873 6.09529 2.90379 6.0191 -160178 -154538 1195.41 -8689.12 16150.8 -4697.93 -7.41527 
395 1 2.9331 4.85356 2.90171 6.01987 -172492 -142193 532.167 -8390.5 10451.9 -9111.6 -7.41514 
396 1 2.20038 3.63985 2.89872 6.02229 -158859 -155826 451.996 -599.132 9341.61 -5032.92 -7.41502 
397 1 2.88434 2.39796 2.89784 6.02442 -164918 -149827 693.819 -2268.79 5715 -8249.68 -7.415 
398 1 2.15103 1.18458 2.89605 6.02512 -157883 -156985 363.124 3567.85 2608.18 -5277.93 -7.41491 
575 1 5.12869 8.49631 2.91432 6.01317 -194220 -119925 718.924 -20490.2 15234.2 -16396.3 -7.41562 
576 1 4.39796 7.28144 2.90963 6.01182 -171036 -143329 410.391 -6992.64 18210.2 -7524.87 -7.41544 
577 1 5.08239 6.03968 2.90775 6.01731 -184214 -130361 1696.28 -9189.69 12461.8 -15578.8 -7.41544 
578 1 4.35052 4.82544 2.90377 6.01675 -166363 -148190 -275.115 2961.15 11523.6 -8668.33 -7.41517 
579 1 5.03454 3.58355 2.90297 6.02151 -173547 -141072 1629.31 -1134.82 8497.2 -14473.2 -7.41526 
580 1 4.30178 2.3698 2.90001 6.02047 -161698 -152923 -118.789 9276.86 4764.53 -9647.4 -7.41503 
581 1 4.98571 1.12792 2.90045 6.02221 -162624 -152158 912.586 2868.84 3433.35 -13066.3 -7.41512 
758 1 6.54605 8.46907 2.91704 6.00417 -184164 -129859 -1593.35 -3663.61 19525.1 -9353.36 -7.4156 
759 1 7.23056 7.2273 2.91541 6.0121 -197917 -116491 4004.28 -7834.15 14281.2 -21705.1 -7.41589 
760 1 6.49976 6.01237 2.91073 6.00994 -176433 -137604 -2038.86 8309.77 13039.8 -11249.3 -7.41532 
761 1 7.18388 4.77049 2.91004 6.01785 -184896 -129840 3556.97 2040.74 11166.6 -20446.3 -7.41566 
762 1 6.45194 3.5562 2.90617 6.01532 -168636 -145553 -1443.72 16627.4 6369.17 -12945.3 -7.41518 
763 1 7.13595 2.31434 2.90659 6.0193 -170954 -143768 2216.96 7988 6896.07 -18820.5 -7.41544 
764 1 6.40315 1.10054 2.90378 6.01813 -160873 -153700 -182.673 20636.2 -143.709 -14426.7 -7.41517 
942 1 8.64789 7.20107 2.91902 6.00301 -188378 -124856 -5086.18 14808.6 13914.5 -12828.7 -7.41543 
944 1 8.60124 4.74424 2.91396 6.01011 -178154 -135486 -3927 25289.3 7403.43 -15159 -7.4153 
945 1 9.28537 3.50242 2.91437 6.01662 -181738 -132829 4629.82 14937.5 10242.3 -24165.1 -7.41591 
946 1 8.55336 2.28808 2.91073 6.01466 -167397 -146503 -1865.58 31590.9 932.406 -17252.3 -7.41531 
947 1 9.23767 1.04645 2.91221 6.01159 -165019 -149608 1868.05 18694.6 5739.79 -22003.2 -7.41564 
11192 2 0.539427 8.60668 6.48995 6.01795 -145606 -169380 3554.37 24582.2 23290.1 549.655 -7.41566 
11193 2 0.586186 6.15182 6.49702 6.02158 -148373 -166507 1626.63 13457.2 16779.9 -125.869 -7.41526 
11194 2 0.634532 3.69691 6.50215 6.02438 -151720 -163325 691.377 5510.92 10001.9 -827.958 -7.415 
11195 2 0.683884 1.24192 6.50485 6.02733 -155541 -159599 426.742 1179.63 3293.84 -1502.12 -7.41488 
11196 2 -1.88895e-06 1.92312e-05 6.50531 6.02963 -157518 -157538 418.898 -22.6378 -0.435462 -1.13845 -7.41487 
11372 2 1.95699 8.63515 6.48925 6.01013 -154804 -159649 -2043.17 20742.1 16266.4 -5667.09 -7.41531 
11373 2 2.68933 7.42133 6.49224 6.01736 -136011 -178760 1693.41 18628.1 19720 -3004.48 -7.41544 
11374 2 2.00371 6.18039 6.49622 6.01682 -155466 -159401 -276.607 9355.42 13270.4 -5645.62 -7.41516 
11375 2 2.73677 4.96693 6.49828 6.01992 -142654 -172349 531.338 8947.97 13114.4 -4497.76 -7.41514 
11376 2 2.05202 3.72553 6.50127 6.02228 -156169 -158799 452.19 1061.3 9028.08 -5574.19 -7.41502 
11377 2 2.78551 2.51227 6.50216 6.02263 -149800 -165185 239.111 2576.61 6424.82 -5912.53 -7.41497 
11378 2 2.10135 1.27054 6.50394 6.02689 -157063 -158052 515.837 -3408.06 3642.79 -5454.25 -7.41493 
11379 2 2.83493 0.0573216 6.50349 6.02501 -157331 -157652 440.77 296.464 18.0063 -7179.05 -7.41493 
11555 2 4.79367 8.68974 6.48567 6.01312 -120809 -193573 718.413 21665 21815.7 -4995.65 -7.41562 
11556 2 4.10693 7.44948 6.49036 6.01194 -144373 -170315 410.551 8298.04 15625.2 -12007.9 -7.41544 
11557 2 4.83993 6.23599 6.49227 6.01613 -130339 -184140 -469.076 10295.1 15463.1 -7244.86 -7.41529 
11558 2 4.15432 4.99511 6.49621 6.01914 -148599 -166392 1197.3 -1889.48 12144.1 -11641.8 -7.41527 
11559 2 4.88775 3.78182 6.49704 6.01843 -140621 -173996 -588.762 2075.96 8907.41 -9398.56 -7.41511 
11560 2 4.20301 2.54046 6.49997 6.02402 -152813 -162046 1080.86 -8620.77 7437.32 -11128.5 -7.41511 
11561 2 4.93656 1.3272 6.49955 6.01983 -151563 -163209 14.6655 -2534.02 2484.3 -11362.3 -7.41505 
11562 2 4.25239 0.0854978 6.50128 6.02226 -157221 -157535 485.181 -11166.9 1689.43 -10466.4 -7.41502 
11738 2 6.21137 8.71717 6.48295 6.0075 -130503 -184067 2238.37 5779.7 17651.4 -18122.6 -7.41586 
11739 2 6.94427 7.50362 6.48467 6.01301 -115527 -198301 -2635.73 9794.49 17049.5 -9044.82 -7.41544 
11740 2 6.25756 6.26342 6.48923 6.01584 -137884 -177031 2928.65 -6390.53 15031.1 -17530.2 -7.41565 
11741 2 6.99091 5.05007 6.49001 6.01347 -128650 -185439 -2430.83 -287.559 10698.2 -11865.2 -7.41525 
11742 2 6.30531 3.80924 6.49379 6.02122 -145310 -169431 2483.56 -15220.3 11152.9 -16717.9 -7.41544 
11743 2 7.03881 2.59592 6.49343 6.01425 -142537 -171856 -1267.02 -7023.5 4356.22 -14489.5 -7.4152 
11744 2 6.35405 1.3546 6.49621 6.01952 -153126 -161611 1289.31 -20162.3 6106.41 -15683.6 -7.41527 
11745 2 7.08737 0.141125 6.4946 6.01582 -156815 -157868 441.991 -9713.88 -1625.82 -16826.6 -7.41528 
11921 2 9.04998 8.76943 6.47611 6.00934 -99209.6 -213852 -6152.77 7872.64 17940 -9983.03 -7.41553 
11922 2 8.36199 7.53003 6.48094 6.0129 -124715 -189973 5866.6 -11940.1 17545.9 -23027 -7.41618 
11923 2 9.09522 6.31657 6.48166 6.00854 -114440 -198804 -5536.86 -4158.02 11832.4 -13353.2 -7.41536 
11924 2 8.40854 5.07642 6.48597 6.01619 -135176 -179607 4994.78 -22904.6 14598.6 -21982.8 -7.41591 
11925 2 9.14196 3.86301 6.48568 6.00758 -130781 -182912 -3717.83 -12923.4 5626.43 -16540.9 -7.41534 
11926 2 8.45635 2.62223 6.48922 6.01604 -145915 -168805 3104.02 -30134.6 10407.5 -20670.2 -7.41565 
11927 2 9.18964 1.40868 6.4878 6.00856 -147873 -166416 -1089.4 -17934 -345.574 -19447.8 -7.41544 
11928 2 8.50484 0.167402 6.49036 6.01574 -156749 -157720 646.69 -33157.7 5130.26 -19092.7 -7.41544 
941 1 9.37746 8.41679 2.92412 6.00504 -212686 -101500 7606.25 -4917.18 15863.2 -27257.8 -7.41646 
943 1 9.33215 5.95921 2.91846 6.0118 -197725 -116748 6687.59 6818.66 13642.7 -25918 -7.4162 
1124 1 10.7947 8.39184 2.92805 5.99598 -201383 -110459 -9506.53 22202.3 14223.2 -13544.6 -7.41549 
1125 1 11.4792 7.15005 2.92764 6.00531 -211604 -102681 11109 12931.4 15867.4 -30708.5 -7.41685 
1126 1 10.7495 5.93429 2.92277 6.00378 -189073 -123609 -7741.57 34743.9 7917.63 -16388.5 -7.41539 
1127 1 11.4338 4.69254 2.92316 6.01194 -194159 -120582 8307 23080 13382.1 -28903.5 -7.4165 
1128 1 10.7027 3.47752 2.91898 6.01049 -176286 -137003 -4817.94 43266.8 1549.95 -18996.8 -7.41543 
1129 1 11.3872 2.23597 2.92031 6.00794 -175427 -139047 4523.3 29048 9724.13 -26666.5 -7.41614 
1130 1 10.6551 1.02156 2.91703 6.01238 -163137 -150669 -1178.61 47216.9 -4532.05 -21348.1 -7.4156 
1307 1 13.6249 8.34324 2.93703 5.99865 -225856 -88069.2 16770.7 19976 17790.6 -34674.9 -7.4176 
1308 1 12.8965 7.12661 2.93201 5.99751 -201026 -110189 -12899.5 44615 7998.74 -16791.2 -7.41541 
1309 1 13.581 5.88497 2.93238 6.00592 -207370 -107222 13271.9 32119.2 16241.8 -32895.1 -7.4172 
1310 1 12.8511 4.66918 2.9279 6.00634 -186694 -125653 -9138.73 55367.7 1778.97 -19792 -7.41549 
1311 1 13.5357 3.42772 2.92907 6.00481 -187411 -127130 8509.2 40316.1 13475.3 -30661.1 -7.41675 
1312 1 12.8046 2.21264 2.92534 6.00957 -171594 -141399 -4377.41 61595.5 -4271.55 -22546.8 -7.4157 
1313 1 13.4896 0.971504 2.92737 5.99894 -166516 -147514 2975.39 43990.3 9561.07 -28005.6 -7.41632 
1490 1 15.0421 8.32137 2.94118 5.99155 -213413 -96184.2 -19261.1 54352.8 7740.84 -16536.3 -7.41535 
1491 1 15.727 7.07988 2.94149 5.99983 -220816 -93617.6 19417.6 41593.2 18750.5 -36030 -7.41797 
1492 1 14.9983 5.86324 2.93692 6.00068 -197869 -113184 -14769.4 67309.1 1711.05 -19804.4 -7.41547 
1493 1 15.6832 4.62192 2.93791 6.0003 -200172 -114384 13793.2 52041.1 16901.3 -33874.9 -7.41746 
1494 1 14.9531 3.40609 2.93398 6.00746 -181470 -130542 -8979.68 75961.8 -4265.37 -22842.9 -7.41573 
1495 1 15.6383 2.16507 2.93573 5.99518 -178262 -135811 7095.24 58048.1 13819.3 -31293.1 -7.41692 
1496 1 14.907 0.949925 2.93257 6.00281 -164639 -148257 -2412.07 79810.4 -9840.49 -25641.2 -7.4161 
1673 1 17.8716 8.27737 2.95007 5.99397 -233880 -80209.5 26517.5 51028.2 20846 -38237.5 -7.4188 
1674 1 17.1442 7.05985 2.94556 5.99542 -209326 -100159 -21511.2 78706 1440.72 -19199.4 -7.41537 
1675 1 17.8295 5.8187 2.94633 5.99583 -213095 -101403 20209.2 63706 19913.1 -36229.2 -7.41823 
1676 1 17.1005 4.60206 2.94239 6.00471 -192163 -118692 -14862.6 89759.1 -4416.94 -22404.5 -7.41568 
1677 1 17.786 3.36118 2.94386 5.99215 -190765 -123485 12531.7 72105.2 17694.8 -33788.9 -7.41762 
1678 1 17.0556 2.14531 2.9406 5.99964 -174297 -137636 -7123.41 95991.4 -10004.3 -25389.8 -7.4161 
1679 1 17.7417 0.904826 2.94279 5.98585 -167456 -145968 4025.91 75674.3 14267.9 -30963.1 -7.41699 
12104 2 10.4678 8.79462 6.47195 6.0086 -110165 -204527 10105 -17997 19592.9 -27977.4 -7.41682 
12105 2 11.2009 7.58103 6.4726 6.00241 -98903.3 -213329 -10001.2 -9042.97 12391.8 -13989.9 -7.41542 
12106 2 10.5129 6.34165 6.4771 6.01008 -122947 -191799 8766.37 -31143 17631.7 -26756.2 -7.41651 
12107 2 11.2462 5.12812 6.47691 6.00069 -117109 -195523 -7506.08 -19895.1 6358.57 -17612.7 -7.41543 
12108 2 10.5596 3.888 6.48088 6.00953 -136170 -178352 6142.19 -40669.9 14399.1 -25235 -7.41618 
12109 2 11.2928 2.67435 6.4797 6.00097 -136501 -177042 -3926.68 -27225.5 439.233 -20980.2 -7.41557 
12110 2 10.6072 1.43361 6.48292 6.01106 -149649 -164524 2656.67 -46319.5 9960.63 -23429.5 -7.41585 
12111 2 11.34 0.219663 6.48067 6.00335 -156057 -158034 262.442 -30515.6 -5029.9 -24013.9 -7.41582 
12287 2 13.3079 8.84321 6.46339 5.9964 -82576.7 -227880 -15759.2 -14602.1 12477.2 -13938.9 -7.41539 
12288 2 12.6187 7.60467 6.46777 6.00364 -109397 -204899 13817 -39464.1 20148.2 -30913 -7.41722 
12289 2 13.3518 6.39096 6.46766 5.99406 -102385 -208839 -12643.3 -27557.7 6650.6 -17860.9 -7.41544 
12290 2 12.6639 5.15159 6.47178 6.00251 -124622 -189457 10486.5 -51453.2 17932.4 -29240.6 -7.41682 
12291 2 13.397 3.9378 6.47085 5.99359 -123331 -188798 -8161.04 -37212.3 816.093 -21560 -7.41563 
12292 2 12.7104 2.69772 6.47445 6.00346 -140382 -173557 6002.24 -59451 14437.3 -27278.6 -7.4164 
12293 2 13.4431 1.48366 6.47258 5.99515 -144992 -168344 -2774.36 -42892.1 -4698.96 -24959.1 -7.41593 
12294 2 12.7574 0.242983 6.47546 6.00659 -156116 -157583 860.265 -63021.4 9794 -25044.5 -7.41601 
12470 2 14.7259 8.86529 6.45849 5.99724 -95098.5 -218834 20037.2 -47607.8 22073.4 -34343.2 -7.418 
12471 2 15.4587 7.65138 6.45843 5.98781 -87055.7 -222303 -18989.8 -35394.7 6599.59 -17451.3 -7.41538 
12472 2 14.7696 6.41282 6.46242 5.9954 -112071 -201576 16090.8 -61715.6 20892.5 -32582 -7.41756 
12473 2 15.5025 5.19884 6.46172 5.98647 -109284 -201210 -13725.6 -47327.7 892.143 -21354.1 -7.41561 
12474 2 14.8147 3.95949 6.46545 5.99564 -129554 -183977 10702.9 -72183.9 18405.2 -30521.9 -7.41706 
12475 2 15.5474 2.74529 6.46399 5.9872 -132402 -179756 -7256.81 -55492.2 -4633.84 -24996.3 -7.41596 
12476 2 14.8607 1.50526 6.46721 5.99809 -147243 -166244 4350.1 -78434.9 14656.7 -28203.1 -7.41656 
12477 2 15.5928 0.29067 6.46489 5.99005 -155591 -157847 -119.863 -59232.9 -9644.75 -28322.2 -7.41641 
12653 2 17.5671 8.90929 6.44955 5.98219 -71885.2 -235203 -26289 -43109.4 6294.36 -16543 -7.41524 
12654 2 16.8766 7.67155 6.4532 5.98852 -98942.6 -213956 22778.7 -71247.5 23197.5 -35170.1 -7.41836 
12655 2 17.6092 6.45736 6.45268 5.98001 -94725.2 -213584 -20420.4 -57216.4 764.179 -20527.8 -7.4155 
12656 2 16.9202 5.21878 6.45632 5.98796 -117820 -195107 16646.9 -84145.3 21742 -33068.1 -7.4178 
12657 2 17.6528 4.0044 6.45525 5.97978 -118887 -191408 -13052.7 -67822.9 -4721.9 -24295.9 -7.4159 
12658 2 16.965 2.76507 6.45861 5.9896 -136974 -176046 9245.47 -92951.3 18958.6 -30721.2 -7.4172 
12659 2 17.6971 1.55035 6.45686 5.98174 -143434 -168811 -4707.08 -74116.1 -9844.17 -27788.4 -7.4164 
12660 2 17.0103 0.310396 6.45971 5.99351 -155857 -156831 1120.28 -97065.7 14962.8 -28159.6 -7.41662 
1856 1 19.2888 8.25904 2.95344 5.9907 -220421 -87113.3 -29068.7 89109.4 1047.29 -18130.6 -7.4152 
1857 1 19.9745 7.0181 2.95393 5.99185 -225428 -88778.6 27491.3 74811.2 22438.7 -37687.5 -7.41904 
1858 1 19.2467 5.80061 2.95011 6.00046 -202969 -106492 -21778.6 102460 -4639.71 -21402.2 -7.41554 
1859 1 19.9325 4.55992 2.95127 5.98787 -203375 -111024 19069.5 85595.9 21090.1 -35445.4 -7.41836 
1860 1 19.2033 3.34327 2.9481 5.99717 -184643 -126292 -13094.5 111224 -10190.3 -24465.4 -7.41601 
1861 1 19.8895 2.10293 2.94997 5.98251 -179945 -133787 9514.75 91709.5 18451 -32818.8 -7.41765 
1862 1 19.1591 0.887003 2.94749 5.98976 -165664 -146151 -3587.21 114798 -15255.7 -27331.1 -7.41659 
2039 1 22.1182 8.2201 2.96044 5.98775 -236787 -77072.5 35308.5 84897.2 24430.2 -38273 -7.41986 
2040 1 21.3916 7.00176 2.95682 5.99584 -213314 -94491.9 -29405.9 113659 -4865.54 -19989.6 -7.41534 
2041 1 22.0779 5.76129 2.95761 5.98375 -215340 -98858.7 26404.6 98058.6 23930.4 -36263.2 -7.41914 
2042 1 21.3498 4.54382 2.95466 5.9954 -195085 -114547 -20040.9 124952 -10326.8 -23044.2 -7.41584 
2043 1 22.0363 3.30367 2.95619 5.98004 -192258 -121502 16084.9 106730 22095 -33877.4 -7.41835 
2044 1 21.3068 2.08699 2.95391 5.98681 -175919 -134899 -9545.44 131097 -15450 -25909.6 -7.41646 
2045 1 21.994 0.847265 2.95614 5.97364 -168126 -144542 4916.81 110152 19022.8 -31157.6 -7.41756 
2222 1 23.5353 8.20541 2.96231 5.99148 -222726 -83042.3 -37399.3 123110 -5051.19 -18306.7 -7.41509 
2223 1 24.2221 6.9652 2.96268 5.98035 -226181 -87699.8 34196.7 108976 26175.8 -36300.8 -7.41992 
2224 1 23.4951 5.74692 2.95999 5.99241 -204943 -103241 -27624.1 136659 -10366.3 -21288.4 -7.41561 
2225 1 24.182 4.50699 2.96116 5.97639 -204035 -109797 23406.4 120111 25132.6 -34177.2 -7.41908 
2226 1 23.4536 3.28954 2.9592 5.98471 -186037 -123687 -16442.4 145475 -15490.5 -24081.8 -7.41625 
2227 1 24.141 2.04998 2.96115 5.97114 -180620 -132460 11481.7 126213 22786.2 -31728 -7.41821 
2228 1 23.4114 0.833262 2.95982 5.97698 -166527 -144343 -4443.92 148898 -20077.7 -26716.7 -7.417 
2405 1 26.3651 8.17154 2.96643 5.97779 -235722 -77622 42112.2 118299 27820.2 -35656.9 -7.42067 
2406 1 25.6392 6.95247 2.96397 5.98954 -213764 -92410 -35505.2 146329 -10290.1 -19337.8 -7.41532 
2407 1 26.3267 5.71278 2.96475 5.97304 -214874 -98817.8 31129.3 131614 27537 -33799 -7.41981 
2408 1 25.5993 4.49456 2.96312 5.98338 -195667 -112693 -23932.8 157585 -15356.7 -22015 -7.41598 
2409 1 26.287 3.2552 2.96479 5.96951 -192270 -120849 18763.4 140335 25920.2 -31630.2 -7.41889 
2410 1 25.5583 2.03776 2.96387 5.97467 -176737 -133207 -11266.2 163674 -20045.1 -24527.4 -7.41675 
2411 1 26.2466 0.798815 2.96633 5.96328 -168720 -143170 5568.23 143811 23097.4 -29179.9 -7.41796 
2588 1 27.7822 8.16031 2.96663 5.98729 -221455 -82771 -43376 153721 -10097.3 -17307.4 -7.41501 
2590 1 27.7438 5.70193 2.96562 5.98186 -204437 -102384 -31685.2 167217 -15054.5 -19843.2 -7.41567 
2592 1 27.7043 3.24462 2.96648 5.97323 -186155 -122444 -18663.1 176019 -19784.1 -22209.2 -7.41644 
2594 1 27.664 0.788379 2.96891 5.96555 -167267 -142661 -4875.63 179299 -23951.4 -24446.8 -7.41732 
12836 2 18.9851 8.92776 6.44441 5.98212 -85886.6 -226107 30276.7 -79739.4 24803.8 -36952.5 -7.4192 
12837 2 19.7174 7.71331 6.44397 5.97435 -80455 -225400 -27951.5 -66457.2 507.631 -19234.3 -7.41532 
12838 2 19.0271 6.47552 6.44735 5.98069 -105536 -206428 23604.7 -94862.5 24363.5 -34857.8 -7.4186 
12839 2 19.7594 5.26093 6.4466 5.97313 -105118 -202939 -19912.5 -79449.9 -4872.66 -23020.4 -7.41575 
12840 2 19.0704 4.02235 6.44996 5.98141 -125828 -186381 15377 -106237 22580.4 -32530.4 -7.41793 
12841 2 19.8024 2.80746 6.44874 5.97404 -130472 -179945 -10595.9 -88393.4 -10044.6 -26574.5 -7.4163 
12842 2 19.1146 1.56819 6.4518 5.98443 -146113 -166281 6113.81 -112997 19484.3 -30016.1 -7.41724 
12843 2 19.846 0.352856 6.44998 5.97718 -155583 -156856 -580.75 -92580.2 -14679.3 -29851.9 -7.41694 
13019 2 21.8269 8.96673 6.43574 5.9697 -67094 -235949 -35984.7 -74791.7 175.024 -17615.3 -7.41508 
13020 2 21.1353 7.72973 6.43872 5.97411 -93483.4 -217213 31265.6 -104054 26237.8 -35875.3 -7.41943 
13021 2 21.8673 6.51488 6.43818 5.96754 -91673 -213717 -27520.9 -89964.2 -5028.43 -21322.6 -7.41553 
13022 2 21.1772 5.27705 6.44141 5.97384 -114480 -196750 22466.4 -117856 25445.7 -33604.5 -7.41871 
13023 2 21.909 4.06197 6.44066 5.96739 -117345 -190899 -17503.2 -101485 -10169.7 -24845.5 -7.41611 
13024 2 21.22 2.82341 6.44383 5.97588 -135626 -176133 12340.1 -127366 23292.2 -31174.2 -7.41794 
13025 2 21.9514 1.60793 6.4427 5.96943 -143185 -167740 -6488.27 -108375 -14943.9 -28136.6 -7.41679 
13026 2 21.2634 0.368742 6.44551 5.98023 -156153 -155529 1460.96 -131915 19880 -28610.9 -7.41717 
13202 2 23.245 8.98148 6.43054 5.96843 -82265 -226999 39291.4 -111577 27386.2 -36158.7 -7.42025 
13203 2 23.9766 7.76634 6.43006 5.96306 -79264.8 -223302 -35541.7 -99091.6 -5163.18 -19348.9 -7.41526 
13204 2 23.2852 6.52926 6.43305 5.96719 -103369 -206562 30182.2 -127540 27536.6 -33969.6 -7.4195 
13205 2 24.0167 5.31393 6.43265 5.96185 -104669 -201001 -25099.6 -112940 -10188 -22759.8 -7.41584 
13206 2 23.3266 4.07609 6.43585 5.96813 -124916 -185861 19485.7 -139615 26329.4 -31647.7 -7.41868 
13207 2 24.0579 2.86044 6.43533 5.96274 -130560 -178189 -13385.5 -122457 -15010.1 -25986.6 -7.41655 
13208 2 23.3689 1.62194 6.43839 5.97139 -146204 -165035 7744.19 -146830 23786.2 -29230.5 -7.41783 
13209 2 24.0994 0.405819 6.43756 5.96581 -156087 -155303 -987.42 -127035 -19317.5 -28986.9 -7.41736 
13385 2 26.0871 9.01545 6.42229 5.95964 -68027.5 -231288 -43659.1 -106646 -5274.19 -17237 -7.41495 
13386 2 25.3945 7.77908 6.42493 5.96159 -93153.6 -215350 38180.7 -135188 28888.6 -33698.6 -7.4203 
13387 2 26.1257 6.56348 6.42473 5.95751 -92843 -209842 -33055.2 -122485 -10105.2 -20466.5 -7.41554 
13388 2 25.4345 5.32634 6.42787 5.96142 -114576 -194870 27202.3 -149501 28593.1 -31500.9 -7.41943 
13389 2 26.1655 4.11048 6.42784 5.9573 -118495 -187873 -20937.9 -134592 -14877 -23561.9 -7.41625 
13390 2 25.4754 2.87265 6.43111 5.96353 -136095 -174338 14914.5 -159494 26936.1 -29238.1 -7.41852 
13391 2 26.2059 1.6564 6.43103 5.95922 -144102 -165563 -7866.16 -141871 -19311.8 -26478.8 -7.41707 
13392 2 25.5169 0.417971 6.43406 5.96798 -156884 -153761 1890.21 -164354 24010.4 -26922.6 -7.41761 
13568 2 27.5051 9.02669 6.41712 5.95711 -83856.5 -222843 46155.1 -140726 29578.9 -32896.9 -7.42106 
13570 2 27.5436 6.57431 6.41991 5.95589 -105043 -203002 35146.9 -157104 30130 -30828.2 -7.42018 
13572 2 27.5831 4.12104 6.42361 5.95682 -126407 -182987 22615.5 -169563 29340.3 -28725.9 -7.41923 
13574 2 27.6234 1.66682 6.42757 5.96003 -147386 -162809 9082.74 -177055 27228.2 -26604.7 -7.41826 
2589 1 28.4701 6.9209 2.96697 5.97052 -224049 -89101.4 38930.1 141037 29316.5 -32852.3 -7.42053 
2591 1 28.432 4.4628 2.96699 5.96664 -203120 -109976 26410.9 152215 28412.8 -30958.2 -7.41957 
2593 1 28.3928 2.00585 2.96879 5.9616 -180726 -131622 12812.4 158364 26251.4 -28797.7 -7.41859 
2771 1 30.6126 8.13114 2.96803 5.96881 -231373 -80942.4 46550.7 148240 30506.6 -31453.7 -7.42121 
2772 1 29.8873 6.91147 2.96683 5.97964 -211592 -93265 -39410.4 174439 -14607 -17668.8 -7.41533 
2773 1 30.5759 5.67259 2.96787 5.96425 -212333 -100502 34114 161593 30282.6 -29820.5 -7.42025 
2774 1 29.8492 4.45371 2.96767 5.97264 -194928 -112478 -26312.2 185603 -19318.6 -19881.1 -7.41609 
2775 1 30.5381 3.21513 2.96981 5.96001 -191560 -120859 20397.5 170390 28782.8 -27936.7 -7.41923 
2776 1 29.8101 1.99698 2.97041 5.96409 -177007 -131912 -12206.3 191623 -23627 -21953.4 -7.41696 
2777 1 30.4996 0.758792 2.97343 5.95464 -169464 -141569 5909.77 173818 26156 -25826.4 -7.41821 
2954 1 32.0297 8.12297 2.967 5.97814 -217125 -85407 -46876.2 179209 -14044 -15554.9 -7.41499 
2955 1 32.7188 6.88437 2.9677 5.96263 -219771 -92441.7 41636.2 168610 31574.3 -28316 -7.42089 
2956 1 31.993 5.66483 2.96764 5.97263 -201993 -103607 -33936.4 192469 -18686.9 -17622.3 -7.41573 
2957 1 32.6824 4.42647 2.96959 5.95891 -200802 -111323 28034 179681 30720.7 -26693.5 -7.41986 
2958 1 31.9553 3.20766 2.97052 5.96353 -185618 -122166 -19790.7 201180 -23071.6 -19537.3 -7.41658 
2959 1 32.645 1.96963 2.97352 5.95306 -180530 -130978 13455.5 185833 28699.8 -24860.4 -7.41882 
2960 1 31.9169 0.751481 2.97513 5.95615 -168207 -140914 -4956.22 204424 -26884.3 -21341.7 -7.41753 
3137 1 34.8608 8.09793 2.96687 5.96176 -225532 -85798.8 48801.7 173485 32346 -26548.2 -7.42149 
3138 1 34.1359 6.87778 2.96675 5.97127 -207521 -95943.2 -41326.5 197089 -17929.7 -15471 -7.41537 
3139 1 34.8257 5.63966 2.96846 5.95739 -208617 -103264 35499.4 186557 32110.7 -25153.9 -7.42047 
3140 1 34.0996 4.42023 2.96951 5.96356 -192790 -113385 -27369.1 207922 -22331.9 -17249 -7.41619 
3141 1 34.7896 3.18238 2.97243 5.95226 -189980 -121428 21054 195128 30696.7 -23577.5 -7.41941 
3142 1 34.0623 1.96362 2.9744 5.95556 -176966 -131199 -12515.8 213856 -26312 -18903.7 -7.41711 
3143 1 34.7527 0.726113 2.97821 5.94731 -169949 -140029 5924.18 198637 28258.2 -21833.1 -7.41836 
3320 1 36.2779 8.09235 2.96542 5.97048 -211536 -89744.4 -48335.9 199358 -17088.8 -13448.8 -7.41502 
3321 1 36.9682 6.8545 2.96688 5.95657 -214465 -96645.9 42639.3 191145 33011.7 -23404.8 -7.42106 
3322 1 36.2429 5.6345 2.96781 5.96412 -198544 -105924 -34743.8 212301 -21454.2 -15104.7 -7.4158 
3323 1 36.9333 4.39685 2.97059 5.95188 -197891 -113254 28501.9 201975 32189.8 -22053.8 -7.42 
3324 1 36.2068 3.17751 2.97266 5.95565 -184244 -122517 -20091 220755 -25534.2 -16635.6 -7.41669 
3325 1 36.8975 1.94014 2.97648 5.9465 -179942 -130596 13507.6 207970 30309.4 -20556.9 -7.41893 
3326 1 36.17 0.721397 2.97933 5.94883 -168809 -139326 -4830.55 223916 -29039.2 -18064.2 -7.41767 
13569 2 28.2359 7.81078 6.41695 5.95433 -82327 -217318 -41067 -130171 -9947.87 -18104.6 -7.4152 
13571 2 28.2743 5.35821 6.42022 5.95312 -107302 -196402 -28821.8 -144471 -14581.8 -21009.6 -7.41591 
13573 2 28.3135 2.90461 6.42417 5.95384 -132395 -174897 -15381.3 -154326 -19038.2 -23788.8 -7.41672 
13575 2 28.3532 0.449941 6.42806 5.95672 -157024 -153321 -1310.85 -159062 -23031.4 -26396.1 -7.41763 
13751 2 30.3472 9.05603 6.40946 5.95236 -73187.6 -223187 -48878.2 -135792 -9744.7 -15793.3 -7.41487 
13752 2 29.6538 7.82019 6.41207 5.95159 -96593.5 -209863 43031.2 -162428 31017.6 -29744 -7.42091 
13753 2 30.3841 6.60381 6.41256 5.95014 -97109.2 -203466 -36748.2 -152064 -14179.6 -18463.7 -7.41554 
13754 2 29.692 5.36726 6.41593 5.95136 -117472 -190635 30510.2 -176994 31047.4 -27801 -7.41994 
13755 2 30.4221 4.15063 6.41696 5.94975 -121610 -183219 -23214.8 -164321 -18562.6 -21052.8 -7.41634 
13756 2 29.7311 2.91346 6.42066 5.95333 -138104 -171148 16770.7 -187148 29747.2 -25867.8 -7.41893 
13757 2 30.4607 1.69645 6.4219 5.95142 -145959 -162490 -8811.21 -171757 -22650.5 -23520.6 -7.41724 
13758 2 29.7706 0.458731 6.42547 5.95759 -158022 -151572 2345.29 -192131 27202.8 -23930.5 -7.41792 
13934 2 31.7652 9.06418 6.40455 5.94849 -89264.7 -215217 50630.9 -165470 31355.2 -28350.3 -7.4216 
13935 2 32.4951 7.84749 6.40507 5.94831 -88395.9 -209023 -44474.8 -157474 -13716.5 -16029 -7.41518 
13936 2 31.8019 6.61153 6.40822 5.94716 -109400 -197015 38328.7 -182047 32129.2 -26571.3 -7.42063 
13937 2 32.5317 5.39466 6.40955 5.94686 -111833 -190094 -31088.1 -171928 -17957.9 -18389.2 -7.41595 
13938 2 31.8397 4.15808 6.41337 5.94789 -129612 -178481 24632.5 -194566 31612 -24818.3 -7.4196 
13939 2 32.5693 2.9409 6.4152 5.94717 -135460 -170491 -16623.2 -181805 -22042.1 -20673.8 -7.41683 
13940 2 31.8782 1.70376 6.41921 5.95088 -149371 -159673 10030.3 -202111 29814.6 -23085.5 -7.41855 
13941 2 32.6072 0.486152 6.42114 5.94899 -158666 -150765 -1601.16 -186581 -25716 -22843 -7.41779 
14117 2 34.607 9.08947 6.39804 5.94757 -81117.2 -212767 -51820.1 -160852 -13226.4 -13787.1 -7.41484 
14118 2 33.9129 7.85405 6.40074 5.9442 -102669 -201932 45864.9 -184817 32672.9 -25125.1 -7.42129 
14119 2 34.6423 6.63691 6.40224 5.94516 -103356 -195373 -38777.2 -177107 -17286.3 -15890.5 -7.41557 
14120 2 33.9494 5.40086 6.40592 5.94375 -122034 -184580 32413.1 -199360 32879.4 -23549.2 -7.42025 
14121 2 34.6787 4.18349 6.40817 5.94401 -126130 -177399 -24480.1 -189311 -21292.3 -17954.4 -7.41641 
14122 2 33.9868 2.94689 6.4124 5.94549 -141248 -166893 17874.5 -209499 31818.6 -22008.4 -7.41918 
14123 2 34.7156 1.72917 6.41501 5.9446 -148537 -158785 -9416.04 -196635 -25034.3 -19947.6 -7.41735 
14124 2 34.0245 0.492076 6.41928 5.94945 -159737 -149032 2733.03 -214444 29565.4 -20473.5 -7.41812 
14300 2 36.0249 9.09503 6.39384 5.94243 -97180 -205395 52977.3 -185523 32769.8 -23538.2 -7.4219 
14301 2 36.7539 7.87759 6.39537 5.9439 -96371.9 -199239 -46115.9 -180171 -16584 -13618.3 -7.4152 
14302 2 36.0601 6.64204 6.39867 5.94089 -115586 -189338 39927.6 -201956 33623.8 -22134 -7.42088 
14303 2 36.789 5.42444 6.40118 5.94199 -117905 -182690 -32172.1 -194437 -20469.2 -15441 -7.416 
14304 2 36.0963 4.18834 6.40534 5.94138 -134071 -172852 25643.9 -214302 33260.2 -20773.4 -7.41981 
14305 2 36.825 2.97047 6.40844 5.94138 -139385 -165520 -17282.2 -204154 -24203.5 -17222.9 -7.4169 
14306 2 36.1331 1.73388 6.413 5.94402 -151990 -156223 10570.8 -221688 31688.2 -19430.2 -7.41873 
14307 2 36.8613 0.515625 6.41622 5.94285 -160305 -148118 -1903.22 -208717 -27566.8 -18938.2 -7.41788 
3503 1 39.1099 8.07077 2.96533 5.95634 -218208 -91472.7 49368.8 193555 33484.6 -21523.7 -7.42161 
3504 1 38.3853 6.85025 2.96589 5.96452 -202432 -99865.2 -41787.2 214537 -20483.7 -13104.8 -7.41543 
3505 1 39.0762 5.61283 2.96849 5.95193 -204027 -106713 35664.1 206433 33232.4 -20358.6 -7.42056 
3506 1 38.3505 4.39296 2.97036 5.95624 -190096 -115125 -27499.7 225068 -24600.5 -14533.6 -7.41628 
3507 1 39.0415 3.15576 2.97411 5.9464 -188080 -122390 20965 214807 31909.8 -19080.8 -7.41949 
3508 1 38.3148 1.93648 2.97702 5.9489 -176523 -130695 -12427.8 230810 -28283.4 -15851.1 -7.41722 
3509 1 39.0061 0.699559 2.98153 5.94193 -170486 -138523 5675.02 218193 29668.8 -17705.4 -7.41843 
3686 1 40.527 8.06731 2.96423 5.96435 -204456 -95069.6 -48429 214650 -19452.9 -11244.8 -7.41509 
3687 1 41.2183 6.83013 2.96662 5.95196 -208098 -101422 42470.3 208817 33878.1 -18563.2 -7.4211 
3688 1 40.4933 5.60978 2.96804 5.95717 -194116 -109003 -34624.4 227227 -23554.5 -12580.1 -7.41588 
3689 1 41.1847 4.37276 2.97163 5.94631 -194255 -115573 28180.6 219344 33102.6 -17466.1 -7.42004 
3690 1 40.4587 3.15299 2.97429 5.94946 -182493 -123356 -19894.3 235454 -27348.7 -13812.3 -7.41678 
3691 1 41.1503 1.91619 2.97874 5.94173 -179055 -130398 13153.6 225252 31372.4 -16301 -7.41897 
3692 1 40.4234 0.69694 2.98232 5.94333 -169424 -137858 -4628.26 238552 -30572.4 -14952.5 -7.41777 
3869 1 43.3598 8.04856 2.96539 5.95227 -210383 -97812.3 48892.5 209351 34176.4 -16725.5 -7.42162 
3870 1 42.6355 6.82778 2.96616 5.95839 -196364 -104472 -41403.7 227585 -22432.9 -10765.8 -7.41551 
3871 1 43.3272 5.59096 2.96953 5.94664 -198777 -110483 35094.3 221897 33929.5 -15772.8 -7.42057 
3872 1 42.6019 4.37075 2.97167 5.95034 -186634 -117318 -27123.3 237804 -26276.4 -11921.5 -7.41636 
3873 1 43.2937 3.1341 2.97595 5.94182 -185542 -123546 20433.8 230025 32713.8 -14781.9 -7.41951 
3874 1 42.5675 1.9144 2.97922 5.9438 -175740 -130524 -12152.4 243469 -29679.6 -12988.7 -7.4173 
3875 1 43.2597 0.677983 2.98402 5.93814 -170846 -137144 5270.8 233404 30660.2 -13756.3 -7.41846 
4052 1 44.7769 8.04679 2.96509 5.95946 -196900 -101361 -47810.2 225961 -21257.8 -9087.31 -7.41517 
4053 1 45.4691 6.8102 2.9682 5.94725 -201323 -106704 41687.3 222467 34428.8 -14052.5 -7.42108 
4054 1 44.7444 5.58959 2.96961 5.95154 -189121 -112737 -34055.6 238331 -25102.9 -10164 -7.41597 
4055 1 45.4366 4.35311 2.97364 5.94202 -190329 -118260 27466 232790 33720.4 -13201 -7.42003 
4056 1 44.711 3.133 2.97633 5.94462 -180138 -124560 -19481.2 246311 -28623.8 -11166.3 -7.41686 
4057 1 45.4033 1.89669 2.98094 5.93824 -177769 -130512 12608.9 238527 32136.7 -12340.7 -7.41898 
4058 1 44.6769 0.677028 2.98462 5.93926 -169790 -136609 -4423.48 249287 -31593.9 -12085.7 -7.41783 
14483 2 38.8662 9.11693 6.38934 5.94322 -90871.9 -201374 -53002.4 -181375 -15871.7 -11601 -7.41486 
14484 2 38.1716 7.88182 6.39201 5.93918 -110472 -192613 47056.4 -202477 33921 -20627.4 -7.42148 
14485 2 38.9002 6.66396 6.39464 5.94092 -111005 -186449 -39552.4 -197385 -19614.7 -13174.9 -7.41561 
14486 2 38.2066 5.42831 6.39844 5.93849 -127996 -177534 33170.9 -216753 34193.3 -19438.2 -7.42041 
14487 2 38.9351 4.21026 6.40185 5.93931 -131500 -170914 -25006.9 -209265 -23292.7 -14729.6 -7.41647 
14488 2 38.2424 2.97412 6.40639 5.93985 -145122 -162071 18341.9 -226602 33283.7 -18269 -7.41932 