ITEM: TIMESTEP
0
ITEM: NUMBER OF ATOMS
22328
ITEM: BOX BOUNDS pp pp pp
0.0000000000000000e+00 1.2975027299999999e+02
0.0000000000000000e+00 2.2473406499999999e+02
0.0000000000000000e+00 1.5000000000000000e+01
ITEM: ATOMS id type x y z c_csym c_2[1] c_2[2] c_2[3] c_2[4] c_2[5] c_2[6] c_3 
208 1 0.79 8.589 3 6.02511 -144074 -140978 -105312 -16924.3 16584.4 -1880.34 -7.41346 
209 1 0.07 7.368 3 6.02334 -124864 -152550 -105574 -13001.8 16848.9 -234.054 -7.41279 
210 1 0.767 6.133 3 6.02637 -135072 -126225 -107177 2623.47 12455.2 -1808.78 -7.41316 
211 1 0.046 4.912 3 6.01955 -155389 -117703 -107796 -8582.84 11112.2 -151.993 -7.41311 
212 1 0.744 3.677 3 6.02329 -126320 -113493 -108549 -11694.6 7797.73 -1797.09 -7.41269 
213 1 0.023 2.456 3 6.02394 -155018 -117706 -109077 -9747 5510.47 -57.8404 -7.41304 
214 1 0.721 1.221 3 6.02257 -172119 -112541 -109327 -9827.28 2686.09 -1696.56 -7.41322 
215 1 0 0 3 6.02596 -117850 -128645 -109471 282.914 -37.2387 7.15099 -7.41277 
392 1 2.208 8.575 3 6.0211 -115707 -126340 -103926 21103.6 19381 -3991.09 -7.41282 
393 1 2.906 7.341 3 6.02148 -183701 -142089 -105640 -110.745 14667.4 -7093.2 -7.41376 
394 1 2.185 6.12 3 6.02217 -126570 -137984 -106593 3043.72 13807 -4153.14 -7.41283 
395 1 2.882 4.885 3 6.02589 -141482 -143552 -107341 -13256.4 10205 -6876.45 -7.41334 
396 1 2.162 3.664 3 6.02657 -135007 -149781 -108306 -9462.47 8195.77 -4399.56 -7.41329 
397 1 2.859 2.429 3 6.02721 -132326 -128602 -108498 1157.66 5262.38 -6622.58 -7.41309 
398 1 2.138 1.208 3 6.02224 -169477 -112395 -109136 -9879.57 2586.51 -4593.53 -7.41324 
575 1 5.044 8.549 3 6.02114 -136068 -125359 -103033 29304.8 16746.5 -12344.2 -7.41351 
576 1 4.323 7.327 3 6.01966 -163371 -122451 -104811 22870.1 16184.9 -7922.55 -7.41348 
577 1 5.021 6.093 3 6.02294 -134867 -145972 -105215 -1354.99 12600.8 -11978.9 -7.4132 
578 1 4.3 4.872 3 6.02329 -118469 -122742 -106860 -10447 10589.3 -8396.39 -7.41267 
579 1 4.998 3.637 3 6.02304 -173332 -111523 -106780 -18787.5 8017.81 -11539.9 -7.41337 
580 1 4.277 2.416 3 6.02461 -130402 -132713 -107998 4771.98 5050.09 -8799.31 -7.41288 
581 1 4.974 1.181 3 6.02589 -137909 -144276 -107713 -13625.7 3001.04 -11055.5 -7.41332 
758 1 6.462 8.535 3 6.02537 -132119 -170586 -102576 20846.5 18258.9 -11173.7 -7.41375 
759 1 7.159 7.301 3 6.01884 -141321 -146053 -102106 13451.4 14941.2 -17006.3 -7.41352 
760 1 6.439 6.079 3 6.02345 -132260 -152365 -104825 23346.2 12821.3 -11965.7 -7.4136 
761 1 7.136 4.845 3 6.02361 -132774 -128431 -104073 27682.8 10703.1 -16521.9 -7.41346 
762 1 6.415 3.623 3 6.01966 -166104 -120380 -106335 24045.4 7104.41 -12744.6 -7.41326 
763 1 7.113 2.389 3 6.02292 -131788 -148928 -105457 -3004.42 6030.16 -15913.8 -7.4132 
764 1 6.392 1.168 3 6.02313 -122058 -118469 -106826 -8527.74 1652.33 -13401.9 -7.41242 
942 1 8.577 7.287 3 6.02329 -118345 -122434 -102495 -8076.22 14503.2 -15121 -7.41303 
944 1 8.554 4.831 3 6.02537 -134026 -168292 -104177 22160.7 9024.19 -16171.2 -7.41365 
945 1 9.251 3.597 3 6.01884 -137474 -148857 -102364 11944.1 8755.31 -20665.4 -7.41363 
946 1 8.531 2.375 3 6.019 -133162 -152414 -104854 24734.6 3657.4 -17116.7 -7.41349 
947 1 9.228 1.141 3 6.02521 -137477 -162260 -103630 10030.5 4064.51 -19795.1 -7.41368 
11192 2 0.628 8.602 6.4 6.0216 -120198 -128221 -104064 -31910.3 19585 -1060.41 -7.41336 
11193 2 0.651 6.146 6.4 6.02218 -130648 -144630 -106771 -17337.5 14008.3 -1168.06 -7.41294 
11194 2 0.674 3.691 6.4 6.02158 -130592 -142415 -108517 14165.9 8370.21 -1385 -7.41306 
11195 2 0.697 1.235 6.4 6.02425 -135271 -144652 -109344 10151.4 2839.59 -1564.65 -7.41295 
11196 2 0 0 6.4 6.02596 -117786 -128706 -109469 -2435.6 37.0757 12.4792 -7.41277 
11372 2 2.046 8.616 6.4 6.02329 -152636 -174088 -104948 -3710.45 16744.1 -5155.46 -7.41371 
11373 2 2.766 7.395 6.4 6.0204 -133967 -152682 -105116 16035.7 16728 -4978.23 -7.41334 
11374 2 2.069 6.16 6.4 6.02522 -145794 -139722 -106892 15375.1 12568.4 -4990.73 -7.41327 
11375 2 2.789 4.939 6.4 6.02308 -135792 -151319 -107340 15272.3 11025.5 -5475.8 -7.4131 
11376 2 2.092 3.704 6.4 6.02596 -134433 -127417 -108284 -2920.49 7942.95 -4811.34 -7.413 
11377 2 2.813 2.483 6.4 6.0224 -168994 -115859 -108636 12480.1 5373.95 -5870.04 -7.41326 
11378 2 2.115 1.248 6.4 6.02345 -123531 -115601 -109048 8059.64 2774.13 -4722.55 -7.41272 
11379 2 2.836 0.027 6.4 6.02313 -122586 -114332 -108909 13441.2 -101.615 -6254.3 -7.41266 
11555 2 4.881 8.643 6.4 6.02141 -132491 -156648 -103154 17335.6 19045.8 -8299.62 -7.41322 
11556 2 4.184 7.408 6.4 6.02519 -138980 -124692 -104840 -4045.26 14869.3 -10136.1 -7.41309 
11557 2 4.905 6.187 6.4 6.0224 -166754 -118822 -105626 14253.9 13420.4 -9132.88 -7.41343 
11558 2 4.207 4.952 6.4 6.02329 -127186 -113076 -106561 7327.92 10576.1 -9874.83 -7.41281 
11559 2 4.928 3.731 6.4 6.02329 -120445 -119698 -107080 13941.6 7872.06 -9884.34 -7.41277 
11560 2 4.23 2.496 6.4 6.02241 -172854 -112199 -107801 7340.46 5710.31 -9600.04 -7.41331 
11561 2 4.951 1.275 6.4 6.02653 -129445 -131637 -107803 541.863 2278.9 -10539.8 -7.41313 
11562 2 4.254 0.04 6.4 6.02445 -138775 -145347 -108321 8637.7 490.107 -9214.01 -7.41303 
11738 2 6.299 8.656 6.4 6.02329 -130542 -110938 -101647 6439.92 17266.3 -15229.8 -7.41308 
11739 2 7.02 7.435 6.4 6.02329 -118372 -122648 -103414 15756.3 15482.9 -12359.8 -7.41298 
11740 2 6.322 6.2 6.4 6.0224 -176087 -109944 -103889 6344.38 13170.1 -14909.7 -7.41353 
11741 2 7.043 4.979 6.4 6.02705 -126921 -134815 -105297 2341.13 10003.8 -13383.9 -7.41327 
11742 2 6.346 3.744 6.4 6.02657 -140659 -144823 -105576 6958.21 8491.74 -14531.7 -7.41345 
11743 2 7.066 2.523 6.4 6.02589 -135649 -149655 -106135 16652.9 4529.84 -14320.9 -7.41341 
11744 2 6.369 1.288 6.4 6.02233 -131691 -132763 -106614 -5754.44 3602.74 -13947.4 -7.41284 
11745 2 7.09 0.067 6.4 6.02164 -177053 -145815 -106235 4631.46 -808.44 -15213.4 -7.41372 
11921 2 9.135 8.683 6.4 6.02705 -125057 -137708 -100658 4143.14 17342.3 -15226.2 -7.41354 
11922 2 8.438 7.448 6.4 6.02657 -143939 -142792 -100341 6161.49 15657.2 -19773.6 -7.41375 
11923 2 9.158 6.227 6.4 6.02657 -133423 -152658 -102725 18477.6 11971.5 -16555.6 -7.41361 
11924 2 8.461 4.992 6.4 6.02705 -134622 -127898 -102345 -8686.72 11466.6 -19280.8 -7.41344 
11925 2 9.182 3.771 6.4 6.0224 -168121 -117814 -104047 17344.6 6399.21 -17715.1 -7.41352 
11926 2 8.484 2.536 6.4 6.02329 -125415 -118646 -103841 6307.97 6786.56 -18713.5 -7.41259 
11927 2 9.205 1.315 6.4 6.02292 -128917 -152073 -104270 4840.63 1017.99 -18799.4 -7.41326 
11928 2 8.507 0.081 6.4 6.01934 -167658 -115463 -104752 -26617.5 1653.29 -17967.1 -7.41347 
941 1 9.298 8.508 3 6.02329 -131878 -112604 -97879.6 -17495.2 17262.9 -21965.1 -7.41306 
943 1 9.275 6.052 3 6.02238 -174442 -113499 -100305 -20154.8 13320 -21441.8 -7.41362 
1124 1 10.716 8.495 3 6.02398 -132630 -154092 -99799.9 -2507.16 16101.1 -17672.3 -7.41378 
1125 1 11.413 7.26 3 6.02586 -138801 -127109 -95689.9 -5424.02 15690.6 -26073.5 -7.41361 
1126 1 10.692 6.039 3 6.0224 -167094 -119345 -101605 -1822.83 10698.1 -19088.7 -7.41367 
1127 1 11.39 4.804 3 6.02329 -127132 -118297 -98039.1 -19502.9 11735.2 -25287.8 -7.41293 
1128 1 10.669 3.583 3 6.02292 -127598 -153842 -102431 10167.5 5301.59 -20310.2 -7.41336 
1129 1 11.367 2.349 3 6.01966 -170435 -117521 -100145 11219.4 7229.46 -24283.9 -7.41363 
1130 1 10.646 1.127 3 6.02409 -127833 -130946 -102407 39045.3 -27.5071 -21467.7 -7.41355 
1307 1 13.551 8.468 3 6.02398 -144701 -144484 -90108.8 -19039.8 18043.7 -30346 -7.41435 
1308 1 12.831 7.247 3 6.02657 -135677 -151279 -98773 217.542 12066.4 -21374.6 -7.41383 
1309 1 13.528 6.012 3 6.02657 -144954 -143592 -93101.8 -18164.7 14451.1 -29520.1 -7.41417 
1310 1 12.808 4.791 3 6.02398 -134566 -152199 -99645.1 -1493.08 6707.22 -22997.2 -7.41378 
1311 1 13.505 3.556 3 6.02342 -137193 -130803 -95527.9 -9042.26 10317 -28627.1 -7.41338 
1312 1 12.784 2.335 3 6.02303 -169173 -117238 -99703.2 -5941.8 1462.87 -24469.3 -7.41378 
1313 1 13.482 1.1 3 6.02346 -122074 -118686 -97399.5 -21934 5689.58 -27454.7 -7.4132 
1490 1 14.969 8.455 3 6.02329 -117829 -122985 -95814.8 839.813 12899.5 -23252.4 -7.41363 
1491 1 15.667 7.22 3 6.02329 -128790 -114454 -86955.6 -19767.6 17035.1 -33572.9 -7.41415 
1492 1 14.946 5.999 3 6.02587 -128479 -136881 -96776.5 13806.7 7810.45 -25070.5 -7.41355 
1493 1 15.643 4.764 3 6.02398 -141475 -147722 -90168.5 -20868.3 13120.1 -32556.7 -7.41434 
1494 1 14.923 3.543 3 6.02657 -137826 -149589 -96955.1 1006.52 2677.3 -26715.1 -7.41394 
1495 1 15.62 2.308 3 6.02673 -141885 -146622 -92486.7 -19942.2 8988.48 -31412.2 -7.41422 
1496 1 14.9 1.087 3 6.02398 -136690 -148163 -96237.2 -2040.13 -2257.44 -28173.4 -7.41398 
1673 1 17.805 8.428 3 6.02522 -146839 -144306 -80238.4 -24587.5 19224.3 -37145.7 -7.41492 
1674 1 17.085 7.207 3 6.02269 -134950 -155046 -93852.1 -460.072 8695.07 -26540.7 -7.41387 
1675 1 17.782 5.972 3 6.02586 -137130 -131554 -83638.9 -7689.59 15978 -36183.7 -7.41433 
1676 1 17.061 4.751 3 6.02329 -119856 -121462 -93915.5 1529.01 3607.04 -28442.9 -7.41373 
1677 1 17.759 3.516 3 6.02329 -125570 -117653 -86692.2 -21542.1 12221.6 -35023.4 -7.41417 
1678 1 17.038 2.295 3 6.02587 -130949 -135239 -93245.2 14347.4 -1395.86 -30171.3 -7.41376 
1679 1 17.735 1.06 3 6.02413 -137939 -148549 -89413.4 -21352.2 7936.16 -33555.7 -7.41438 
12104 2 10.553 8.696 6.4 6.02705 -137956 -126165 -95717.3 -9256.48 18079.2 -24401.5 -7.41383 
12105 2 11.274 7.475 6.4 6.02241 -166042 -120735 -100176 19127.7 13406.6 -19117.7 -7.41375 
12106 2 10.576 6.24 6.4 6.02329 -130117 -114300 -98219.8 5355.59 14156.3 -23904.8 -7.41304 
12107 2 11.297 5.019 6.4 6.02329 -119274 -121724 -101322 23760.4 8115.52 -20622.6 -7.4131 
12108 2 10.599 3.784 6.4 6.02238 -172734 -115201 -100249 7240.34 9838.69 -23243.1 -7.41363 
12109 2 11.32 2.563 6.4 6.02537 -135225 -167654 -101838 -6955.73 2864.56 -21952.5 -7.41379 
12110 2 10.623 1.329 6.4 6.01884 -135973 -150427 -101628 -25637.6 5049.74 -22477.7 -7.41368 
12111 2 11.343 0.107 6.4 6.01916 -134057 -149672 -101406 -8882.48 -2311.38 -23207.3 -7.41368 
12287 2 13.389 8.723 6.4 6.02329 -117389 -124493 -97284.9 25471.8 14612.6 -21107.7 -7.41333 
12288 2 12.691 7.488 6.4 6.02238 -176039 -113647 -93120.8 6806.87 16803 -28275.1 -7.41404 
12289 2 13.412 6.267 6.4 6.02537 -132950 -170591 -98625.4 -5209.88 9428.68 -22932.9 -7.41397 
12290 2 12.715 5.033 6.4 6.01884 -139691 -149295 -95603.4 -25958.9 12853.4 -27558.3 -7.4139 
12291 2 13.435 3.811 6.4 6.02345 -133342 -152579 -99049.4 -8144.08 4294.83 -24597.7 -7.41394 
12292 2 12.738 2.577 6.4 6.02361 -131235 -131519 -97686 -40963 8363.69 -26653.6 -7.41383 
12293 2 13.459 1.355 6.4 6.01982 -167562 -120636 -98597 -9381.66 -819.091 -26159.1 -7.41373 
12294 2 12.761 0.121 6.4 6.02292 -129797 -149732 -99034 -12189.2 3662.76 -25653.6 -7.41355 
12470 2 14.807 8.737 6.4 6.01884 -143006 -148011 -87019.1 -26127.7 19183.3 -32363.8 -7.4144 
12471 2 15.527 7.515 6.4 6.02345 -131929 -155672 -95687.9 -6648.18 10593 -24678 -7.41401 
12472 2 14.83 6.281 6.4 6.02114 -134460 -130131 -90021.4 -41237.6 15676.1 -31624.3 -7.41428 
12473 2 15.551 5.059 6.4 6.01966 -164395 -123327 -96164.2 -7886.54 5381.63 -26670.3 -7.41397 
12474 2 14.853 3.825 6.4 6.02294 -133335 -150533 -92629.5 -11353.3 11685.5 -30682.3 -7.41393 
12475 2 15.574 2.604 6.4 6.02329 -119788 -124024 -95616.8 24929.7 331.52 -28435.4 -7.41331 
12476 2 14.876 1.369 6.4 6.0232 -172016 -115649 -94728.2 5365.65 7192.66 -29550.4 -7.41406 
12477 2 15.597 0.148 6.4 6.02342 -133778 -131595 -94399.9 12061.7 -4475.99 -30050.4 -7.41344 
12653 2 17.643 8.763 6.4 6.01966 -163924 -123319 -92869.4 -6136.37 11224.1 -25873.7 -7.41428 
12654 2 16.945 7.529 6.4 6.02169 -129093 -116817 -83440.2 -28710.8 18326.7 -35311.8 -7.41414 
12655 2 17.666 6.307 6.4 6.0211 -116583 -127655 -93265.6 -6543.95 6310.66 -28045.8 -7.41344 
12656 2 16.968 5.073 6.4 6.02148 -182195 -148102 -86744.4 -11890.4 14638.6 -34344.9 -7.41486 
12657 2 17.689 3.852 6.4 6.02166 -130136 -139267 -92628.3 12775.5 1397.62 -30140.2 -7.41342 
12658 2 16.992 2.617 6.4 6.02397 -140063 -149198 -89492.3 543.839 10515.6 -33156.9 -7.41438 
12659 2 17.712 1.396 6.4 6.02657 -139037 -149614 -91388 21699.9 -3426.45 -31941.4 -7.41427 
12660 2 17.015 0.161 6.4 6.02688 -140057 -145900 -91714 -2672.35 6107 -31763.9 -7.41424 
1856 1 19.223 8.414 3 6.02179 -125088 -142623 -91041.2 45646.3 9121.55 -27439 -7.41374 
1857 1 19.92 7.18 3 6.02304 -150503 -182240 -76372.1 -9896.45 18545.4 -39405.3 -7.41547 
1858 1 19.2 5.959 3 6.0204 -135101 -154504 -91137.4 -313.438 4260.41 -29603.2 -7.41415 
1859 1 19.897 4.724 3 6.02522 -143603 -147469 -80107.5 -26309.1 15134.3 -38179.5 -7.41492 
1860 1 19.177 3.503 3 6.02269 -137160 -153772 -90223.2 -27.8505 -559.153 -31580.1 -7.41408 
1861 1 19.874 2.268 3 6.02587 -134100 -134481 -83331.8 -9390.39 11340 -36835.5 -7.41434 
1862 1 19.153 1.047 3 6.02313 -121969 -117879 -88453.9 580.078 -5279.55 -33466.3 -7.41405 
2039 1 22.059 8.388 3 6.02179 -136487 -135980 -68066.9 20930.6 20862.6 -42244.6 -7.41522 
2040 1 21.338 7.166 3 6.0211 -117088 -124289 -88227.2 33102.1 4547.88 -30287.1 -7.41418 
2041 1 22.036 5.932 3 6.02169 -127017 -119561 -72418.2 6918.6 17943.6 -41095.2 -7.41499 
2042 1 21.315 4.71 3 6.02179 -127100 -141528 -87136.8 45943.7 -110.759 -32504.2 -7.41398 
2043 1 22.012 3.476 3 6.02304 -147295 -185207 -76631.3 -11571.4 14428.1 -39639.1 -7.41545 
2044 1 21.292 2.255 3 6.02169 -139146 -153823 -85464.2 1699.65 -4593.16 -34501.1 -7.41425 
2045 1 21.989 1.02 3 6.02589 -140415 -148121 -80174.1 -21629.1 10634.7 -37962.8 -7.41491 
2222 1 23.477 8.374 3 6.02486 -142092 -187770 -85624.6 17774.2 4789.08 -30441.4 -7.4149 
2223 1 24.174 7.14 3 6.02023 -143917 -152234 -64214.1 7367.39 20416.7 -43458.4 -7.41573 
2224 1 23.454 5.918 3 6.02215 -133382 -156577 -84415 33329.7 263.82 -32791.9 -7.41466 
2225 1 24.151 4.684 3 6.02241 -134692 -136380 -68863.7 19120.6 17438.8 -42080.9 -7.4153 
2226 1 23.43 3.462 3 6.0211 -117892 -125975 -82341.5 33326.8 -4361.37 -35069.7 -7.4144 
2227 1 24.128 2.228 3 6.02292 -131518 -154775 -73199.8 -11949 14034.7 -40472.2 -7.41528 
2228 1 23.407 1.007 3 6.02294 -131716 -137856 -79758.5 13343.9 -8591.24 -37063.9 -7.41417 
2405 1 26.313 8.347 3 6.02329 -131669 -120836 -54940.9 -24530.5 22836 -45438.1 -7.41578 
2406 1 25.592 7.126 3 6.02587 -127754 -140147 -81951.2 13418.5 246.904 -32686.3 -7.4144 
2407 1 26.289 5.891 3 6.02041 -141367 -155516 -60363 -27960.7 20221.6 -44074.1 -7.41596 
2408 1 25.569 4.67 3 6.02487 -144189 -187138 -79697 17698.3 -4102.8 -35061.3 -7.41525 
2409 1 26.266 3.436 3 6.02023 -140731 -154947 -65435.4 5879.81 17152.5 -42523.3 -7.41566 
2410 1 25.546 2.214 3 6.01937 -133813 -157964 -76612.3 33106.1 -8302.26 -37275.3 -7.41512 
2411 1 26.243 0.98 3 6.02489 -138729 -169198 -70092.8 1609.92 13690.4 -40752.6 -7.41554 
2588 1 27.731 8.334 3 6.02397 -132991 -157681 -79881.7 5297.24 227.978 -32046.1 -7.41492 
2590 1 27.707 5.878 3 6.02329 -119437 -125233 -77165.6 5401.8 -4093.42 -34662.2 -7.41471 
2592 1 27.684 3.422 3 6.02586 -130050 -139774 -73760.4 13101.4 -8234.67 -36999.1 -7.41488 
2594 1 27.661 0.966 3 6.02519 -145720 -184086 -69926.1 15808 -12202.5 -39140.8 -7.41595 
12836 2 19.06 8.777 6.4 6.02151 -185549 -147300 -75856.2 -11682 20665.2 -38737.6 -7.41549 
12837 2 19.781 7.556 6.4 6.0204 -126471 -141210 -90418.5 16135.7 6807.99 -28945 -7.41378 
12838 2 19.084 6.321 6.4 6.02395 -142983 -148169 -79868.1 5678.62 17488 -37642.5 -7.41493 
12839 2 19.804 5.1 6.4 6.02413 -138083 -152876 -89763.9 25081.7 2074.17 -31178.4 -7.4141 
12840 2 19.107 3.865 6.4 6.02589 -143632 -147125 -83294.4 -1442.17 13801.1 -36435.1 -7.41474 
12841 2 19.827 2.644 6.4 6.02398 -135643 -153637 -88417.6 24247.3 -2562.13 -33243.2 -7.41443 
12842 2 19.13 1.409 6.4 6.02602 -133797 -134086 -86242.4 -14527.6 9676.87 -35019 -7.41418 
12843 2 19.851 0.188 6.4 6.02313 -122161 -118228 -86148.2 24459.2 -7105.4 -35192.4 -7.41419 
13019 2 21.896 8.804 6.4 6.02413 -136129 -155044 -87906.9 26444.2 7242.48 -29232 -7.41421 
13020 2 21.199 7.569 6.4 6.02589 -146914 -146464 -72032 -1112.46 20025.8 -40592.8 -7.41541 
13021 2 21.919 6.348 6.4 6.02397 -133338 -155976 -87121.5 25700.9 2596.92 -31736.4 -7.41451 
13022 2 21.222 5.113 6.4 6.02587 -136908 -133491 -75928.2 -14290.8 16823.5 -39439.5 -7.41478 
13023 2 21.943 3.892 6.4 6.02329 -119979 -123148 -85497.3 24738.4 -2146.13 -34061.2 -7.41422 
13024 2 21.245 2.657 6.4 6.02329 -125400 -119359 -79713.7 -1713.17 13160.8 -37980.6 -7.41457 
13025 2 21.966 1.436 6.4 6.02587 -131212 -137210 -83109.4 10992.6 -6473.94 -36139.3 -7.41435 
13026 2 21.269 0.201 6.4 6.02301 -139443 -150506 -82938.9 -1250.02 9024.78 -36312.1 -7.4145 
13202 2 23.314 8.817 6.4 6.02587 -140275 -133072 -63530.2 -13747.6 22489.5 -43055 -7.4155 
13203 2 24.035 7.596 6.4 6.02329 -117821 -125253 -84645.1 26009.2 2749.53 -31815.5 -7.41427 
13204 2 23.337 6.361 6.4 6.02329 -128672 -118843 -67953.5 -1255.39 19643.6 -41927.7 -7.41526 
13205 2 24.058 5.14 6.4 6.02587 -128625 -139656 -82913.7 12357.7 -1682.08 -34266.7 -7.41435 
13206 2 23.361 3.905 6.4 6.02397 -141378 -151736 -72368.1 -1486.68 16250.9 -40520.2 -7.41538 
13207 2 24.081 2.684 6.4 6.02589 -138120 -152880 -80288.7 24330.3 -6030.81 -36538.5 -7.4149 
13208 2 23.384 1.449 6.4 6.02185 -142045 -153120 -76343.1 -1509.68 12602.3 -38924 -7.41478 
13209 2 24.104 0.228 6.4 6.0232 -143901 -185507 -77055.5 14311.3 -10143.9 -38622 -7.41541 
13385 2 26.15 8.844 6.4 6.02587 -126656 -141509 -82122.3 13453.7 2877.62 -31457.1 -7.41439 
13386 2 25.453 7.609 6.4 6.02397 -144712 -151429 -59414.3 -823.55 22163.4 -44010.5 -7.41614 
13387 2 26.173 6.388 6.4 6.02589 -135807 -154948 -80252.2 25512 -1550.27 -34057.5 -7.4149 
13388 2 25.476 5.153 6.4 6.02413 -146615 -150473 -64345.8 -1181.77 19353 -42628.9 -7.4156 
13389 2 26.196 3.932 6.4 6.02304 -134550 -156457 -77827 31513.5 -5765.76 -36434.7 -7.41504 
13390 2 25.499 2.697 6.4 6.02166 -133609 -139249 -68850 -12251.4 16017.6 -41073.9 -7.41507 
13391 2 26.22 1.476 6.4 6.02294 -128623 -157170 -74292.6 13346.2 -9911.62 -38705.9 -7.41521 
13392 2 25.522 0.242 6.4 6.02078 -120186 -123167 -72946.9 -34232.9 12357.3 -39307.3 -7.41495 
13568 2 27.568 8.857 6.4 6.02657 -148303 -149959 -50024 -2134.14 24490.5 -45649.5 -7.41669 
13570 2 27.591 6.401 6.4 6.0231 -138398 -139601 -55509.2 -13338.8 22076.1 -44353.7 -7.41561 
13572 2 27.614 3.946 6.4 6.0211 -124427 -125616 -60481.6 -32081.9 19238.7 -42883.3 -7.41557 
13574 2 27.638 1.49 6.4 6.01905 -138187 -155199 -65607.9 -32369.5 15905 -41057 -7.4159 
2589 1 28.428 7.099 3 6.02586 -138442 -137459 -51064.6 -10111.3 22719.6 -45678.2 -7.41623 
2591 1 28.405 4.643 3 6.02329 -128436 -123415 -56800.4 -25941.7 20157.9 -44200.1 -7.41567 
2593 1 28.381 2.187 3 6.02072 -138310 -157797 -62385 -29299.2 17052.5 -42405.7 -7.41585 
2771 1 30.566 8.307 3 6.02397 -144976 -154991 -41432.4 -23698.6 24916.9 -46734.3 -7.41721 
2772 1 29.846 7.086 3 6.02657 -136103 -155595 -75298.6 6732.62 -4163.92 -33734.7 -7.41519 
2773 1 30.543 5.851 3 6.02657 -145245 -153289 -47815.6 -23080.1 22799.8 -45284 -7.41682 
2774 1 29.823 4.63 3 6.02398 -135136 -157509 -71597.8 4855.56 -8254.94 -36198 -7.41541 
2775 1 30.52 3.395 3 6.02586 -135248 -139804 -53838.4 -11363.8 20112.7 -43706.3 -7.41607 
2776 1 29.799 2.174 3 6.02329 -122026 -124940 -67332.1 4816.67 -12210.4 -38513.7 -7.4153 
2777 1 30.497 0.939 3 6.02343 -123480 -125820 -59473.9 -26115.5 17051.2 -41887.8 -7.41538 
2954 1 31.984 8.294 3 6.02329 -119844 -127472 -73547.2 4357.01 -4561.61 -32527.3 -7.41467 
2955 1 32.682 7.059 3 6.02329 -129092 -124842 -38026.2 -23546.6 25163.6 -46064.7 -7.41703 
2956 1 31.961 5.838 3 6.02586 -129003 -141934 -69847.3 19000.2 -8483.94 -35032 -7.41511 
2957 1 32.658 4.603 3 6.02398 -141804 -157257 -44795.1 -24846.9 22885.7 -44512.8 -7.417 
2958 1 31.938 3.382 3 6.02657 -138462 -155620 -65336.5 6045.82 -12309.9 -37436.9 -7.41578 
2959 1 32.635 2.147 3 6.02673 -142210 -155261 -50967.6 -24137.5 20136.8 -42759.6 -7.41664 
2960 1 31.915 0.926 3 6.02322 -137367 -155170 -60287.2 2837.68 -15876.1 -39607 -7.41608 
3137 1 34.82 8.267 3 6.02486 -154299 -188922 -27863 -10102.5 27178.4 -46262.8 -7.41832 
3138 1 34.1 7.046 3 6.02141 -134022 -162175 -68591.6 3251.66 -8765.2 -33517.9 -7.41521 
3139 1 34.797 5.811 3 6.02587 -137461 -141727 -34813.2 -10527.6 25337.8 -44886.3 -7.41719 
3140 1 34.076 4.59 3 6.02329 -120425 -127163 -63716.2 5379.2 -12551.8 -36000.4 -7.4155 
3141 1 34.774 3.355 3 6.02329 -125915 -126901 -41994.5 -24519.6 23082.1 -43228.4 -7.41679 
3142 1 34.053 2.134 3 6.02587 -131619 -141972 -58312.9 18078.5 -16156.7 -38255.7 -7.4158 
3143 1 34.75 0.899 3 6.02413 -138282 -156832 -48934.1 -24469.9 20300.2 -41342.9 -7.41675 
3320 1 36.238 8.253 3 6.02179 -124890 -146530 -67795 48517.9 -9225.88 -31679.7 -7.41522 
3321 1 36.935 7.019 3 6.02303 -150824 -192884 -24978.6 -11614.6 27522.6 -44674.7 -7.41849 
3322 1 36.215 5.798 3 6.0204 -135659 -159845 -62734.5 2287.45 -12865.4 -34180.4 -7.4158 
3323 1 36.912 4.563 3 6.02522 -143953 -157225 -32659.8 -28110.4 25631.5 -43176.6 -7.41771 
3324 1 36.192 3.342 3 6.02269 -137802 -160130 -56950.2 2498.63 -16357 -36469.5 -7.41602 
3325 1 36.889 2.107 3 6.02587 -134466 -143317 -39995.2 -11273.1 23297.8 -41527.4 -7.41688 
3326 1 36.168 0.886 3 6.02313 -122662 -125256 -50368.5 3033.95 -19643 -38705.1 -7.41628 
13569 2 28.288 7.636 6.4 6.02306 -132734 -158311 -78273.5 27464.9 -1495.15 -33338.1 -7.41501 
13571 2 28.312 5.18 6.4 6.02292 -126041 -159296 -75171.5 14445.7 -5710.88 -35991.6 -7.41515 
13573 2 28.335 2.724 6.4 6.02313 -129549 -141470 -71441.7 -16676.2 -9750.68 -38364.9 -7.41501 
13575 2 28.358 0.268 6.4 6.02055 -136685 -154509 -67388.4 -3587.53 -13515.6 -40465 -7.41565 
13751 2 30.404 8.884 6.4 6.02329 -116943 -127209 -76625.3 32353.9 -1753.8 -32347.9 -7.41473 
13752 2 29.706 7.649 6.4 6.02327 -128629 -124719 -45928.9 1984.65 24538.1 -45637.7 -7.41644 
13753 2 30.427 6.428 6.4 6.02487 -134790 -175686 -73364.6 1546.85 -5779.38 -34986.1 -7.41522 
13754 2 29.73 5.194 6.4 6.01659 -139822 -157869 -51783 -31645.8 22108 -44129.4 -7.41658 
13755 2 30.45 3.972 6.4 6.02237 -135926 -156252 -69406.6 -3629.19 -9697.86 -37437.6 -7.41565 
13756 2 29.753 2.738 6.4 6.02452 -142254 -154037 -57411.4 -33778.2 19179.1 -42477.1 -7.41625 
13757 2 30.473 1.516 6.4 6.01691 -134534 -160795 -64708.7 -2741.69 -13413.1 -39777.2 -7.4157 
13758 2 29.776 0.282 6.4 6.02487 -139539 -170987 -62586.2 -30812 15884.4 -40606.6 -7.41586 
13934 2 31.822 8.898 6.4 6.01659 -143732 -158553 -35821.3 -30265.6 26650.3 -46391.1 -7.41741 
13935 2 32.542 7.676 6.4 6.02452 -133766 -157576 -71907.3 -2922.26 -5921.92 -33643.8 -7.4155 
13936 2 31.845 6.442 6.4 6.02452 -144826 -153896 -42201.4 -32497.3 24673.9 -45060.8 -7.41728 
13937 2 32.565 5.22 6.4 6.01659 -131968 -162525 -67723.1 -1962.37 -9832.38 -36229.5 -7.41551 
13938 2 31.868 3.986 6.4 6.02486 -143104 -173442 -48562.6 -28563.5 22227.7 -43433.4 -7.41669 
13939 2 32.589 2.765 6.4 6.02327 -119631 -129374 -62589.8 30102.6 -13646.4 -38621.1 -7.41544 
13940 2 31.891 1.53 6.4 6.02345 -124603 -124926 -54465.7 1118.98 19307 -41661.7 -7.41605 
13941 2 32.612 0.309 6.4 6.02486 -133445 -139909 -57012.2 15390.1 -17056.4 -40787.4 -7.41562 
14117 2 34.657 8.924 6.4 6.01659 -129342 -163146 -71304.9 -1702.24 -6297.37 -31964 -7.41541 
14118 2 33.96 7.69 6.4 6.02487 -146373 -173894 -32139.9 -27305.9 26961 -45442.6 -7.41767 
14119 2 34.681 6.469 6.4 6.02327 -117291 -130622 -66475.1 30700.8 -10151.6 -34610.4 -7.41521 
14120 2 33.983 5.234 6.4 6.02329 -127666 -125452 -38977.2 2316.97 24875.8 -43983.5 -7.41697 
14121 2 34.704 4.013 6.4 6.02487 -131252 -143705 -61063.2 14858.4 -13755 -37090.2 -7.41538 
14122 2 34.007 2.778 6.4 6.02306 -140803 -157846 -45836.3 -2959.12 22308.3 -42250.5 -7.41694 
14123 2 34.727 1.557 6.4 6.02657 -139362 -156927 -55256 24947.9 -17201.6 -39305.8 -7.41638 
14124 2 34.03 0.322 6.4 6.02688 -140773 -153604 -52320.6 -6290.86 19416.1 -40333.5 -7.41654 
14300 2 36.075 8.938 6.4 6.02292 -138062 -159649 -21288.4 -13397.1 28826.9 -45415.5 -7.41835 
14301 2 36.796 7.717 6.4 6.0231 -127638 -147117 -65917.2 15476.5 -10495.4 -32715.8 -7.41497 
14302 2 36.099 6.482 6.4 6.02306 -144023 -158440 -29216.6 -1621.64 27242.5 -43972.6 -7.41792 
14303 2 36.819 5.261 6.4 6.02657 -136777 -158244 -60293.5 25413.3 -14027.1 -35126.6 -7.41607 
14304 2 36.122 4.026 6.4 6.02657 -144340 -156404 -36568.4 -3761.37 25130.3 -42411 -7.41748 
14305 2 36.842 2.805 6.4 6.02397 -136000 -160492 -54158.2 26309.4 -17378.3 -37443.8 -7.41644 
14306 2 36.145 1.57 6.4 6.02602 -134514 -142437 -43709.8 -16915.3 22560.7 -40634.6 -7.41667 
14307 2 36.866 0.349 6.4 6.02313 -122538 -126102 -47170.6 26427.9 -20522.4 -39635.8 -7.41647 
3503 1 39.074 8.227 3 6.02179 -137420 -147433 -14403.6 20064.3 29381.7 -44075.5 -7.41828 
3504 1 38.353 7.005 3 6.02169 -117632 -129225 -62099.3 34387.4 -13316.7 -32087.9 -7.41571 
3505 1 39.051 5.771 3 6.02169 -126667 -129409 -22579.3 6075.9 27926.4 -42753.1 -7.41806 
3506 1 38.33 4.549 3 6.02179 -127724 -147493 -55893.1 47184.1 -16737.1 -34431.6 -7.4158 
3507 1 39.027 3.315 3 6.02303 -147676 -194503 -30893.8 -12266.1 25907.6 -41163.4 -7.41814 
3508 1 38.307 2.094 3 6.0204 -138262 -160279 -49347.8 1080.03 -19864.3 -36614.6 -7.41661 
3509 1 39.004 0.859 3 6.02505 -140452 -156392 -38905 -27420.6 23543.2 -39356 -7.41734 
3686 1 40.492 8.213 3 6.02522 -135477 -158643 -62079 602.173 -13621.5 -29724.8 -7.41596 
3687 1 41.189 6.978 3 6.0204 -145148 -161881 -12378 -25352.1 29903.2 -41678 -7.4188 
3688 1 40.469 5.757 3 6.02303 -141567 -194794 -55691.7 15960.6 -16981 -32016.9 -7.41666 
3689 1 41.166 4.523 3 6.02179 -133609 -148576 -21251.6 19750.2 28312.8 -40333.1 -7.41798 
3690 1 40.445 3.301 3 6.0211 -120009 -129996 -48590.9 33091 -20294.2 -34251.8 -7.41651 
3691 1 41.143 2.067 3 6.02169 -124359 -130978 -29776.4 5831.62 26297.8 -38747 -7.41752 
3692 1 40.422 0.845 3 6.02227 -129946 -145951 -41108.5 44569.5 -23220.3 -36224.1 -7.41668 
3869 1 43.328 8.186 3 6.02241 -178511 -129886 -2063.49 -20888.6 31549.8 -40192.4 -7.41954 
3870 1 42.607 6.965 3 6.02519 -129333 -144699 -56099.3 16115.7 -17359.7 -29430.8 -7.41592 
3871 1 43.304 5.73 3 6.02141 -143261 -166019 -11342.7 -24569.3 30404.1 -38932 -7.41862 
3872 1 42.584 4.509 3 6.02486 -144824 -193207 -48726.1 16378.4 -20514 -31562.9 -7.41707 
3873 1 43.281 3.275 3 6.02023 -141121 -164064 -20516.2 7472.75 28718 -37560.8 -7.41831 
3874 1 42.561 2.053 3 6.02247 -136601 -162898 -40743 31820.7 -23446.2 -33556.3 -7.41723 
3875 1 43.258 0.819 3 6.02225 -131603 -144843 -29446.3 20589.8 26608.9 -36032.1 -7.41762 
4052 1 44.745 8.173 3 6.0224 -166869 -129151 -56973.7 3598.23 -17642.6 -26624.7 -7.41626 
4053 1 45.443 6.938 3 6.02329 -129728 -133719 -1173.31 -20242.1 32128.4 -37093.6 -7.41901 
4054 1 44.722 5.717 3 6.02329 -120510 -132198 -49202.2 3426.74 -20777.5 -28696.7 -7.41614 
4055 1 45.42 4.482 3 6.02241 -176971 -131469 -10846.1 -22864.5 30859.1 -35941.4 -7.41877 
4056 1 44.699 3.261 3 6.02519 -131332 -145723 -40892.8 9522.34 -23712 -30573.7 -7.41682 
4057 1 45.396 2.026 3 6.02072 -138744 -166292 -20658.9 -26492.8 29115.3 -34492.2 -7.41832 
4058 1 44.676 0.805 3 6.02519 -147037 -191953 -32342.5 13546.9 -26361.9 -32381.1 -7.41804 
14483 2 38.911 8.965 6.4 6.02413 -136426 -159330 -66022.3 27405.4 -10772.9 -30497.6 -7.41548 
14484 2 38.214 7.73 6.4 6.02589 -147555 -157177 -18669.3 -2284.04 29239 -43523.9 -7.41856 
14485 2 38.934 6.509 6.4 6.02398 -133696 -161297 -60113.6 26576.9 -14283.3 -33019.4 -7.41608 
14486 2 38.237 5.274 6.4 6.02587 -137577 -143333 -26446.1 -15472.4 27576.5 -42106.4 -7.41769 
14487 2 38.958 4.053 6.4 6.02329 -120367 -129506 -53482 25550 -17755.8 -35365 -7.4161 
14488 2 38.26 2.818 6.4 6.02329 -126089 -128295 -34477 -2903.4 25454.9 -40466.7 -7.41723 
14489 2 38.981 1.597 6.4 6.02587 -131604 -144584 -46304.3 11761.7 -20788 -37432.7 -7.41651 
14490 2 38.284 0.362 6.4 6.02188 -138690 -160920 -42174 -2208.52 22837.6 -38607.3 -7.41678 
14666 2 40.329 8.978 6.4 6.02587 -140841 -144205 -8122.11 -13874.2 31023.2 -42610.3 -7.41878 
14667 2 41.05 7.757 6.4 6.02329 -118222 -130094 -60159.5 25605 -14675.7 -30582.7 -7.41571 
14668 2 40.352 6.522 6.4 6.02329 -129293 -129137 -16422.5 -1342.69 29750.6 -41302.7 -7.41831 
14669 2 41.073 5.301 6.4 6.02586 -129064 -145520 -53569.8 11904.5 -17939.7 -32880.7 -7.41607 
14670 2 40.376 4.066 6.4 6.02398 -142029 -161146 -24880.6 -1537.75 27906.1 -39738.2 -7.41819 
14671 2 41.096 2.845 6.4 6.02589 -138570 -159702 -46088.3 23857.2 -21045 -35028.7 -7.41691 
14672 2 40.399 1.61 6.4 6.02185 -142718 -161638 -32946 -1524.07 25726.7 -38113.6 -7.41734 
14673 2 41.119 0.389 6.4 6.0232 -144333 -193306 -38244.4 13826.4 -23864.5 -36961.8 -7.41769 
14849 2 43.165 9.005 6.4 6.02586 -127136 -145776 -60862.1 11762.9 -14901.8 -27932.7 -7.41564 
14850 2 42.468 7.77 6.4 6.02397 -145242 -162097 -6098.93 126.981 31521.1 -39989.9 -7.4193 
14851 2 43.188 6.549 6.4 6.02589 -136299 -160228 -53900.6 23785.6 -18210.8 -30179.3 -7.41645 
14852 2 42.491 5.314 6.4 6.02413 -147198 -160286 -15088.5 -138.356 30192.6 -38632.5 -7.41852 
14853 2 43.211 4.093 6.4 6.02303 -135043 -162750 -46582.7 29783.9 -21266.7 -32297.1 -7.41688 
14854 2 42.514 2.858 6.4 6.02166 -134233 -148185 -23811.7 -11136.4 28323 -37097.8 -7.41773 
14855 2 43.235 1.637 6.4 6.02294 -129102 -164421 -38234.6 11642.3 -24129.9 -34280.9 -7.41734 
14856 2 42.537 0.403 6.4 6.02078 -120841 -131220 -32152.2 -33007.5 26087.4 -35390.3 -7.41736 
15032 2 44.583 9.018 6.4 6.02413 -150375 -161354 4297.15 1561.93 32931.3 -38210.7 -7.41968 
15033 2 45.303 7.797 6.4 6.02303 -132958 -162924 -55080.8 29525.1 -18380.5 -27321.9 -7.41638 
15034 2 44.606 6.562 6.4 6.02166 -137366 -149220 -4942.54 -9422.83 32034.3 -37036.6 -7.41886 
15035 2 45.327 5.341 6.4 6.02295 -126614 -165018 -47031.4 11470.5 -21479.6 -29376.3 -7.41681 
15036 2 44.629 4.107 6.4 6.0211 -125001 -134917 -13986.9 -29859.9 30614.1 -35634.1 -7.41833 
15037 2 45.35 2.885 6.4 6.02316 -129397 -147771 -38596.3 -19444.6 -24343.6 -31232.6 -7.41708 
15038 2 44.653 1.651 6.4 6.02152 -138796 -163588 -23549 -30015.4 28725.4 -34056.4 -7.41839 