ITEM: TIMESTEP
179
ITEM: NUMBER OF ATOMS
18152
ITEM: BOX BOUNDS pp pp pp
0.0000000000000000e+00 1.1698915500000000e+02
0.0000000000000000e+00 2.0263116099999999e+02
0.0000000000000000e+00 1.8399999999999999e+01
ITEM: ATOMS id type x y z c_csym c_2[1] c_2[2] c_2[3] c_2[4] c_2[5] c_2[6] c_3 
187 1 0.879535 8.57927 7.41043 6.01363 -170019 -141794 -2947.09 -24815.9 15706.9 -3402.59 -7.41525 
188 1 0.147534 7.36522 7.40658 6.02139 -149274 -163472 2111.32 -18070.2 20262.2 -1305.91 -7.41545 
189 1 0.832352 6.12374 7.40326 6.01854 -166438 -146066 -1039.44 -13492.6 12676 -3061.22 -7.4151 
190 1 0.0994581 4.91017 7.40027 6.02412 -151346 -161570 686.464 -8331.41 13492.4 -890.41 -7.41511 
191 1 0.78358 3.66835 7.39803 6.02273 -162541 -150275 -168.139 -5345.79 8395.59 -2640.35 -7.41497 
192 1 0.0500674 2.4551 7.3962 6.02705 -153836 -159150 125.928 -2087.46 6608.97 -437.147 -7.41492 
193 1 0.733793 1.21309 7.39526 6.02757 -158434 -154415 42.0457 -1120.34 2970 -2124.07 -7.41487 
194 1 -6.71937e-07 -1.89087e-06 7.39479 6.02978 -156451 -156415 38.292 -19.924 -0.0304659 -0.180362 -7.41486 
353 1 2.29702 8.55059 7.41119 6.01585 -160617 -151932 2566.3 -20090.7 22958.5 -4246.31 -7.41566 
354 1 2.98186 7.30904 7.40812 6.01624 -178646 -133635 -925.162 -18220.1 14064.6 -9888.41 -7.41529 
355 1 2.24982 6.09496 7.40411 6.01923 -159161 -153578 793.636 -8713.33 16327.3 -4724.63 -7.41527 
356 1 2.93398 4.8531 7.402 6.02 -171488 -141156 117.586 -8452.35 10519.4 -9212.72 -7.41513 
357 1 2.20104 3.63951 7.39893 6.02241 -157947 -154949 46.667 -549.671 9433.29 -5072.95 -7.41501 
358 1 2.88479 2.39749 7.39804 6.02454 -163946 -148921 298.306 -2288.14 5763.61 -8336.37 -7.415 
359 1 2.15126 1.18423 7.3962 6.02535 -156787 -155992 -30.7603 3536.24 2626.45 -5323.2 -7.4149 
518 1 5.13023 8.49549 7.41484 6.01324 -193070 -118737 297.58 -20674.2 15258 -16561.3 -7.41562 
519 1 4.39928 7.28074 7.41007 6.01198 -169908 -142367 -21.3189 -7014.44 18410 -7567.88 -7.41544 
520 1 5.08349 6.03885 7.40817 6.01745 -183227 -129295 1300.17 -9267.2 12531.2 -15736.5 -7.41544 
521 1 4.3514 4.82473 7.40411 6.01685 -165287 -147240 -719.32 2991.09 11630.8 -8735.43 -7.41516 
522 1 5.03521 3.5827 7.40329 6.02168 -172633 -140108 1239.26 -1214.8 8573.94 -14622.2 -7.41526 
523 1 4.30224 2.36907 7.40026 6.02058 -160652 -151886 -545.733 9187.38 4790.85 -9725.89 -7.41502 
524 1 4.98596 1.12706 7.4007 6.02235 -161580 -151121 511.809 2705.38 3478.27 -13197.7 -7.41511 
683 1 6.5476 8.468 7.41766 6.00422 -182934 -128774 -2076.99 -3740.46 19717.9 -9418 -7.4156 
684 1 7.2319 7.22609 7.41603 6.01222 -196845 -115404 3675.73 -8011.97 14355.9 -21900.1 -7.4159 
685 1 6.50088 6.01129 7.41124 6.01012 -175352 -136693 -2544.62 8301.41 13139.6 -11341.1 -7.41531 
686 1 7.18478 4.76927 7.41051 6.01799 -183780 -128895 3210.76 1912.4 11282.4 -20646.5 -7.41567 
687 1 6.45263 3.5551 7.40655 6.01551 -167635 -144643 -1926.06 16623.4 6386.62 -13045 -7.41517 
688 1 7.13642 2.31311 7.40696 6.01944 -169990 -142809 1837.46 7883.39 6996.9 -19013.7 -7.41545 
689 1 6.40341 1.09943 7.4041 6.01821 -159832 -152639 -621.654 20600.9 -187.905 -14533.2 -7.41516 
848 1 9.37902 8.41521 7.42501 6.0051 -211740 -100109 7409.52 -5056.52 15947.2 -27465.9 -7.41649 
849 1 8.64924 7.19961 7.41974 6.00303 -187193 -123712 -5676.93 14851 13979.3 -12940.9 -7.41543 
850 1 9.33329 5.95762 7.4191 6.01195 -196693 -115674 6445.77 6742.73 13807.1 -26152 -7.41621 
851 1 8.60215 4.74276 7.41448 6.01027 -176876 -134530 -4487.85 25312.8 7391.59 -15270 -7.4153 
852 1 9.28608 3.50082 7.41484 6.01667 -180666 -131955 4322.14 14771.1 10417.9 -24409.4 -7.41592 
853 1 8.55384 2.2866 7.41115 6.01485 -166324 -145591 -2361.17 31536 861.505 -17357.7 -7.41531 
854 1 9.23795 1.04484 7.41266 6.01168 -163749 -148596 1481.72 18598.8 5859.96 -22230.8 -7.41565 
1013 1 10.7963 8.39003 7.42904 5.99599 -200316 -109141 -10215.9 22304 14227.6 -13665.9 -7.41548 
1014 1 11.4806 7.1481 7.42846 6.00538 -210765 -101405 11037.1 12906.7 16083.3 -30952.3 -7.41689 
1015 1 10.7506 5.93245 7.42342 6.00382 -187936 -122415 -8409.28 34883.9 7857.67 -16500.2 -7.41539 
1016 1 11.4347 4.69057 7.42368 6.01205 -193077 -119499 8135.17 23034.8 13643.3 -29179.3 -7.41652 
1017 1 10.7034 3.47567 7.41944 6.01055 -175140 -136075 -5395.28 43374.2 1437.68 -19085.7 -7.41543 
1018 1 11.3877 2.23399 7.42075 6.00793 -174317 -138185 4233.94 29039.8 9941.81 -26943.3 -7.41615 
1019 1 10.6554 1.0197 7.41751 6.01244 -161868 -149772 -1646.05 47281 -4673.95 -21428.5 -7.4156 
1178 1 13.6265 8.34094 7.43803 5.99867 -224885 -86755.6 16932.8 20031.9 18048.2 -34909.8 -7.41766 
1179 1 12.8978 7.12442 7.43277 5.99756 -200025 -108907 -13713.5 44822.2 7883.03 -16886.3 -7.4154 
1180 1 13.5822 5.88265 7.43286 6.00598 -206331 -106002 13300.7 32230.2 16582.7 -33177.9 -7.41724 
1181 1 12.852 4.66697 7.42831 6.00642 -185461 -124526 -9831.05 55627.8 1618.59 -19854.5 -7.41548 
1182 1 13.5365 3.42538 7.42937 6.00474 -186356 -126130 8380.44 40433.5 13796.8 -30964 -7.41678 
1183 1 12.8051 2.21042 7.42573 6.00955 -170426 -140500 -4919.01 61873.9 -4459.37 -22578.5 -7.4157 
1184 1 13.4899 0.969156 7.42785 5.99888 -165319 -146640 2675.9 44158.1 9776.12 -28287 -7.41633 
1343 1 15.0437 8.31886 7.44203 5.99168 -212225 -94823.7 -20273.8 54602.1 7581.35 -16585.9 -7.41533 
1344 1 15.7284 7.07723 7.44187 5.99988 -219728 -92312.6 19699.5 41785.3 19145.1 -36298.4 -7.41804 
1345 1 14.9994 5.8607 7.43718 6.00082 -196671 -111943 -15618.6 67689.3 1510.64 -19828 -7.41546 
1346 1 15.6842 4.61925 7.43792 6.00026 -199053 -113252 13876.9 52326.8 17310.2 -34176.5 -7.41751 
1347 1 14.9538 3.40353 7.4341 6.00741 -180333 -129490 -9629.94 76403.3 -4494.71 -22825.2 -7.41572 
1348 1 15.6388 2.16238 7.4359 5.99505 -177173 -134835 6967.47 58412.4 14135.5 -31587 -7.41695 
1349 1 14.9073 0.947354 7.43301 6.00274 -163378 -147251 -2857.02 80203.7 -10073.3 -25601.1 -7.41611 
1508 1 17.8733 8.27441 7.45033 5.99404 -232628 -79047.2 27085.7 51337.8 21246.5 -38468.3 -7.41889 
1509 1 17.1456 7.057 7.4456 5.99564 -208016 -98904.9 -22566.4 79139.7 1220.61 -19163.6 -7.41535 
1510 1 17.8307 5.81572 7.44595 5.99574 -211886 -100250 20540.3 64133.2 20371.4 -36500.1 -7.4183 
1511 1 17.1015 4.59918 7.4421 6.00482 -190864 -117495 -15662.2 90280 -4672.8 -22340 -7.41566 
1512 1 17.7868 3.35817 7.44352 5.99198 -189618 -122330 12609.7 72610 18090.4 -34062.3 -7.41766 
1513 1 17.0562 2.14242 7.4406 5.99954 -173095 -136542 -7663.78 96589 -10274.8 -25289.4 -7.4161 
1514 1 17.742 0.901806 7.44309 5.98569 -166263 -144897 3848.05 76258.6 14518.3 -31193.5 -7.41701 
1673 1 19.2904 8.25588 7.45326 5.9911 -218950 -86116.7 -30370.6 89542.5 836.612 -18008.4 -7.41517 
1675 1 19.2479 5.79743 7.44935 6.00074 -201596 -105334 -22769 103047 -4902.06 -21282.1 -7.41552 
1677 1 19.2041 3.34007 7.4475 5.99705 -183376 -125090 -13768.6 111915 -10486 -24324.2 -7.416 
1679 1 19.1594 0.883789 7.44771 5.98959 -164446 -145036 -3971.77 115575 -15553.4 -27168 -7.4166 
1674 1 19.9759 7.01481 7.45318 5.99178 -224048 -87807.7 28079.8 75332.3 22888.9 -37895.2 -7.41913 
1676 1 19.9335 4.55661 7.45034 5.98775 -202001 -109870 19362.4 86253.6 21523.2 -35661.1 -7.41842 
1678 1 19.8901 2.09961 7.44964 5.98233 -178666 -132632 9518.58 92449.6 18766.5 -33001.4 -7.41768 
1838 1 22.1199 8.21649 7.45947 5.98796 -234980 -76405.3 36145.8 85517.3 24806.4 -38375.9 -7.41998 
1839 1 21.3931 6.99827 7.45567 5.99609 -211707 -93517.3 -30614.3 114269 -5116.11 -19797.1 -7.41531 
1840 1 22.0792 5.75768 7.4562 5.98361 -213820 -97935.2 26904.5 98824.6 24347.1 -36379.2 -7.41922 
1841 1 21.3508 4.54033 7.45345 5.99527 -193549 -113451 -20881.2 125671 -10633.7 -22866.8 -7.41582 
1842 1 22.0372 3.30005 7.45519 5.97985 -191046 -120496 16259.2 107516 22440.6 -33969.1 -7.4184 
1843 1 21.3075 2.08348 7.45345 5.98664 -174642 -133896 -10053.6 131926 -15781.9 -25725.7 -7.41646 
1844 1 21.9944 0.843627 7.45628 5.97349 -167015 -143443 4781.91 111119 19238.7 -31189.4 -7.41758 
2003 1 23.5371 8.20161 7.46103 5.99189 -220661 -82522.1 -38825.3 123621 -5276.46 -18020.7 -7.41504 
2004 1 24.2236 6.96128 7.46108 5.98023 -224199 -87068.2 34881.8 109823 26517.6 -36266.3 -7.42002 
2005 1 23.4964 5.74313 7.45837 5.99229 -203194 -102243 -28648.9 137405 -10676.8 -21061.1 -7.41557 
2006 1 24.1832 4.50307 7.45968 5.97624 -202396 -108775 23727.2 121061 25468.3 -34127.1 -7.41914 
2007 1 23.4545 3.28574 7.45809 5.98451 -184698 -122527 -17097.9 146363 -15852.5 -23887.4 -7.41624 
2008 1 24.1417 2.04605 7.46061 5.97095 -179288 -131259 11473.5 127306 23038.4 -31634 -7.41825 
2009 1 23.4118 0.829441 7.45996 5.97676 -165330 -143056 -4782.44 149866 -20449.9 -26529.6 -7.41701 
2168 1 26.367 8.16728 7.46512 5.97765 -232893 -77666.8 42954.8 119024 28034.6 -35422.9 -7.4208 
2169 1 25.6408 6.94835 7.46236 5.98942 -211561 -92005.3 -36709.9 146954 -10600.1 -19035.3 -7.41528 
2170 1 26.328 5.70855 7.46323 5.97288 -212597 -98241.4 31574.7 132654 27819.5 -33553.6 -7.41989 
2171 1 25.6004 4.49046 7.46169 5.98316 -193899 -111798 -24747.5 158479 -15745.9 -21789.9 -7.41596 
2172 1 26.2879 3.25097 7.46385 5.96932 -190749 -119887 18852.2 141496 26182.9 -31356.3 -7.41894 
2173 1 25.559 2.03364 7.46341 5.97445 -175375 -132032 -11749.3 164665 -20465.9 -24351.1 -7.41675 
2174 1 26.2471 0.794568 7.46662 5.96318 -167544 -141874 5342.95 145039 23302 -28870.2 -7.41799 
2333 1 27.7841 8.15583 7.46562 5.98722 -218332 -83031.3 -44738.4 154132 -10408.6 -16904.6 -7.41496 
2334 1 28.4719 6.91631 7.46606 5.97036 -221151 -89131.7 39487.8 142033 29507.6 -32364.1 -7.42062 
2335 1 27.7452 5.6975 7.46443 5.98166 -201946 -101975 -32656 168029 -15468.1 -19550.7 -7.41564 
2336 1 28.4332 4.45824 7.4662 5.96646 -200831 -109391 26582.3 153441 28658.5 -30452.9 -7.41964 
2337 1 27.7052 3.2402 7.4658 5.97297 -184487 -121449 -19292.4 176965 -20248.9 -22009.5 -7.41643 
2338 1 28.3936 2.0013 7.46875 5.96144 -179171 -130427 12656.1 159685 26495.1 -28278.3 -7.41863 
2339 1 27.6644 0.783947 7.46934 5.96533 -166029 -141207 -5222.17 180341 -24414.4 -24298.5 -7.41733 
2498 1 30.6147 8.12616 7.46844 5.96866 -227913 -81794.3 47212.2 149145 30580.2 -30695.9 -7.42132 
2499 1 29.889 6.90667 7.46658 5.97946 -208567 -93600 -40530 175045 -15040.3 -17267.9 -7.41529 
2500 1 30.5775 5.66767 7.46797 5.96402 -209531 -100500 34374.1 162933 30487.9 -29042.6 -7.42032 
2501 1 29.8504 4.44895 7.46744 5.97222 -192465 -112030 -27087.3 186548 -19819.8 -19603.5 -7.41608 
2502 1 30.5391 3.21025 7.47006 5.95972 -189565 -120204 20306.3 171814 29051.6 -27161.8 -7.41928 
2503 1 29.8109 1.99224 7.4707 5.96379 -175408 -130917 -12697.9 192677 -24136.8 -21770.7 -7.41697 
2504 1 30.5001 0.753905 7.47424 5.95453 -168169 -140284 5523.91 175327 26455.3 -25081.4 -7.41824 
2663 1 32.0318 8.11775 7.46845 5.97796 -213473 -86798.7 -48145.5 179572 -14490 -15023.3 -7.41495 
2664 1 32.7208 6.87905 7.46947 5.96238 -216311 -93341.5 42004.8 169921 31719.8 -27254.4 -7.42099 
2665 1 31.9946 5.6597 7.46863 5.97207 -199096 -103975 -34866.4 193420 -19210.8 -17212.8 -7.41571 
2666 1 32.6837 4.42122 7.47091 5.95849 -198329 -111391 28030.3 181332 30998.7 -25635.7 -7.41993 
2667 1 31.9564 3.20258 7.47138 5.96304 -183582 -121713 -20428.6 202271 -23614.2 -19250.9 -7.41658 
2668 1 32.6458 1.96441 7.47466 5.95279 -178924 -130155 13136.8 187583 29057.7 -23848.7 -7.41886 
2669 1 31.9174 0.746391 7.47616 5.95583 -166925 -139686 -5348.48 205589 -27389.6 -21139.3 -7.41756 
2828 1 34.8632 8.09214 7.47097 5.9615 -220729 -87906 49321.5 174482 32418.5 -25211 -7.42162 
2829 1 34.1379 6.87222 7.46972 5.97096 -203854 -97412.7 -42432.2 197700 -18456.7 -14900.6 -7.41534 
2830 1 34.8275 5.63399 7.47163 5.95703 -204964 -104149 35632.2 188264 32381.8 -23814.8 -7.42056 
2831 1 34.1009 4.41476 7.47174 5.96293 -190114 -113733 -28170.2 209111 -22884.1 -16798 -7.41618 
2832 1 34.7907 3.17678 7.47471 5.95187 -187687 -121351 20841.1 197111 31100.7 -22287.4 -7.41947 
2833 1 34.0631 1.95819 7.47602 5.95508 -175310 -130488 -13054.9 215161 -26832.6 -18559 -7.41713 
2834 1 34.7533 0.72052 7.47969 5.94719 -168793 -138908 5414.72 200611 28750.2 -20644.9 -7.41839 
2993 1 36.2804 8.08629 7.47097 5.97023 -206367 -92437 -49655.4 199559 -17591.3 -12714 -7.41498 
2994 1 36.9705 6.84834 7.47252 5.95622 -209537 -98659 42977.4 192648 33256.5 -21803.1 -7.42117 
2995 1 36.2447 5.62859 7.47213 5.96328 -194633 -107245 -35746.9 213265 -21986 -14456.8 -7.41578 
2996 1 36.9349 4.39081 7.47474 5.95111 -194462 -114032 28461.4 203971 32623.7 -20496.2 -7.42007 
2997 1 36.208 3.17168 7.47565 5.95497 -181785 -122594 -20799.5 221990 -26043 -16087.2 -7.4167 
2998 1 36.8984 1.93416 7.47905 5.94621 -177888 -130018 13127 210213 30867 -19104.4 -7.41897 
2999 1 36.1706 0.715581 7.48101 5.94841 -167538 -138066 -5267.54 225271 -29481.2 -17594.5 -7.4177 
3159 1 38.3876 6.84382 7.47282 5.96403 -197297 -102519 -43043.6 214953 -20958 -12259.8 -7.4154 
3161 1 38.3521 4.38667 7.47542 5.95534 -186415 -116200 -28424.3 226219 -25063.1 -13751.4 -7.41627 
3163 1 38.3157 1.93025 7.48002 5.94827 -174372 -130286 -13033 232193 -28692.4 -15140.1 -7.41724 
3158 1 39.1127 8.06404 7.47379 5.95609 -211999 -95051.7 49983.2 194673 33682.2 -19686.1 -7.42175 
3160 1 39.0783 5.60628 7.47507 5.95084 -199282 -108468 35879.3 208348 33671.8 -18560.3 -7.42066 
3162 1 39.0428 3.14931 7.47847 5.94576 -185048 -122763 20790.7 217133 32514 -17381.1 -7.41955 
3164 1 39.0068 0.693146 7.48353 5.94186 -169161 -137381 5140.09 220638 30366.2 -16154.6 -7.41846 
3323 1 40.5299 8.06025 7.47399 5.96398 -197950 -99534.5 -49993.4 214425 -19834.3 -10229.3 -7.41504 
3324 1 41.221 6.82296 7.47589 5.95105 -202142 -104912 43020.9 210270 34291.8 -16548.4 -7.42124 
3325 1 40.4954 5.60293 7.4756 5.95611 -189246 -111607 -35825.7 227899 -23932.7 -11572.1 -7.41586 
3326 1 41.1866 4.36576 7.47827 5.94542 -190148 -117249 28300.8 221510 33725.5 -15544.7 -7.42013 
3327 1 40.4601 3.14626 7.47923 5.94864 -179356 -124084 -20719.2 236552 -27691.2 -12838.4 -7.41679 
3328 1 41.1513 1.90928 7.48243 5.94146 -176780 -130170 12847.9 227731 32117.9 -14519 -7.41902 
3329 1 40.4241 0.690243 7.48444 5.9429 -168041 -136665 -5076.41 239823 -30856.2 -14009.9 -7.4178 
3488 1 43.3632 8.04064 7.47731 5.95155 -202610 -103043 49847.3 209974 34529.1 -14509.7 -7.42179 
3489 1 42.6382 6.82025 7.47635 5.9572 -190107 -108680 -42940.8 227345 -22687.6 -9562.3 -7.41547 
3490 1 43.3297 5.5833 7.47865 5.94556 -193102 -113510 35592.4 223507 34536.2 -13649.5 -7.42069 
3491 1 42.6038 4.36342 7.47892 5.9494 -182308 -119460 -28232 238464 -26517.2 -10698.7 -7.41635 
3492 1 43.2953 3.12658 7.48176 5.94123 -182139 -124689 20447.4 232258 33477.5 -12789.7 -7.41958 
3493 1 42.5686 1.90716 7.48316 5.94321 -173383 -130524 -12814.3 244391 -29888.9 -11763.5 -7.41732 
3494 1 43.2604 0.670507 7.48624 5.9383 -169419 -136098 4799.01 235813 31490.3 -11929.8 -7.41849 
3653 1 44.7804 8.03842 7.47775 5.95828 -188724 -107345 -49739 224714 -21358.2 -7727.95 -7.4151 
3654 1 45.4724 6.8017 7.47971 5.94597 -193977 -111565 42627.7 223241 34979.2 -11732.3 -7.42124 
3655 1 44.7469 5.5815 7.47925 5.95046 -183191 -116520 -35513.9 238024 -25206.9 -8726.69 -7.41593 
3656 1 45.4388 4.34484 7.48172 5.94122 -185318 -120852 27879.8 234403 34468.2 -11008.8 -7.42014 
3657 1 44.7126 3.12508 7.48241 5.94389 -176513 -125995 -20425.1 246607 -28726.5 -9678.84 -7.41685 
3658 1 45.4045 1.88853 7.48515 5.93825 -175211 -130596 12465.4 240664 32979 -10303.9 -7.41903 
3659 1 44.6776 0.669143 7.48685 5.93902 -168288 -135480 -4836.94 249930 -31686.9 -10561.8 -7.41786 
3818 1 47.6146 8.02077 7.48148 5.94664 -192791 -111317 49385.6 220954 35085.1 -9814.38 -7.42178 
3819 1 46.8896 6.80032 7.48032 5.95154 -182148 -115319 -42534.7 235550 -23792.9 -6923.68 -7.41553 
3820 1 47.5819 5.56385 7.48242 5.94151 -186524 -118844 35109.8 234393 35112 -9204.05 -7.42069 
3821 1 46.8561 4.34381 7.48235 5.94487 -177609 -123167 -27857.1 246588 -27405.1 -7755.48 -7.41641 
3822 1 47.5483 3.1074 7.48473 5.93805 -178820 -126901 20012.4 243166 34134.3 -8626.65 -7.41958 
3823 1 46.8218 1.88772 7.48571 5.93959 -171877 -131099 -12518.4 252555 -30585.5 -8541.05 -7.41737 
3824 1 47.5141 0.651413 7.48814 5.93609 -169508 -135098 4455.39 246810 32270 -8077.92 -7.41849 
3983 1 49.0319 8.01967 7.4821 5.95254 -179106 -115598 -49278.8 231215 -22302.4 -5287.04 -7.41516 
3984 1 49.7246 6.78341 7.48388 5.94204 -185595 -118548 42115.2 232322 35428.5 -7390.23 -7.42123 
3985 1 48.9991 5.56317 7.48307 5.94591 -176789 -121980 -35079.8 244446 -25957 -5991.63 -7.41598 
3986 1 49.6916 4.3269 7.48509 5.93818 -180240 -124897 27407.4 243474 34967.9 -6918.74 -7.42012 
3987 1 48.9655 3.10699 7.4853 5.94044 -173307 -128404 -20069.4 252988 -29301.2 -6672.01 -7.4169 
3988 1 49.658 1.87077 7.48738 5.93601 -173404 -131441 12078.4 249796 33571.4 -6488.94 -7.41903 
3989 1 48.9314 0.651141 7.48854 5.93647 -168417 -134767 -4585.83 256450 -32122.5 -7304.08 -7.4179 
4148 1 51.867 8.00336 7.48606 5.94285 -182600 -119768 48882.9 228335 35435.5 -5570.74 -7.42176 
4149 1 51.1418 6.78295 7.48456 5.94684 -173869 -122291 -42075.6 240367 -24409.6 -4382.69 -7.41558 
4150 1 51.8347 5.54686 7.48626 5.93853 -179559 -124443 34629.2 241750 35490 -5190.17 -7.42067 
4151 1 51.1089 4.32678 7.4857 5.94141 -172586 -127239 -27460.7 251366 -27865 -4949.52 -7.41645 
4152 1 51.8016 3.09067 7.48743 5.93595 -175172 -129511 19598.7 250556 34579.9 -4859.09 -7.41956 
4153 1 51.0752 1.87085 7.48782 5.93715 -170094 -132161 -12215.3 257392 -30917 -5489.11 -7.41741 
4154 1 51.7679 0.634784 7.48945 5.93498 -169201 -134592 4137.6 254333 32806.6 -4573.46 -7.41848 
4313 1 53.2843 8.003 7.48676 5.948 -169019 -124060 -48833.8 234502 -22786.5 -2921.83 -7.41521 
4314 1 53.9776 6.76709 7.48819 5.93918 -176939 -125700 41661.4 238048 35709.1 -3440.78 -7.42121 
4315 1 53.252 5.54689 7.48691 5.94222 -169886 -127651 -34674.2 247665 -26304.6 -3368.29 -7.41602 
4316 1 53.9449 4.31091 7.48832 5.93608 -174783 -129152 26994.7 249210 35297.4 -3194.36 -7.4201 
4317 1 53.2188 3.09097 7.48792 5.93802 -169697 -131208 -19733.9 256261 -29534 -3805.85 -7.41693 
4318 1 53.9117 1.85497 7.48923 5.9348 -171333 -132738 11735.8 255644 33972.4 -3001.93 -7.41901 
4319 1 53.1852 0.635205 7.4897 5.93497 -168105 -134500 -4337.57 259811 -32274.2 -4211 -7.41793 
4478 1 56.1203 7.98743 7.49076 5.94013 -172324 -128406 48490.1 232493 35632.5 -1661.5 -7.42174 
4479 1 55.3949 6.76716 7.48887 5.94328 -165282 -129573 -41695.6 242109 -24643.1 -1921.69 -7.41562 
4480 1 56.0882 5.53134 7.49001 5.93653 -172471 -130396 34250.3 245913 35723.7 -1492.4 -7.42065 
4481 1 55.3622 4.31131 7.48888 5.93867 -167203 -131765 -27122.8 253117 -27999.3 -2248.02 -7.41648 
4482 1 56.0552 3.07541 7.48986 5.93469 -171328 -132533 19259.2 254834 34870.9 -1379.68 -7.41955 
4483 1 55.3289 1.85556 7.48955 5.93572 -168046 -133711 -11936.5 259260 -30979.5 -2560.1 -7.41743 
4484 1 56.0218 0.61963 7.49031 5.93437 -168731 -134604 3855.56 258750 33160.9 -1322.08 -7.41847 
4643 1 57.5376 7.98742 7.49144 5.94459 -158758 -132930 -48512 234737 -22899 -603.214 -7.41524 
4644 1 58.2313 6.75176 7.49239 5.9373 -168036 -133219 41347.8 240689 35858.6 256.741 -7.42119 
4645 1 57.5055 5.53171 7.49061 5.93959 -162816 -133827 -34365.8 247974 -26335.5 -809.931 -7.41605 
4646 1 58.1987 4.29592 7.49133 5.93492 -169167 -133900 26690 251971 35495.2 297.357 -7.42009 
4647 1 57.4725 3.07604 7.49026 5.93619 -165872 -134508 -19453.4 256662 -29504.9 -1017.89 -7.41696 
4648 1 58.1655 1.84017 7.49071 5.93413 -168978 -134517 11455.4 258564 34223.1 277.968 -7.419 
4649 1 57.4391 0.620377 7.49043 5.93443 -167624 -134865 -4094.37 260397 -32213.6 -1204.77 -7.41794 
4807 1 59.6803 9.20748 7.49445 5.94614 -150315 -137698 -55107.9 225527 -21085.4 591.999 -7.41487 
4808 1 60.3744 7.97203 7.4953 5.93839 -161627 -137522 48268.2 233570 35700.9 2070.08 -7.42173 
4809 1 59.6487 6.752 7.493 5.94077 -156329 -137375 -41447.9 240907 -24560.4 513.271 -7.41564 
4810 1 60.3422 5.51635 7.49352 5.93547 -164953 -136745 34010.6 247167 35837.6 2039.04 -7.42064 
4811 1 59.6161 4.29648 7.49178 5.93693 -161545 -136758 -26872 252084 -27870.8 420.799 -7.4165 
4812 1 60.3093 3.06068 7.49196 5.93407 -167125 -136065 19011.4 256271 35031.6 1950.42 -7.41954 
4813 1 59.5828 1.84091 7.49091 5.93476 -165679 -135818 -11689.7 258387 -30829 333.266 -7.41745 
4814 1 60.2758 0.605025 7.49076 5.93388 -167856 -135226 3609.36 260365 33358.6 1800.12 -7.41846 
4972 1 62.5176 9.19195 7.49851 5.93983 -153376 -143472 54982.4 224651 35248.5 3971.75 -7.42227 
4973 1 61.7919 7.972 7.49586 5.94223 -148027 -142551 -48349 231954 -22687.6 1724.3 -7.41525 
4974 1 62.4858 6.7365 7.49627 5.93636 -158752 -141336 41196.8 240419 35890 3862.11 -7.42119 
4975 1 61.7596 5.5167 7.49399 5.93794 -155272 -140627 -34174.2 245435 -26094.3 1758.13 -7.41606 
4976 1 62.453 4.28101 7.49396 5.9343 -163128 -139216 26503.8 251933 35572.7 3705.36 -7.42008 
4977 1 61.7266 3.06129 7.49223 5.93529 -161640 -138415 -19234 254316 -29253.7 1783.65 -7.41697 
4978 1 62.4196 1.82545 7.49179 5.93359 -166261 -136930 11238.2 258720 34333.7 3485.9 -7.41899 
4979 1 61.6931 0.605744 7.49076 5.93438 -166722 -135793 -3851.62 258212 -31975.7 1821.41 -7.41796 
5137 1 63.9351 9.19153 7.49896 5.94395 -137851 -149159 -55039.6 221130 -20724.7 2822.01 -7.41487 
5138 1 64.6295 7.95622 7.49935 5.93759 -150629 -147456 48215.7 231728 35643.5 5789.78 -7.42173 
5139 1 63.9032 6.73654 7.4967 5.93924 -146983 -146042 -41337.1 236804 -24187.7 2993.7 -7.41564 
5140 1 64.5969 5.50097 7.49655 5.93484 -157152 -143916 33906.9 245604 35831.2 5558.23 -7.42063 
5141 1 63.8704 4.28137 7.49425 5.9361 -155462 -142542 -26708 248205 -27502.3 3146.79 -7.4165 
5142 1 64.5636 3.04559 7.4936 5.93358 -162589 -140316 18850.8 254944 35059.3 5271.63 -7.41953 
5143 1 63.8369 1.82599 7.49186 5.93468 -162936 -138610 -11470.5 254719 -30485.1 3297.73 -7.41746 
5144 1 64.5299 0.590067 7.4908 5.93417 -166660 -136474 3392.08 259240 33394.5 4918.67 -7.41845 
5302 1 66.7734 9.17533 7.50249 5.93921 -140768 -155247 55016.8 221177 35088.8 7850.56 -7.42227 
5303 1 66.047 7.95581 7.49967 5.94085 -136898 -153090 -48326.5 226182 -22158.3 4122.69 -7.41524 
5304 1 66.741 6.72039 7.4995 5.93572 -149212 -150296 41182 237277 35792.1 7530.47 -7.42119 
5305 1 66.0143 5.50095 7.49681 5.93722 -147356 -148243 -34085.2 239964 -25585.4 4418.11 -7.41606 
5306 1 66.7078 4.26526 7.49602 5.93391 -156864 -145278 26418 249059 35514.7 7171.32 -7.42008 
5307 1 65.9809 3.04582 7.49369 5.93528 -157047 -143066 -19065 249092 -28783.1 4699.91 -7.41697 
5308 1 66.6739 1.80993 7.49238 5.93395 -163297 -140029 11072.1 256083 34285.4 6749.55 -7.41898 
5309 1 65.9471 0.590404 7.49065 5.93483 -165518 -137444 -3601.54 253200 -31561 4986.25 -7.41796 
5467 1 68.191 9.17435 7.50259 5.9428 -125103 -161632 -55089.7 213589 -20007.1 5133.91 -7.41486 
5469 1 68.1585 6.71987 7.49964 5.93867 -137317 -155588 -41327 229615 -23508.5 5587.95 -7.41563 
5471 1 68.1252 4.26506 7.49607 5.93621 -149120 -149095 -26606.1 241321 -26877.5 6019.53 -7.4165 
5473 1 68.0913 1.8099 7.49225 5.9352 -159931 -142096 -11264.9 248090 -29931.6 6442.76 -7.41746 
5468 1 68.8854 7.9391 7.50251 5.93699 -139465 -158288 48271.6 226920 35439.8 9648.95 -7.42174 
5470 1 68.8522 5.4843 7.49881 5.9346 -149112 -151838 33897.2 241109 35678.9 9203.86 -7.42063 
5472 1 68.8183 3.02922 7.4946 5.93405 -157831 -145251 18750.6 250749 34922.5 8709.09 -7.41952 
5474 1 68.784 0.573839 7.49032 5.93542 -165236 -138359 3192.76 255281 33231.2 8144.46 -7.41843 
5632 1 71.0301 9.15693 7.50523 5.93874 -128007 -167877 55087.9 214586 34758.7 11944.8 -7.42227 
5633 1 70.303 7.93794 7.50242 5.94052 -125538 -164492 -48371.7 217156 -21272 6639.91 -7.41522 
5634 1 70.997 6.70251 7.50167 5.93573 -139377 -159996 41222.4 231054 35529.9 11393.5 -7.42118 
5635 1 70.2697 5.48352 7.49873 5.93749 -139161 -156656 -34048.5 231296 -24771.4 7241.3 -7.41604 
5636 1 70.963 4.24776 7.4972 5.93454 -150180 -152031 26380.2 243179 35279 10813.6 -7.42006 
5637 1 70.2357 3.0287 7.49441 5.93596 -152186 -148412 -18916.9 240725 -28058 7823.78 -7.41696 
5638 1 70.9284 1.79265 7.49228 5.93532 -159948 -143728 10931.5 250477 34027.5 10172.8 -7.41895 
5639 1 70.2012 0.573422 7.48997 5.93575 -164064 -139632 -3335.04 245062 -30937.1 8402.04 -7.41797 
5797 1 72.4478 9.15498 7.50478 5.94282 -112141 -174971 -55125 202582 -18870.2 7548.71 -7.41483 
5798 1 73.1422 7.91972 7.50422 5.93737 -128164 -169797 48294.7 218839 35045.8 13768.6 -7.42172 
5799 1 72.4146 6.70103 7.50133 5.93922 -127305 -165877 -41323.3 219000 -22463 8341.83 -7.41561 
5800 1 73.1081 5.46537 7.49986 5.93552 -140800 -160375 33886.9 233409 35327.1 13083.2 -7.42061 
5801 1 72.3804 4.24661 7.49686 5.93723 -142302 -156305 -26507.4 231059 -25939.9 9108.04 -7.41648 
5802 1 73.0733 3.0106 7.49463 5.93564 -152744 -150730 18658.8 243364 34557.8 12355.4 -7.41949 
5803 1 72.3458 1.79168 7.49186 5.93633 -156512 -146113 -11047 238102 -29116.2 9858.11 -7.41745 
5804 1 73.0381 0.555377 7.48914 5.93777 -163485 -140709 2996.31 248122 32795.2 11555.5 -7.41839 
5962 1 75.2877 9.13577 7.50604 5.93961 -115455 -181093 54970.2 204539 34206.7 16360 -7.42223 
5963 1 74.5598 7.9174 7.50349 5.94144 -114012 -176623 -48322.5 204464 -19944.4 9289.74 -7.41519 
5964 1 75.2537 6.68187 7.50219 5.93707 -129645 -170263 41158.6 221377 35039.3 15542.5 -7.42115 
5965 1 74.5257 5.46344 7.49924 5.93897 -130702 -165698 -33956.6 218992 -23572.2 10264.9 -7.41602 
5966 1 75.2187 4.2275 7.49704 5.93646 -143534 -159260 26291.2 233855 34789.2 14708.1 -7.42003 
5967 1 74.4907 3.00892 7.49403 5.93744 -147044 -154308 -18731.8 228749 -27003.3 11214.6 -7.41695 
5968 1 75.1831 1.77262 7.49117 5.93793 -156507 -147908 10772.3 241442 33472.4 13816.4 -7.41891 
5969 1 74.4554 0.553799 7.4885 5.93783 -162329 -142351 -3040.71 233321 -30034.5 12147.1 -7.41796 
6127 1 76.7055 9.13244 7.50478 5.94424 -99336.4 -188786 -54887.5 187748 -17201.7 10042.7 -7.41481 
6128 1 77.3997 7.89707 7.50376 5.93928 -117191 -181599 48034.2 207108 34390.8 18218.1 -7.42166 
6129 1 76.6713 6.67902 7.50115 5.94112 -117363 -176590 -41142.6 204518 -20944.3 11254.8 -7.41558 
6130 1 77.3646 5.44316 7.49909 5.93792 -132648 -169157 33704.5 222015 34689.4 17250 -7.42055 
6131 1 76.6362 4.22497 7.49613 5.93915 -135498 -163874 -26298.6 216923 -24589.3 12433.2 -7.41646 
6132 1 77.3286 2.9887 7.49324 5.93863 -147587 -156509 18480.9 232282 33864.4 16247.9 -7.41943 
6133 1 76.6004 1.77027 7.49033 5.93876 -152974 -150536 -10770.3 224242 -27945.3 13583.4 -7.41743 
6134 1 77.2922 0.533632 7.48697 5.94148 -161472 -143455 2784.7 237265 31973.4 15173.7 -7.41832 
6292 1 79.5463 9.11081 7.50414 5.94224 -103623 -194236 54289.3 190665 33363.1 21131.1 -7.42212 
6293 1 78.8175 7.89315 7.50215 5.94392 -102830 -188891 -47888 187729 -18041.2 12027.7 -7.41517 
6294 1 79.511 6.65741 7.50035 5.94012 -120434 -180446 40717.5 207801 34228.7 20000.2 -7.42105 
6295 1 78.7822 5.43964 7.49773 5.94159 -122371 -174833 -33611.6 202551 -21860.9 13464.5 -7.41599 
6296 1 79.4747 4.20341 7.49495 5.94002 -137108 -166505 25980.6 220542 33934.6 18861.3 -7.41994 
6297 1 78.7461 2.98542 7.49206 5.94041 -141778 -160348 -18404.2 212579 -25499.7 14863.6 -7.41691 
6298 1 79.4378 1.74876 7.48862 5.94211 -153020 -152212 10526.1 228336 32493.6 17670.8 -7.41882 
6299 1 78.7096 0.530443 7.48593 5.94134 -160312 -145234 -2706.59 217330 -28741.1 16225 -7.41792 
6457 1 80.9641 9.10565 7.50183 5.94744 -87329.7 -202397 -53944.7 168713 -14841.3 12523.7 -7.41479 
6458 1 81.658 7.87007 7.50039 5.94314 -107261 -192969 47083.7 191217 33384.5 22970.9 -7.4215 
6459 1 80.9287 6.65272 7.49838 5.94475 -107997 -187172 -40473.3 185675 -18800 14249.4 -7.41555 
6460 1 81.6215 5.41657 7.49583 5.9422 -125304 -177723 33072.8 206315 33649.1 21666 -7.42042 
6461 1 80.8923 4.19904 7.49327 5.94283 -129008 -171453 -25789.4 198296 -22680.5 15928.9 -7.41642 
6462 1 81.5841 2.96238 7.48988 5.94345 -143026 -162252 18067.4 216763 32705.7 20334 -7.41931 
6463 1 80.8553 1.74455 7.4872 5.9429 -149517 -155052 -10366.7 205788 -26280.9 17560 -7.41738 
6464 1 81.5463 0.507455 7.48342 5.94694 -159700 -146358 2533.24 221871 30615.9 18933.3 -7.41821 
6622 1 83.8055 9.08095 7.49884 5.94707 -93418.5 -206493 52484.3 172405 32149.4 26152.2 -7.42187 
6623 1 83.0758 7.86404 7.49768 5.94821 -92774.2 -200677 -46610.5 166428 -15385.1 14720.3 -7.41515 
6624 1 83.7688 6.628 7.49546 5.94528 -112409 -190023 39488.2 189611 32982.4 24660.6 -7.42085 
6625 1 83.0391 5.41094 7.49351 5.94613 -114949 -183715 -32707.3 181383 -19467.6 16710 -7.41595 
6626 1 83.7311 4.17431 7.4903 5.94561 -131534 -173400 25190.1 202490 32572.9 23159.6 -7.41976 
6627 1 83.0016 2.95699 7.48792 5.9453 -137192 -166252 -17779.9 191546 -23384.2 18641.3 -7.41686 
6628 1 83.6927 1.71985 7.48412 5.94824 -149997 -156439 10087.4 210375 30931.7 21613.2 -7.41867 
6629 1 82.9637 0.502145 7.48182 5.9467 -158582 -148251 -2326.78 196406 -26899.3 20502.5 -7.41785 
6787 1 85.2235 9.07342 7.49534 5.95187 -76988.2 -214955 -51670.8 145053 -11594.4 14803.3 -7.41481 
6788 1 85.9168 7.83752 7.49351 5.94935 -98969.1 -203041 44886.9 170531 31925.3 27816.7 -7.42119 
6789 1 85.1866 6.62093 7.49238 5.94915 -99842.6 -196942 -38862.5 161992 -15841.6 17130.5 -7.41553 
6790 1 85.8787 5.38437 7.48945 5.94874 -118950 -185335 31605.7 185651 32067.3 26128.6 -7.42016 
6791 1 85.1487 4.16756 7.48765 5.94831 -123322 -178413 -24707.1 174649 -20031 19389.4 -7.41636 
6792 1 85.8398 2.93042 7.48396 5.9504 -138787 -167391 17211.6 196141 30918.6 24412.5 -7.41909 
6793 1 85.1101 1.71326 7.48193 5.94906 -146436 -159249 -9742.96 182223 -23944.7 21567.1 -7.4173 
6794 1 85.8003 0.475601 7.47799 5.95441 -157734 -149076 2219.99 201282 28549 22632.7 -7.41804 
6953 1 87.3347 7.82886 7.48963 5.95296 -84435 -210968 -43882.6 140379 -11786.3 17110.5 -7.41516 
6955 1 87.2965 5.37609 7.48603 5.95131 -108498 -191358 -30833.7 155245 -16205.2 19719 -7.41591 
6957 1 87.2573 2.92237 7.48105 5.95167 -132901 -171362 -16654.4 165382 -20470.1 22235.1 -7.41677 
6959 1 87.2177 0.467628 7.47565 5.9542 -156630 -150829 -1905.1 170233 -24320.2 24633.9 -7.41771 
6952 1 88.0653 9.04497 7.48983 5.95449 -85722.6 -216550 48870.2 149335 30494.8 31054.8 -7.42142 