ITEM: TIMESTEP
0
ITEM: NUMBER OF ATOMS
18152
ITEM: BOX BOUNDS pp pp pp
0.0000000000000000e+00 1.1698915500000000e+02
0.0000000000000000e+00 2.0263116099999999e+02
0.0000000000000000e+00 1.8399999999999999e+01
ITEM: ATOMS id type x y z c_csym c_2[1] c_2[2] c_2[3] c_2[4] c_2[5] c_2[6] c_3 
187 1 0.799177 8.58808 7.5 6.03193 -144440 -129435 -104585 -682.838 18085 -2203.19 -7.41331 
188 1 0.0773397 7.36759 7.5 6.03192 -131498 -142451 -104873 189.64 18698.1 -251.535 -7.4133 
189 1 0.773397 6.13222 7.5 6.03193 -142001 -131332 -106933 -664.073 13645.3 -2094.59 -7.41318 
190 1 0.0515598 4.91173 7.5 6.03192 -132834 -140434 -107630 128.82 12422.7 -166.975 -7.41314 
191 1 0.747617 3.67636 7.5 6.03193 -139619 -133305 -108650 -639.053 8561.53 -1965.93 -7.41308 
192 1 0.0257799 2.45586 7.5 6.03192 -134487 -138384 -109229 65.5772 6136.65 -82.2878 -7.41304 
193 1 0.721837 1.22049 7.5 6.03191 -137364 -135336 -109577 -609.833 2950.03 -1816.46 -7.41302 
194 1 0 0 7.5 6.03191 -136434 -136406 -109742 44.1525 0.0412884 0.0394819 -7.41302 
353 1 2.21707 8.5732 7.5 6.03194 -130919 -143430 -102863 2230.11 21553.2 -4282.03 -7.41341 
354 1 2.91313 7.33783 7.5 6.03194 -143175 -130621 -105012 -2124.1 15968.3 -7912.96 -7.41329 
355 1 2.19129 6.11734 7.5 6.03194 -132090 -141451 -106155 2122.24 15350.9 -4588.35 -7.41322 
356 1 2.88735 4.88196 7.5 6.03194 -140753 -132545 -107128 -2217.43 11228.8 -7641.75 -7.41317 
357 1 2.16551 3.66147 7.5 6.03194 -133592 -139427 -108271 1995.11 9063.27 -4856.63 -7.4131 
358 1 2.86157 2.4261 7.5 6.03192 -138423 -134536 -108536 -2297.86 5901.19 -7304.34 -7.41308 
359 1 2.13973 1.20561 7.5 6.03192 -135409 -137467 -109267 1896.63 2845.98 -5085.27 -7.41304 
518 1 5.05286 8.54343 7.5 6.03194 -144371 -130175 -101915 -3437.14 18183.1 -13706.6 -7.41347 
519 1 4.33102 7.32294 7.5 6.03194 -131516 -142536 -103989 4136.58 17910.9 -8541.76 -7.41335 
520 1 5.02708 6.08757 7.5 6.03194 -141928 -132028 -104450 -3652.03 13847.9 -13337 -7.41332 
521 1 4.30524 4.86708 7.5 6.03194 -132863 -140570 -106531 3963.37 11690.2 -9193.79 -7.4132 
522 1 5.0013 3.6317 7.5 6.03194 -139543 -133951 -106368 -3847.63 8873.81 -12859.3 -7.41321 
523 1 4.27946 2.41121 7.5 6.03192 -134522 -138576 -107933 3758.18 5466.75 -9769.72 -7.41312 
524 1 4.97552 1.17584 7.5 6.03192 -137305 -136003 -107510 -4065.14 3374.21 -12270.7 -7.41314 
683 1 6.47075 8.52855 7.5 6.03194 -131017 -143647 -101296 6127.16 20055.3 -11940 -7.4135 
684 1 7.16681 7.29317 7.5 6.03194 -143133 -131770 -100575 -4923.38 16352.9 -18917.6 -7.41354 
685 1 6.44497 6.07268 7.5 6.03194 -132208 -141771 -104167 5925.27 13960.2 -12993 -7.41333 
686 1 7.14103 4.83731 7.5 6.03194 -140708 -133612 -103018 -5235.77 11793.7 -18343.9 -7.4134 
687 1 6.41919 3.61682 7.5 6.03194 -133728 -139846 -105886 5675.53 7797.06 -13940.7 -7.41324 
688 1 7.11525 2.38144 7.5 6.03192 -138373 -135513 -104780 -5520.51 6651.7 -17619.7 -7.4133 
689 1 6.39341 1.16095 7.5 6.03192 -135558 -137981 -106513 5426.03 1717.8 -14773.1 -7.4132 
848 1 9.30654 8.49878 7.5 6.03194 -144355 -131776 -95493.7 -6016.25 18687.6 -24263.4 -7.41384 
849 1 8.5847 7.27829 7.5 6.03194 -131624 -142982 -101348 7837.98 15832.2 -16180.9 -7.4135 
850 1 9.28076 6.04292 7.5 6.03194 -141911 -133521 -98463.5 -6444.81 14594.5 -23632.4 -7.41367 
851 1 8.55892 4.82243 7.5 6.03194 -132999 -141165 -103292 7561.93 9785.82 -17511.2 -7.41338 
852 1 9.25498 3.58705 7.5 6.03194 -139522 -135323 -100857 -6840.1 9871.83 -22817.3 -7.41353 
853 1 8.53314 2.36656 7.5 6.03192 -134680 -139312 -104131 7227.95 3759.18 -18700 -7.41334 
854 1 9.2292 1.13119 7.5 6.03192 -137276 -137243 -102515 -7241.93 4626.28 -21814.2 -7.41343 
1013 1 10.7244 8.4839 7.5 6.03194 -131107 -144158 -98248.4 9659.75 17283.4 -18714.5 -7.41367 
1014 1 11.4205 7.24852 7.5 6.03194 -143140 -133678 -92708.6 -7462.15 17220 -28616.5 -7.414 
1015 1 10.6987 6.02803 7.5 6.03194 -132335 -142475 -100325 9375.5 11398.5 -20423.6 -7.41355 
1016 1 11.3947 4.79266 7.5 6.03194 -140713 -135373 -95730.8 -7966.15 12967.8 -27748.9 -7.41383 
1017 1 10.6729 3.57217 7.5 6.03194 -133885 -140739 -101288 9018.09 5477.66 -21973.9 -7.4135 
1018 1 11.3689 2.33679 7.5 6.03192 -138371 -137113 -98124.4 -8427.68 8139.29 -26663.6 -7.41369 
1019 1 10.6471 1.1163 7.5 6.03192 -135737 -139051 -101206 8638.07 -334.189 -23348.6 -7.41351 
1178 1 13.5602 8.45413 7.5 6.03194 -144381 -134077 -85785.5 -8280.85 19625.2 -33207.6 -7.41441 
1179 1 12.8384 7.23364 7.5 6.03194 -131734 -143733 -97156.8 11076.8 12618.6 -22652 -7.41373 
1180 1 13.5344 5.99826 7.5 6.03194 -141939 -135654 -89419.8 -8888.24 15883.3 -32319.2 -7.41419 
1181 1 12.8126 4.77777 7.5 6.03194 -133146 -142144 -98159.9 10714.3 6845.3 -24554.6 -7.41368 
1182 1 13.5087 3.5424 7.5 6.03194 -139545 -137274 -92541.3 -9449.87 11522.6 -31190.3 -7.41401 
1183 1 12.7868 2.32191 7.5 6.03192 -134857 -140512 -98106.7 10272.2 1125.81 -26268.1 -7.41368 
1184 1 13.4829 1.08653 7.5 6.03192 -137290 -138993 -94988.9 -10003.9 6640.71 -29817.2 -7.41387 
1343 1 14.9781 8.43924 7.5 6.03194 -131196 -144900 -93957 12631.9 13447.1 -24200.1 -7.41392 
1344 1 15.6742 7.20387 7.5 6.03194 -143184 -136158 -81967.9 -9601.93 18573.3 -36453.1 -7.41463 
1345 1 14.9523 5.98338 7.5 6.03194 -132467 -143479 -94918.2 12279.5 7851.49 -26433.1 -7.41386 
1346 1 15.6484 4.74801 7.5 6.03194 -140757 -137652 -85795.7 -10257.7 14720 -35312.3 -7.4144 
1347 1 14.9266 3.52751 7.5 6.03194 -134053 -141998 -94817.1 11835.8 2262.39 -28471.8 -7.41387 
1348 1 15.6226 2.29214 7.5 6.03192 -138410 -139173 -89065.8 -10859.6 10295.9 -33908.9 -7.41421 
1349 1 14.9008 1.07165 7.5 6.03192 -135934 -140555 -93730.9 11352.2 -3184.34 -30295.6 -7.41394 
1508 1 17.8139 8.40948 7.5 6.03194 -144438 -136870 -73440.1 -10107.7 21002.9 -40094.2 -7.41513 
1509 1 17.0921 7.18899 7.5 6.03194 -131847 -144710 -91725.8 13682.8 8501.94 -27628.1 -7.41404 
1510 1 17.7881 5.95361 7.5 6.03194 -141998 -138235 -77940.8 -10848.9 17686 -38967.2 -7.41486 
1511 1 17.0663 4.73312 7.5 6.03194 -133300 -143404 -91504.8 13252.4 3070.54 -29966.6 -7.41406 
1512 1 17.7623 3.49775 7.5 6.03194 -139603 -139620 -82006.8 -11535.2 13759 -37565.6 -7.41462 
1513 1 17.0405 2.27726 7.5 6.03192 -135046 -142047 -90287.8 12729 -2265.97 -32088.6 -7.41413 
1514 1 17.7366 1.04188 7.5 6.03192 -137338 -141089 -85474.7 -12204.1 9310.07 -35887 -7.41442 
1673 1 19.2318 8.39459 7.5 6.03194 -131287 -145806 -88730.7 14899 8816.25 -28180.4 -7.41422 
1675 1 19.206 5.93873 7.5 6.03194 -132603 -144691 -88325.6 14494.1 3560.24 -30784.3 -7.41424 
1677 1 19.1802 3.48286 7.5 6.03194 -134229 -143508 -86916.1 13987.4 -1641.94 -33176.4 -7.41433 
1679 1 19.1545 1.027 7.5 6.03192 -136139 -142356 -84590.5 13431 -6664.2 -35335 -7.41447 
1674 1 19.9279 7.15922 7.5 6.03194 -143253 -139007 -69049.7 -11226.3 20385 -42109.5 -7.41539 
1676 1 19.9021 4.70335 7.5 6.03194 -140829 -140259 -73872.6 -11988.2 16984.3 -40735.8 -7.4151 
1678 1 19.8763 2.24749 7.5 6.03192 -138476 -141518 -78219.6 -12689.1 13015.4 -39077 -7.41484 
1838 1 22.0676 8.36482 7.5 6.03194 -144512 -139955 -59212.6 -11395.4 22788.9 -44706.2 -7.41596 
1839 1 21.3458 7.14433 7.5 6.03194 -131965 -145836 -85418.6 15539.1 3753.75 -30975 -7.41441 
1840 1 22.0418 5.90896 7.5 6.03194 -142077 -141071 -64742.7 -12223.3 19935.2 -43382.4 -7.41564 
1841 1 21.32 4.68847 7.5 6.03194 -133461 -144846 -83762.9 15060.7 -1298.42 -33601.2 -7.41451 
1842 1 22.016 3.45309 7.5 6.03194 -139682 -142189 -69924.2 -12990.2 16476 -41770.3 -7.41533 
1843 1 21.2942 2.2326 7.5 6.03192 -135238 -143798 -81177.1 14482.4 -6212.52 -36001.5 -7.41466 
1844 1 21.9902 0.99723 7.5 6.03192 -137411 -143375 -74590.4 -13734.1 12490.6 -39869.8 -7.41505 
2003 1 23.4855 8.34994 7.5 6.03194 -131389 -146826 -82902.6 16370.7 3682.18 -30600.6 -7.41455 
2004 1 24.1815 7.11457 7.5 6.03194 -143335 -142043 -54712.7 -12248.3 22582.4 -45478 -7.41623 
2005 1 23.4597 5.89408 7.5 6.03194 -132748 -146035 -80957 15929.5 -1210.96 -33419.8 -7.41467 
2006 1 24.1558 4.6587 7.5 6.03194 -140914 -143026 -60673 -13071.6 19654.5 -43935.3 -7.41587 
2007 1 23.4339 3.43821 7.5 6.03194 -134407 -145174 -78068.3 15382.6 -6003.3 -36024.8 -7.41484 
2008 1 24.13 2.20284 7.5 6.03192 -138562 -144001 -66243.4 -13829.5 16156.5 -42103.6 -7.41554 
2009 1 23.4081 0.982346 7.5 6.03192 -136341 -144333 -74336 14782.3 -10577.9 -38394.5 -7.41506 
2168 1 26.3213 8.32017 7.5 6.03194 -144591 -143162 -43892.2 -12075 24901.7 -47000.7 -7.41687 
2169 1 25.5994 7.09968 7.5 6.03194 -132096 -147064 -78606.2 16580.5 -1347.74 -32696.9 -7.4148 
2170 1 26.2955 5.86431 7.5 6.03194 -142163 -144011 -50566.4 -12943.1 22520.3 -45547.5 -7.41647 
2171 1 25.5737 4.64382 7.5 6.03194 -133626 -146401 -75381.7 16073.3 -6010.17 -35465.2 -7.415 
2172 1 26.2697 3.40844 7.5 6.03194 -139774 -144847 -56979.2 -13748.3 19532.5 -43808.1 -7.41609 
2173 1 25.5479 2.18795 7.5 6.03192 -135429 -145673 -71294.8 15465.2 -10493.3 -38011.6 -7.41524 
2174 1 26.2439 0.952578 7.5 6.03192 -137505 -145734 -62961 -14529.4 16010.7 -41784.8 -7.41573 
2333 1 27.7392 8.30529 7.5 6.03194 -131511 -147926 -76795.4 17006 -1672.95 -31499.4 -7.41491 
2334 1 28.4352 7.06991 7.5 6.03194 -143418 -145129 -39718.4 -12618.6 25047.6 -46585.7 -7.41711 
2335 1 27.7134 5.84942 7.5 6.03194 -132904 -147466 -73213.4 16542.9 -6200.89 -34388.1 -7.41512 
2336 1 28.4094 4.61405 7.5 6.03194 -141007 -145834 -46902.6 -13459.6 22586.9 -44959.4 -7.41668 
2337 1 27.6876 3.39356 7.5 6.03194 -134588 -146927 -68750.1 15977.4 -10585.2 -37070 -7.41539 
2338 1 28.3837 2.15818 7.5 6.03192 -138663 -146517 -53781.7 -14236.6 19549.9 -43053.3 -7.41627 
2339 1 27.6618 0.937694 7.5 6.03192 -136538 -146403 -63515.4 15360.7 -14716.5 -39526 -7.4157 
2498 1 30.575 8.27552 7.5 6.03194 -144666 -146362 -28256.6 -12113.3 27214.5 -47029.6 -7.41779 
2499 1 29.8531 7.05503 7.5 6.03194 -132245 -148363 -71637 16786.2 -6540.21 -32858.6 -7.41521 
2500 1 30.5492 5.81966 7.5 6.03194 -142252 -146944 -36132.2 -12979 25292.9 -45535.3 -7.41732 
2501 1 29.8273 4.59916 7.5 6.03194 -133799 -148023 -66786.3 16267.5 -10821.1 -35633.4 -7.4155 
2502 1 30.5234 3.36379 7.5 6.03194 -139875 -147497 -43831 -13783.3 22759.4 -43767.6 -7.41686 
2503 1 29.8016 2.1433 7.5 6.03192 -135617 -147612 -61139.8 15653.7 -14885.9 -38198.3 -7.41583 
2504 1 30.4976 0.907926 7.5 6.03192 -137615 -148089 -51179.9 -14568.1 19681.2 -41730.4 -7.41643 
2663 1 31.9928 8.26064 7.5 6.03194 -131656 -149091 -70703.7 16799.3 -6992.07 -30938.9 -7.41526 
2664 1 32.6889 7.02526 7.5 6.03194 -143497 -148157 -24800.1 -12324.2 27627.7 -45514.3 -7.418 
2665 1 31.9671 5.80477 7.5 6.03194 -133072 -148951 -65465.8 16331.3 -11166.3 -33764.4 -7.41557 
2666 1 32.6631 4.5694 7.5 6.03194 -141103 -148595 -33232.6 -13144.5 25611.5 -43903.8 -7.41749 
2667 1 31.9413 3.34891 7.5 6.03194 -134771 -148727 -59407.2 15767.1 -15160 -36396.1 -7.41593 
2668 1 32.6373 2.11353 7.5 6.03192 -138774 -148993 -41440.2 -13905.5 23009.7 -42030.7 -7.417 
2669 1 31.9155 0.893042 7.5 6.03192 -136725 -148510 -52646.9 15160.1 -18869.8 -38817.9 -7.41634 
2828 1 34.8286 8.23087 7.5 6.03194 -144734 -149453 -13051.7 -11516.8 29572.2 -44875.8 -7.4187 
2829 1 34.1068 7.01038 7.5 6.03194 -132413 -149709 -64828.7 16166.5 -11585.6 -31522.2 -7.41561 
2830 1 34.8029 5.775 7.5 6.03194 -142338 -149783 -22123.5 -12339.5 28083.1 -43438.9 -7.41815 
2831 1 34.081 4.55451 7.5 6.03194 -133980 -149679 -58369 15656.3 -15504.5 -34179 -7.41599 
2832 1 34.7771 3.31914 7.5 6.03194 -139982 -150069 -31097.4 -13108.1 25973.3 -41748.3 -7.41762 
2833 1 34.0552 2.09865 7.5 6.03192 -135802 -149570 -51177.2 15059.8 -19176.2 -36642.4 -7.41642 
2834 1 34.7513 0.863274 7.5 6.03192 -137740 -150381 -39797 -13863.7 23307.2 -39808.5 -7.4171 
2993 1 36.2465 8.21598 7.5 6.03194 -131824 -150296 -64893.4 15773.7 -12044.3 -28963.9 -7.41561 
2994 1 36.9426 6.98061 7.5 6.03194 -143570 -151039 -10654.5 -11392.1 30155.5 -42352.9 -7.41884 
2995 1 36.2208 5.76012 7.5 6.03194 -133252 -150460 -58054.6 15319.5 -15885 -31604 -7.41601 
2996 1 36.9168 4.52474 7.5 6.03194 -141199 -151228 -20294.2 -12154.4 28548.9 -40859.7 -7.41826 
2997 1 36.195 3.30425 7.5 6.03194 -134954 -150531 -50453 14780.5 -19514.8 -34067.7 -7.41646 
2998 1 36.891 2.06888 7.5 6.03192 -138894 -151367 -29782.8 -12866.6 26346.5 -39126.8 -7.4177 
2999 1 36.1692 0.84839 7.5 6.03192 -136904 -150602 -42215.1 14208.3 -22834.6 -36341.3 -7.41695 
3159 1 38.3605 6.96573 7.5 6.03194 -132593 -151066 -58472 14758.6 -16267.4 -28727.6 -7.41599 
3161 1 38.3347 4.50986 7.5 6.03194 -134164 -151324 -50493.6 14279.6 -19851.6 -31149.9 -7.41646 
3163 1 38.3089 2.054 7.5 6.03192 -135980 -151494 -41842.6 13726.6 -23162.9 -33399.8 -7.41698 
3158 1 39.0823 8.18622 7.5 6.03194 -144793 -152334 1011.67 -10326.9 31815.2 -40631.3 -7.41954 
3160 1 39.0565 5.73035 7.5 6.03194 -142421 -152439 -9186.37 -11069.8 30718.7 -39346.7 -7.41893 
3162 1 39.0308 3.27449 7.5 6.03194 -140092 -152486 -19357.5 -11767.8 28992.3 -37834.1 -7.41832 
3164 1 39.005 0.818622 7.5 6.03192 -137877 -152547 -29322.9 -12463.1 26698.5 -36097.6 -7.41772 
3323 1 40.5002 8.17133 7.5 6.03194 -132001 -151494 -59607.8 13976.1 -16617.7 -25607.3 -7.41592 
3324 1 41.1963 6.93596 7.5 6.03194 -143638 -153670 2058.3 -9880.88 32471 -37199.4 -7.4196 
3325 1 40.4744 5.71547 7.5 6.03194 -133436 -151938 -51296.5 13560.2 -20152.9 -27946.3 -7.41642 
3326 1 41.1705 4.48009 7.5 6.03194 -141295 -153645 -8682.2 -10550.7 31228.1 -35915.5 -7.41896 
3327 1 40.4487 3.2596 7.5 6.03194 -135132 -152279 -42276.1 13071.6 -23452.5 -30131.2 -7.41695 
3328 1 41.1447 2.02423 7.5 6.03192 -139021 -153555 -19337.1 -11180.7 29380.1 -34420.6 -7.41832 
3329 1 40.4229 0.803738 7.5 6.03192 -137067 -152607 -32678.9 12562.5 -26420.6 -32150.4 -7.41752 
3488 1 43.336 8.14156 7.5 6.03194 -144844 -154888 13262.3 -8615.51 33800.9 -34420.2 -7.42027 
3489 1 42.6142 6.92107 7.5 6.03194 -132772 -152369 -52838.1 12625.9 -20385 -24517.6 -7.41633 
3490 1 43.3102 5.6857 7.5 6.03194 -142500 -154805 2071.14 -9243.86 33044.3 -33367.7 -7.4196 
3491 1 42.5884 4.46521 7.5 6.03194 -134339 -152886 -43503.3 12205.1 -23669.8 -26595.4 -7.41688 
3492 1 43.2844 3.22983 7.5 6.03194 -140202 -154650 -9154.65 -9837.42 31649.9 -32120.3 -7.41893 
3493 1 42.5626 2.00934 7.5 6.03192 -136142 -153302 -33549.5 11723 -26661.1 -28527.3 -7.41747 
3494 1 43.2587 0.773969 7.5 6.03192 -138021 -154494 -20234.6 -10440.3 29679.1 -30680.3 -7.41827 
3653 1 44.7539 8.12668 7.5 6.03194 -132171 -152615 -55073.2 11482.8 -20513.2 -20930 -7.4162 
3654 1 45.45 6.89131 7.5 6.03194 -143699 -155928 12722.2 -7876.46 34438.7 -30202.4 -7.42024 
3655 1 44.7281 5.67081 7.5 6.03194 -133605 -153304 -45490 11132.3 -23781.1 -22857.9 -7.41676 
3656 1 45.4242 4.43544 7.5 6.03194 -141387 -155729 1048.89 -8420.38 33500.5 -29201.4 -7.41954 
3657 1 44.7023 3.21495 7.5 6.03194 -135291 -153879 -35244.9 10723 -26793.4 -24660.7 -7.41737 
3658 1 45.3984 1.97958 7.5 6.03192 -139147 -155451 -10594.1 -8935.44 31950 -28025.9 -7.41884 
3659 1 44.6766 0.759085 7.5 6.03192 -137210 -154426 -24474.6 10306.6 -29456.9 -26329 -7.41801 
3818 1 47.5897 8.09691 7.5 6.03194 -144888 -156979 23085.8 -6479.09 35417.3 -26448.1 -7.42086 
3819 1 46.8678 6.87642 7.5 6.03194 -132928 -153532 -48180.3 9861.06 -23751.8 -18990.9 -7.41661 
3820 1 47.5639 5.64105 7.5 6.03194 -142572 -156750 11091.7 -6959.38 34932.6 -25686.3 -7.42014 
3821 1 46.8421 4.42056 7.5 6.03194 -134489 -154265 -37720.8 9527.26 -26784.1 -20622 -7.41723 
3822 1 47.5381 3.18518 7.5 6.03194 -140307 -156436 -986.802 -7416.83 33804.8 -24770.9 -7.41942 
3823 1 46.8163 1.96469 7.5 6.03192 -136279 -154885 -26687.2 9146.33 -29506.2 -22141.6 -7.41788 
3824 1 47.5123 0.729317 7.5 6.03192 -138159 -156108 -12968.5 -7895.41 32094.7 -23702.7 -7.4187 
3983 1 49.0076 8.08203 7.5 6.03194 -132307 -153569 -51496.4 8403.89 -23546.5 -15074.1 -7.41641 
3984 1 49.7036 6.84665 7.5 6.03194 -143752 -157676 20789.4 -5485.42 35955.2 -21615.4 -7.42072 
3985 1 48.9818 5.62616 7.5 6.03194 -133739 -154456 -40910.2 8145.55 -26598.7 -16490.4 -7.41704 
3986 1 49.6779 4.39079 7.5 6.03194 -141470 -157346 8405.18 -5872.36 35247 -20949 -7.41998 
3987 1 48.956 3.1703 7.5 6.03194 -135416 -155214 -29699.9 7844.96 -29379.7 -17819.4 -7.4177 
3988 1 49.6521 1.93492 7.5 6.03192 -139261 -156927 -3991.52 -6242.89 33922.6 -20153 -7.41924 
3989 1 48.9302 0.714433 7.5 6.03192 -137318 -155934 -18005.2 7550.51 -31798.2 -19053.7 -7.4184 
4148 1 51.8434 8.05226 7.5 6.03194 -144924 -158468 29959.1 -4027.08 36585.2 -17048.2 -7.42127 
4149 1 51.1215 6.83177 7.5 6.03194 -133038 -154453 -44724.6 6592.95 -26202.3 -12351.8 -7.41682 
4150 1 51.8176 5.59639 7.5 6.03194 -142634 -158140 17399.9 -4332.73 36288.5 -16612.7 -7.42052 
4151 1 51.0957 4.3759 7.5 6.03194 -134596 -155348 -33434.9 6372.23 -29043.6 -13448.5 -7.41748 
4152 1 51.7918 3.14053 7.5 6.03194 -140396 -157714 4720.41 -4626.16 35346.2 -16074.2 -7.41976 
4153 1 51.07 1.92004 7.5 6.03192 -136374 -156118 -21604.4 6120.12 -31561.9 -14476.8 -7.41819 
4154 1 51.766 0.684665 7.5 6.03192 -138277 -157266 -7897.78 -4952.69 33819.1 -15431.6 -7.41901 
4313 1 53.2613 8.03738 7.5 6.03194 -132385 -154267 -49054.2 4887.16 -25560.2 -8297.31 -7.41656 
4314 1 53.9573 6.802 7.5 6.03194 -143795 -158780 25819.7 -2826.18 36948.4 -11832.7 -7.42103 
4315 1 53.2355 5.58151 7.5 6.03194 -133818 -155287 -37792.6 4745.22 -28463.7 -9120.89 -7.41723 
4316 1 53.9315 4.34614 7.5 6.03194 -141535 -158371 12989.1 -3033.43 36380.2 -11530.4 -7.42026 
4317 1 53.2097 3.12565 7.5 6.03194 -135490 -156170 -25932 4576.6 -31084.6 -9903.23 -7.41793 
4318 1 53.9058 1.89027 7.5 6.03192 -139350 -157862 118.101 -3234.03 35194.9 -11152.3 -7.41948 
4319 1 53.1839 0.669781 7.5 6.03192 -137380 -157003 -13614.1 4428.78 -33332.5 -10639 -7.41867 
4478 1 56.097 8.00761 7.5 6.03194 -144952 -159240 33496.4 -1380.2 37252.8 -6694.94 -7.42149 
4479 1 55.3752 6.78712 7.5 6.03194 -133083 -155043 -42653 2984.44 -27607.2 -4931.45 -7.41694 
4480 1 56.0713 5.55174 7.5 6.03194 -142678 -158858 20644 -1491.76 37046.3 -6602.43 -7.42072 
4481 1 55.3494 4.33125 7.5 6.03194 -134639 -156030 -30877.5 2897.23 -30333.6 -5429.77 -7.41764 
4482 1 56.0455 3.09588 7.5 6.03194 -140459 -158375 7651.88 -1601.9 36194.8 -6464.55 -7.41994 
4483 1 55.3237 1.87539 7.5 6.03192 -136413 -156886 -18579.6 2793.12 -32728.2 -5910.08 -7.41837 
4484 1 56.0197 0.640013 7.5 6.03192 -138359 -157859 -5298.6 -1755.38 34759 -6278.56 -7.41916 
4643 1 57.5149 7.99272 7.5 6.03194 -132387 -154636 -47877.8 1116.74 -26443.7 -973.598 -7.41663 
4644 1 58.211 6.75735 7.5 6.03194 -143823 -159151 27526.2 -27.4593 37371.7 -1383.78 -7.42113 
4645 1 57.4892 5.53686 7.5 6.03194 -133826 -155712 -36310.5 1104.71 -29278.2 -1153.52 -7.41732 
4646 1 58.1852 4.30148 7.5 6.03194 -141575 -158710 14540.9 -39.89 36842.5 -1457.08 -7.42035 
4647 1 57.4634 3.08099 7.5 6.03194 -135498 -156648 -24153.8 1083.35 -31823.2 -1343.43 -7.41804 
4648 1 58.1594 1.84562 7.5 6.03192 -139403 -158167 1504.61 -56.6852 35698.1 -1513.57 -7.41957 
4649 1 57.4376 0.625129 7.5 6.03192 -137389 -157531 -11551 1096.25 -33988.7 -1540.45 -7.41879 
4807 1 59.6547 9.19833 7.5 6.03194 -131734 -154092 -53313.5 -827.069 -24947 2665.41 -7.41631 
4808 1 60.3507 7.96296 7.5 6.03194 -144969 -159227 33492.6 1337.11 37387.7 4023.31 -7.42149 
4809 1 59.6289 6.74246 7.5 6.03194 -133048 -155238 -42084.1 -772.19 -27891 2832.84 -7.41698 
4810 1 60.325 5.50709 7.5 6.03194 -142700 -158841 20637.2 1427.44 37166.7 3770.94 -7.42071 
4811 1 59.6031 4.2866 7.5 6.03194 -134611 -156242 -30196.9 -718.15 -30589.2 2963.9 -7.41768 
4812 1 60.2992 3.05123 7.5 6.03194 -140488 -158352 7640.53 1509.75 36303.3 3503.3 -7.41994 
4813 1 59.5773 1.83074 7.5 6.03192 -136390 -157112 -17789.5 -665.215 -32951 3059.52 -7.41842 
4814 1 60.2734 0.595361 7.5 6.03192 -138395 -157830 -5316.59 1537.32 34859 3224.49 -7.41916 
4972 1 62.4905 9.16856 7.5 6.03194 -146112 -159075 38419.3 2582.89 37128.6 9512.79 -7.42178 
4973 1 61.7686 7.94807 7.5 6.03194 -132310 -154636 -48038.4 -2701.18 -26150.2 6445.82 -7.41662 
4974 1 62.4647 6.7127 7.5 6.03194 -143833 -158751 25810 2779.5 37199.1 9115.09 -7.42103 
4975 1 61.7428 5.49221 7.5 6.03194 -133757 -155688 -36553.7 -2581.32 -29002.3 6922.2 -7.4173 
4976 1 62.4389 4.25683 7.5 6.03194 -141584 -158332 12972.2 2963.63 36604.5 8670.17 -7.42025 
4977 1 61.7171 3.03634 7.5 6.03194 -135439 -156601 -24473.1 -2454.5 -31562.8 7336.98 -7.41802 
4978 1 62.4131 1.80097 7.5 6.03192 -139413 -157810 90.5843 3133.32 35398.9 8182.44 -7.41948 
4979 1 61.6913 0.580477 7.5 6.03192 -137339 -157464 -11940.4 -2278.1 -33741.2 7690.37 -7.41877 
5137 1 63.9084 9.15368 7.5 6.03194 -131614 -153941 -54005 -4645.49 -24040.8 9615.43 -7.41627 
5138 1 64.6044 7.9183 7.5 6.03194 -144970 -158431 29949.5 3998.73 36973.5 14470.2 -7.42127 
5139 1 63.8826 6.69781 7.5 6.03194 -132937 -155019 -43058.2 -4472.87 -27044.8 10453.9 -7.41692 
5140 1 64.5786 5.46244 7.5 6.03194 -142696 -158089 17382.2 4286.55 36633.9 13882.9 -7.42052 
5141 1 63.8568 4.24195 7.5 6.03194 -134513 -155960 -31439.4 -4282.6 -29804 11207.8 -7.4176 
5142 1 64.5529 3.00657 7.5 6.03194 -140478 -157648 4690.36 4556.52 35656.9 13221.7 -7.41976 
5143 1 63.831 1.78608 7.5 6.03192 -136306 -156774 -19285.9 -4077.86 -32226.8 11874.9 -7.41833 
5144 1 64.5271 0.550709 7.5 6.03192 -138380 -157178 -7946.17 4761.83 34104.9 12492.1 -7.419 
5302 1 66.7441 9.12391 7.5 6.03194 -146110 -157878 32968.3 5069.97 36524.7 19734.4 -7.42146 
5303 1 66.0223 7.90342 7.5 6.03194 -132159 -154270 -49538.6 -6355.85 -24706.6 13497.4 -7.41653 
5304 1 66.7184 6.66804 7.5 6.03194 -143820 -157619 20774.6 5462.92 36425 19039.3 -7.42072 
5305 1 65.9965 5.44755 7.5 6.03194 -133619 -155218 -38517.3 -6116.21 -27661 14602.4 -7.41718 
5306 1 66.6926 4.21218 7.5 6.03194 -141561 -157270 8378.19 5832.92 35665.8 18240.8 -7.41998 
5307 1 65.9707 2.99169 7.5 6.03194 -135319 -156035 -26878.4 -5852.06 -30326.8 15598.8 -7.41787 
5308 1 66.6668 1.75632 7.5 6.03192 -139379 -156827 -4037.06 6178.43 34302.2 17344.3 -7.41924 
5309 1 65.945 0.535825 7.5 6.03192 -137239 -156811 -14764.6 -5524.38 -32612 16484.2 -7.4186 
5467 1 68.162 9.10903 7.5 6.03194 -131429 -153480 -55822.2 -8192.27 -21986.6 16009.2 -7.41616 
5469 1 68.1363 6.65316 7.5 6.03194 -132764 -154413 -45532.4 -7918.68 -25128.3 17468.9 -7.41677 
5471 1 68.1105 4.1973 7.5 6.03194 -134357 -155218 -34542.7 -7609.62 -28031.9 18802.5 -7.41742 
5473 1 68.0847 1.74143 7.5 6.03192 -136173 -155908 -22988.6 -7270.21 -30603.5 20004.7 -7.4181 
5468 1 68.8581 7.87365 7.5 6.03194 -144954 -156921 23076.3 6479.12 36011.8 24043.2 -7.42086 
5470 1 68.8323 5.41779 7.5 6.03194 -142665 -156670 11071.8 6949.2 35458.9 23142.9 -7.42014 
5472 1 68.8065 2.96192 7.5 6.03194 -140430 -156329 -1023.39 7390.42 34275.8 22116.8 -7.41941 
5474 1 68.7808 0.506057 7.5 6.03192 -138316 -155970 -13030.7 7756.73 32525.6 20971.5 -7.4187 
5632 1 70.9978 9.07926 7.5 6.03194 -146091 -156000 24238.4 7325.08 35428.5 28805.3 -7.42093 
5633 1 70.276 7.85877 7.5 6.03194 -131956 -153581 -52311.9 -9653.15 -22209.3 19774.6 -7.41636 
5634 1 70.972 6.62339 7.5 6.03194 -143785 -155850 12712 7893.57 35069.7 27838.1 -7.42024 
5635 1 70.2502 5.4029 7.5 6.03194 -133432 -154356 -42102.9 -9315.09 -25340.9 21444.8 -7.41697 
5636 1 70.9463 4.16753 7.5 6.03194 -141506 -155621 1025.61 8428.92 34058.9 26719.1 -7.41954 
5637 1 70.2244 2.94704 7.5 6.03194 -135155 -155012 -31241 -8936.57 -28191.7 22967.8 -7.41761 
5638 1 70.9205 1.71166 7.5 6.03192 -139303 -155309 -10638.7 8929.05 32452.4 25455.1 -7.41884 
5639 1 70.1987 0.491173 7.5 6.03192 -137102 -155639 -19867.5 -8479.82 -30667.8 24338.2 -7.41829 
5797 1 72.4157 9.06437 7.5 6.03194 -131207 -152761 -58689.7 -11283.4 -18916.3 21505.3 -7.41598 
5798 1 73.1118 7.829 7.5 6.03194 -144916 -154816 13263.1 8657.5 34531.7 32244.8 -7.42027 
5799 1 72.3899 6.60851 7.5 6.03194 -132553 -153484 -49387 -10933.1 -22261.2 23504.1 -7.41653 
5800 1 73.086 5.37313 7.5 6.03194 -142606 -154703 2063.68 9284.46 33684.9 31068.9 -7.4196 
5801 1 72.3642 4.15264 7.5 6.03194 -134167 -154095 -39345.4 -10531.1 -25379.5 25344.2 -7.41713 
5802 1 73.0602 2.91727 7.5 6.03194 -140348 -154513 -9177.52 9872.79 32217 29724.1 -7.41893 
5803 1 72.3384 1.69678 7.5 6.03192 -136009 -154602 -28697.6 -10084.3 -28174.9 27017.4 -7.41776 
5804 1 73.0344 0.461405 7.5 6.03192 -138212 -154315 -20283.3 10374.7 30192.6 28218 -7.41826 
5962 1 75.2515 9.03461 7.5 6.03194 -146050 -153578 12713 9233.81 33878.7 36289.6 -7.42024 
5963 1 74.5297 7.81411 7.5 6.03194 -131731 -152640 -56231.9 -12429.5 -18808.8 24976.6 -7.41612 
5964 1 75.2257 6.57874 7.5 6.03194 -143723 -153581 2067.44 9950.07 33187 35091.8 -7.4196 
5965 1 74.5039 5.35825 7.5 6.03194 -133223 -153187 -47131.9 -12020.6 -22177.7 27122.7 -7.41666 
5966 1 75.1999 4.12288 7.5 6.03194 -141420 -153520 -8681.25 10622.8 31852.8 33703.3 -7.41896 
5967 1 74.4781 2.90239 7.5 6.03194 -134968 -153630 -37333.7 -11556.8 -25278.7 29092.1 -7.41725 
5968 1 75.1742 1.66701 7.5 6.03192 -139193 -153387 -19352.9 11250.1 29933.6 32131.6 -7.41832 
5969 1 74.4523 0.446521 7.5 6.03192 -136946 -154055 -26976.1 -11000.5 -28015.1 30876.4 -7.41786 
6127 1 76.6694 9.01972 7.5 6.03194 -130979 -151855 -62487 -13771.4 -15007.4 25873.8 -7.41575 
6128 1 77.3655 7.78435 7.5 6.03194 -144851 -152265 1036.49 10420 32598.6 38721.1 -7.41954 
6129 1 76.6436 6.56386 7.5 6.03194 -132334 -152323 -54440.5 -13373.2 -18605.5 28308.9 -7.41623 
6130 1 77.3397 5.32848 7.5 6.03194 -142518 -152334 -9161.66 11174.4 31392.7 37325.3 -7.41893 
6131 1 76.6178 4.10799 7.5 6.03194 -133965 -152690 -45608.4 -12908.1 -21993.5 30561.3 -7.41675 
6132 1 77.3139 2.87262 7.5 6.03194 -140236 -152338 -19339.5 11879.5 29576.6 35726.3 -7.41832 
6133 1 76.5921 1.65213 7.5 6.03192 -135835 -152968 -36119.2 -12384 -25072.2 32620 -7.41732 
6134 1 77.2881 0.416753 7.5 6.03192 -138076 -152348 -29322.2 12487.4 27216.4 33932.6 -7.41772 
6292 1 79.5052 8.98995 7.5 6.03194 -145981 -150762 -1006.7 10692.5 31953.7 41895.4 -7.41942 
6293 1 78.7834 7.76946 7.5 6.03194 -131513 -151531 -61125.6 -14558.4 -14688.9 28921.5 -7.41583 
6294 1 79.4794 6.53409 7.5 6.03194 -143633 -150962 -10608.3 11523.3 30870.4 40528.4 -7.41884 
6295 1 78.7576 5.3136 7.5 6.03194 -133015 -151811 -53366.3 -14108.7 -18340.6 31438.3 -7.41629 
6296 1 79.4536 4.07822 7.5 6.03194 -141307 -151108 -20243.9 12302.3 29155.1 38940 -7.41827 
6297 1 78.7318 2.85773 7.5 6.03194 -134782 -151997 -44857 -13589.4 -21741.7 33756.6 -7.4168 
6298 1 79.4279 1.62236 7.5 6.03192 -139056 -151197 -29735.9 13024.9 26867.1 37138.1 -7.4177 
6299 1 78.706 0.401869 7.5 6.03192 -136788 -152181 -35732.4 -12964.8 -24792.7 35864.9 -7.41734 
6457 1 80.9231 8.97507 7.5 6.03194 -130774 -150838 -67057.8 -15550.3 -10460.2 28989.4 -7.41548 
6458 1 81.6191 7.73969 7.5 6.03194 -144756 -149411 -12988.5 11669.1 30319.3 43255.1 -7.4187 
6459 1 80.8973 6.5192 7.5 6.03194 -132132 -151017 -60466.6 -15130.7 -14347.9 31747.1 -7.41587 
6460 1 81.5934 5.28383 7.5 6.03194 -142403 -149701 -22045.1 12516.6 28702.4 41714.6 -7.41816 
6461 1 80.8715 4.06334 7.5 6.03194 -133777 -151107 -53038.5 -14632.1 -18046.8 34305.1 -7.41631 
6462 1 81.5676 2.82797 7.5 6.03194 -140098 -149938 -31008.4 13306.5 26486.9 39943.7 -7.41762 
6463 1 80.8457 1.60748 7.5 6.03192 -135667 -151118 -44896.4 -14060.6 -21454.7 36648.9 -7.41679 
6464 1 81.5418 0.372101 7.5 6.03192 -137918 -150195 -39706.3 13988.9 23741.3 37951.2 -7.4171 
6622 1 83.7589 8.9453 7.5 6.03194 -145877 -147694 -16247.5 11613.3 29772.7 45450.8 -7.41851 
6623 1 83.037 7.72481 7.5 6.03194 -131327 -150331 -66785.4 -15950.9 -10049.1 31519.6 -7.41549 
6624 1 83.7331 6.48944 7.5 6.03194 -143512 -148122 -24700.7 12523.5 28251.9 43994.6 -7.418 
6625 1 83.0113 5.26895 7.5 6.03194 -132834 -150313 -60528.1 -15486.3 -14016.9 34293.2 -7.41587 
6626 1 83.7073 4.03357 7.5 6.03194 -141167 -148513 -33108.3 13374.1 26109.2 42293.1 -7.4175 
6627 1 82.9855 2.81308 7.5 6.03194 -134614 -150214 -53464.7 -14940.6 -17756.5 36851.7 -7.41629 
6628 1 83.6815 1.57771 7.5 6.03192 -138897 -148858 -41296.2 14161.2 23406.6 40353.8 -7.41701 
6629 1 82.9597 0.357217 7.5 6.03192 -136639 -150123 -45724.3 -14277.2 -21164.9 39180.5 -7.41675 
6787 1 85.1768 8.93042 7.5 6.03194 -130615 -149769 -72217.3 -16548.2 -5483.29 30792.4 -7.41517 
6788 1 85.8728 7.69504 7.5 6.03194 -144627 -146382 -28146.2 12326.5 27836 45725.8 -7.4178 
6789 1 85.151 6.47455 7.5 6.03194 -131967 -149637 -67207.3 -16131.2 -9686.62 33753.5 -7.41547 
6790 1 85.847 5.23918 7.5 6.03194 -142257 -146921 -35983.2 13231.7 25767 44130.8 -7.41733 
6791 1 85.1252 4.01869 7.5 6.03194 -133616 -149424 -61306.7 -15623.6 -13728.2 36502.1 -7.41582 
6792 1 85.8213 2.78331 7.5 6.03194 -139936 -147423 -43644.6 14073 23110.1 42284.2 -7.41687 
6793 1 85.0994 1.56282 7.5 6.03192 -135518 -149143 -54631.1 -15033.4 -17501.7 39020.1 -7.41622 
6794 1 85.7955 0.327449 7.5 6.03192 -137743 -147955 -50962 14800.1 19937.8 40193.8 -7.41644 
6953 1 87.2907 7.68016 7.5 6.03194 -131189 -149092 -72975.9 -16547.8 -5095.89 32722.2 -7.41513 
6955 1 87.2649 5.22429 7.5 6.03194 -132691 -148759 -68309.1 -16090.9 -9405.18 35632.3 -7.41541 
6957 1 87.2392 2.76843 7.5 6.03194 -134473 -148352 -62777.4 -15542.9 -13514 38314.3 -7.41574 
6959 1 87.2134 0.312565 7.5 6.03192 -136509 -147961 -56503.2 -14869 -17314.7 40750.4 -7.41611 
6952 1 88.0126 8.90065 7.5 6.03194 -145737 -144490 -32295.5 11933.9 27484.7 46855.7 -7.41755 
6954 1 87.9868 6.44478 7.5 6.03194 -143359 -145173 -39558.9 12884.6 25491.6 45402.1 -7.41712 
6956 1 87.961 3.98892 7.5 6.03194 -140999 -145832 -46688.6 13772.6 22884.4 43685.5 -7.4167 
6958 1 87.9352 1.53305 7.5 6.03192 -138718 -146458 -53514.1 14591.5 19729.2 41711.9 -7.41629 
7117 1 89.4305 8.88576 7.5 6.03194 -130513 -148687 -77752.9 -16722.3 -290.041 31238.3 -7.41485 
7118 1 90.1265 7.65039 7.5 6.03194 -144463 -143279 -43739.6 12343.4 25310.9 46053.6 -7.41688 
7119 1 89.4047 6.4299 7.5 6.03194 -131850 -148230 -74376.3 -16325.6 -4828.21 34276.8 -7.41505 
7120 1 90.1007 5.19453 7.5 6.03194 -142081 -144088 -50343.8 13268.2 22759.2 44501.3 -7.41648 
7121 1 89.3789 3.97404 7.5 6.03194 -133492 -147699 -70054.1 -15831.4 -9237.5 37093.6 -7.41531 
7122 1 90.0749 2.73866 7.5 6.03194 -139751 -144873 -56682.6 14127.3 19627.8 42681.9 -7.41611 