(written by TR)

18152	atoms
2	atom types
0	116.989155	xlo xhi
0	202.631161	ylo yhi
0	18.4	zlo zhi


Masses

1	12
2	12

Atoms

1 1 1 0 0.69605715 201.39578897 7.50000000 0 0 0
2 1 1 0 0.67027725 198.93992427 7.50000000 0 0 0
3 1 1 0 0.64449736 196.48405958 7.50000000 0 0 0
4 1 1 0 0.61871747 194.02819488 7.50000000 0 0 0
5 1 1 0 0.59293757 191.57233019 7.50000000 0 0 0
6 1 1 0 0.56715768 189.11646550 7.50000000 0 0 0
7 1 1 0 0.54137778 186.66060080 7.50000000 0 0 0
8 1 1 0 0.51559789 184.20473611 7.50000000 0 0 0
9 1 1 0 0.48981800 181.74887141 7.50000000 0 0 0
10 1 1 0 0.46403810 179.29300672 7.50000000 0 0 0
11 1 1 0 0.43825821 176.83714202 7.50000000 0 0 0
12 1 1 0 0.41247832 174.38127733 7.50000000 0 0 0
13 1 1 0 0.38669842 171.92541263 7.50000000 0 0 0
14 1 1 0 0.36091853 169.46954794 7.50000000 0 0 0
15 1 1 0 0.33513863 167.01368325 7.50000000 0 0 0
16 1 1 0 0.30935874 164.55781855 7.50000000 0 0 0
17 1 1 0 0.28357885 162.10195386 7.50000000 0 0 0
18 1 1 0 0.25779895 159.64608916 7.50000000 0 0 0
19 1 1 0 0.23201906 157.19022447 7.50000000 0 0 0
20 1 1 0 0.20623916 154.73435977 7.50000000 0 0 0
21 1 1 0 0.18045927 152.27849508 7.50000000 0 0 0
22 1 1 0 0.15467938 149.82263039 7.50000000 0 0 0
23 1 1 0 0.12889948 147.36676569 7.50000000 0 0 0
24 1 1 0 0.10311959 144.91090100 7.50000000 0 0 0
25 1 1 0 0.07733970 142.45503630 7.50000000 0 0 0
26 1 1 0 0.05155980 139.99917161 7.50000000 0 0 0
27 1 1 0 0.02577991 137.54330691 7.50000000 0 0 0
28 1 1 0 0.00000001 135.08744222 7.50000000 0 0 0
29 1 1 0 2.83578831 202.60139527 7.50000000 0 0 0
30 1 1 0 2.11395129 201.38090494 7.50000000 0 0 0
31 1 1 0 2.81000841 200.14553058 7.50000000 0 0 0
32 1 1 0 2.08817140 198.92504024 7.50000000 0 0 0
33 1 1 0 2.78422852 197.68966588 7.50000000 0 0 0
34 1 1 0 2.06239150 196.46917555 7.50000000 0 0 0
35 1 1 0 2.75844863 195.23380119 7.50000000 0 0 0
36 1 1 0 2.03661161 194.01331086 7.50000000 0 0 0
37 1 1 0 2.73266873 192.77793649 7.50000000 0 0 0
38 1 1 0 2.01083171 191.55744616 7.50000000 0 0 0
39 1 1 0 2.70688884 190.32207180 7.50000000 0 0 0
40 1 1 0 1.98505182 189.10158147 7.50000000 0 0 0
41 1 1 0 2.68110894 187.86620711 7.50000000 0 0 0
42 1 1 0 1.95927193 186.64571677 7.50000000 0 0 0
43 1 1 0 2.65532905 185.41034241 7.50000000 0 0 0
44 1 1 0 1.93349203 184.18985208 7.50000000 0 0 0
45 1 1 0 2.62954916 182.95447772 7.50000000 0 0 0
46 1 1 0 1.90771214 181.73398738 7.50000000 0 0 0
47 1 1 0 2.60376926 180.49861302 7.50000000 0 0 0
48 1 1 0 1.88193224 179.27812269 7.50000000 0 0 0
49 1 1 0 2.57798937 178.04274833 7.50000000 0 0 0
50 1 1 0 1.85615235 176.82225799 7.50000000 0 0 0
51 1 1 0 2.55220948 175.58688363 7.50000000 0 0 0
52 1 1 0 1.83037246 174.36639330 7.50000000 0 0 0
53 1 1 0 2.52642958 173.13101894 7.50000000 0 0 0
54 1 1 0 1.80459256 171.91052861 7.50000000 0 0 0
55 1 1 0 2.50064969 170.67515424 7.50000000 0 0 0
56 1 1 0 1.77881267 169.45466391 7.50000000 0 0 0
57 1 1 0 2.47486979 168.21928955 7.50000000 0 0 0
58 1 1 0 1.75303278 166.99879922 7.50000000 0 0 0
59 1 1 0 2.44908990 165.76342486 7.50000000 0 0 0
60 1 1 0 1.72725288 164.54293452 7.50000000 0 0 0
61 1 1 0 2.42331001 163.30756016 7.50000000 0 0 0
62 1 1 0 1.70147299 162.08706983 7.50000000 0 0 0
63 1 1 0 2.39753011 160.85169547 7.50000000 0 0 0
64 1 1 0 1.67569309 159.63120513 7.50000000 0 0 0
65 1 1 0 2.37175022 158.39583077 7.50000000 0 0 0
66 1 1 0 1.64991320 157.17534044 7.50000000 0 0 0
67 1 1 0 2.34597033 155.93996608 7.50000000 0 0 0
68 1 1 0 1.62413331 154.71947575 7.50000000 0 0 0
69 1 1 0 2.32019043 153.48410138 7.50000000 0 0 0
70 1 1 0 1.59835341 152.26361105 7.50000000 0 0 0
71 1 1 0 2.29441054 151.02823669 7.50000000 0 0 0
72 1 1 0 1.57257352 149.80774636 7.50000000 0 0 0
73 1 1 0 2.26863064 148.57237200 7.50000000 0 0 0
74 1 1 0 1.54679363 147.35188166 7.50000000 0 0 0
75 1 1 0 2.24285075 146.11650730 7.50000000 0 0 0
76 1 1 0 1.52101373 144.89601697 7.50000000 0 0 0
77 1 1 0 2.21707086 143.66064261 7.50000000 0 0 0
78 1 1 0 1.49523384 142.44015227 7.50000000 0 0 0
79 1 1 0 2.19129096 141.20477791 7.50000000 0 0 0
80 1 1 0 1.46945394 139.98428758 7.50000000 0 0 0
81 1 1 0 2.16551107 138.74891322 7.50000000 0 0 0
82 1 1 0 1.44367405 137.52842288 7.50000000 0 0 0
83 1 1 0 2.13973118 136.29304852 7.50000000 0 0 0
84 1 1 0 1.41789416 135.07255819 7.50000000 0 0 0
85 1 1 0 2.11395128 133.83718383 7.50000000 0 0 0
86 1 1 0 1.39211426 132.61669350 7.50000000 0 0 0
87 1 1 0 2.08817139 131.38131913 7.50000000 0 0 0
88 1 1 0 1.36633437 130.16082880 7.50000000 0 0 0
89 1 1 0 2.06239149 128.92545444 7.50000000 0 0 0
90 1 1 0 1.34055448 127.70496411 7.50000000 0 0 0
91 1 1 0 2.03661160 126.46958975 7.50000000 0 0 0
92 1 1 0 1.31477458 125.24909941 7.50000000 0 0 0
93 1 1 0 2.01083171 124.01372505 7.50000000 0 0 0
94 1 1 0 1.28899469 122.79323472 7.50000000 0 0 0
95 1 1 0 1.98505181 121.55786036 7.50000000 0 0 0
96 1 1 0 1.26321479 120.33737002 7.50000000 0 0 0
97 1 1 0 1.95927192 119.10199566 7.50000000 0 0 0
98 1 1 0 1.23743490 117.88150533 7.50000000 0 0 0
99 1 1 0 1.93349203 116.64613097 7.50000000 0 0 0
100 1 1 0 1.21165501 115.42564064 7.50000000 0 0 0
101 1 1 0 1.90771213 114.19026627 7.50000000 0 0 0
102 1 1 0 1.18587511 112.96977594 7.50000000 0 0 0
103 1 1 0 1.88193224 111.73440158 7.50000000 0 0 0
104 1 1 0 1.16009522 110.51391125 7.50000000 0 0 0
105 1 1 0 1.85615234 109.27853689 7.50000000 0 0 0
106 1 1 0 1.13431533 108.05804655 7.50000000 0 0 0
107 1 1 0 1.83037245 106.82267219 7.50000000 0 0 0
108 1 1 0 1.10853543 105.60218186 7.50000000 0 0 0
109 1 1 0 1.80459256 104.36680750 7.50000000 0 0 0
110 1 1 0 1.08275554 103.14631716 7.50000000 0 0 0
111 1 1 0 1.77881266 101.91094280 7.50000000 0 0 0
112 1 1 0 1.05697564 100.69045247 7.50000000 0 0 0
113 1 1 0 1.75303277 99.45507811 7.50000000 0 0 0
114 1 1 0 1.03119575 98.23458777 7.50000000 0 0 0
115 1 1 0 1.72725287 96.99921341 7.50000000 0 0 0
116 1 1 0 1.00541586 95.77872308 7.50000000 0 0 0
117 1 1 0 1.70147298 94.54334872 7.50000000 0 0 0
118 1 1 0 0.97963596 93.32285839 7.50000000 0 0 0
119 1 1 0 1.67569309 92.08748402 7.50000000 0 0 0
120 1 1 0 0.95385607 90.86699369 7.50000000 0 0 0
121 1 1 0 1.64991319 89.63161933 7.50000000 0 0 0
122 1 1 0 0.92807618 88.41112900 7.50000000 0 0 0
123 1 1 0 1.62413330 87.17575464 7.50000000 0 0 0
124 1 1 0 0.90229628 85.95526430 7.50000000 0 0 0
125 1 1 0 1.59835341 84.71988994 7.50000000 0 0 0
126 1 1 0 0.87651639 83.49939961 7.50000000 0 0 0
127 1 1 0 1.57257351 82.26402525 7.50000000 0 0 0
128 1 1 0 0.85073649 81.04353491 7.50000000 0 0 0
129 1 1 0 1.54679362 79.80816055 7.50000000 0 0 0
130 1 1 0 0.82495660 78.58767022 7.50000000 0 0 0
131 1 1 0 1.52101372 77.35229586 7.50000000 0 0 0
132 1 1 0 0.79917671 76.13180553 7.50000000 0 0 0
133 1 1 0 1.49523383 74.89643116 7.50000000 0 0 0
134 1 1 0 0.77339681 73.67594083 7.50000000 0 0 0
135 1 1 0 1.46945394 72.44056647 7.50000000 0 0 0
136 1 1 0 0.74761692 71.22007614 7.50000000 0 0 0
137 1 1 0 1.44367404 69.98470178 7.50000000 0 0 0
138 1 1 0 0.72183703 68.76421144 7.50000000 0 0 0
139 1 1 0 1.41789415 67.52883708 7.50000000 0 0 0
140 1 1 0 0.69605713 66.30834675 7.50000000 0 0 0
141 1 1 0 1.39211426 65.07297239 7.50000000 0 0 0
142 1 1 0 0.67027724 63.85248205 7.50000000 0 0 0
143 1 1 0 1.36633436 62.61710769 7.50000000 0 0 0
144 1 1 0 0.64449734 61.39661736 7.50000000 0 0 0
145 1 1 0 1.34055447 60.16124300 7.50000000 0 0 0
146 1 1 0 0.61871745 58.94075266 7.50000000 0 0 0
147 1 1 0 1.31477457 57.70537830 7.50000000 0 0 0
148 1 1 0 0.59293756 56.48488797 7.50000000 0 0 0
149 1 1 0 1.28899468 55.24951361 7.50000000 0 0 0
150 1 1 0 0.56715766 54.02902328 7.50000000 0 0 0
151 1 1 0 1.26321479 52.79364891 7.50000000 0 0 0
152 1 1 0 0.54137777 51.57315858 7.50000000 0 0 0
153 1 1 0 1.23743489 50.33778422 7.50000000 0 0 0
154 1 1 0 0.51559788 49.11729389 7.50000000 0 0 0
155 1 1 0 1.21165500 47.88191953 7.50000000 0 0 0
156 1 1 0 0.48981798 46.66142919 7.50000000 0 0 0
157 1 1 0 1.18587511 45.42605483 7.50000000 0 0 0
158 1 1 0 0.46403809 44.20556450 7.50000000 0 0 0
159 1 1 0 1.16009521 42.97019014 7.50000000 0 0 0
160 1 1 0 0.43825819 41.74969980 7.50000000 0 0 0
161 1 1 0 1.13431532 40.51432544 7.50000000 0 0 0
162 1 1 0 0.41247830 39.29383511 7.50000000 0 0 0
163 1 1 0 1.10853542 38.05846075 7.50000000 0 0 0
164 1 1 0 0.38669841 36.83797042 7.50000000 0 0 0
165 1 1 0 1.08275553 35.60259605 7.50000000 0 0 0
166 1 1 0 0.36091851 34.38210572 7.50000000 0 0 0
167 1 1 0 1.05697564 33.14673136 7.50000000 0 0 0
168 1 1 0 0.33513862 31.92624103 7.50000000 0 0 0
169 1 1 0 1.03119574 30.69086667 7.50000000 0 0 0
170 1 1 0 0.30935873 29.47037633 7.50000000 0 0 0
171 1 1 0 1.00541585 28.23500197 7.50000000 0 0 0
172 1 1 0 0.28357883 27.01451164 7.50000000 0 0 0
173 1 1 0 0.97963596 25.77913728 7.50000000 0 0 0
174 1 1 0 0.25779894 24.55864694 7.50000000 0 0 0
175 1 1 0 0.95385606 23.32327258 7.50000000 0 0 0
176 1 1 0 0.23201904 22.10278225 7.50000000 0 0 0
177 1 1 0 0.92807617 20.86740789 7.50000000 0 0 0
178 1 1 0 0.20623915 19.64691755 7.50000000 0 0 0
179 1 1 0 0.90229627 18.41154319 7.50000000 0 0 0
180 1 1 0 0.18045926 17.19105286 7.50000000 0 0 0
181 1 1 0 0.87651638 15.95567850 7.50000000 0 0 0
182 1 1 0 0.15467936 14.73518817 7.50000000 0 0 0
183 1 1 0 0.85073649 13.49981380 7.50000000 0 0 0
184 1 1 0 0.12889947 12.27932347 7.50000000 0 0 0
185 1 1 0 0.82495659 11.04394911 7.50000000 0 0 0
186 1 1 0 0.10311958 9.82345878 7.50000000 0 0 0
187 1 1 0 0.79917670 8.58808442 7.50000000 0 0 0
188 1 1 0 0.07733968 7.36759408 7.50000000 0 0 0
189 1 1 0 0.77339681 6.13221972 7.50000000 0 0 0
190 1 1 0 0.05155979 4.91172939 7.50000000 0 0 0
191 1 1 0 0.74761691 3.67635503 7.50000000 0 0 0
192 1 1 0 0.02577989 2.45586469 7.50000000 0 0 0
193 1 1 0 0.72183702 1.22049033 7.50000000 0 0 0
194 1 1 0 0.00000000 0.00000000 7.50000000 0 0 0
195 1 1 0 4.25368245 202.58651124 7.50000000 0 0 0
196 1 1 0 4.94973957 201.35113688 7.50000000 0 0 0
197 1 1 0 4.22790256 200.13064655 7.50000000 0 0 0
198 1 1 0 4.92395968 198.89527219 7.50000000 0 0 0
199 1 1 0 4.20212266 197.67478185 7.50000000 0 0 0
200 1 1 0 4.89817979 196.43940749 7.50000000 0 0 0
201 1 1 0 4.17634277 195.21891716 7.50000000 0 0 0
202 1 1 0 4.87239989 193.98354280 7.50000000 0 0 0
203 1 1 0 4.15056287 192.76305247 7.50000000 0 0 0
204 1 1 0 4.84662000 191.52767810 7.50000000 0 0 0
205 1 1 0 4.12478298 190.30718777 7.50000000 0 0 0
206 1 1 0 4.82084010 189.07181341 7.50000000 0 0 0
207 1 1 0 4.09900309 187.85132308 7.50000000 0 0 0
208 1 1 0 4.79506021 186.61594872 7.50000000 0 0 0
209 1 1 0 4.07322319 185.39545838 7.50000000 0 0 0
210 1 1 0 4.76928032 184.16008402 7.50000000 0 0 0
211 1 1 0 4.04744330 182.93959369 7.50000000 0 0 0
212 1 1 0 4.74350042 181.70421933 7.50000000 0 0 0
213 1 1 0 4.02166341 180.48372899 7.50000000 0 0 0
214 1 1 0 4.71772053 179.24835463 7.50000000 0 0 0
215 1 1 0 3.99588351 178.02786430 7.50000000 0 0 0
216 1 1 0 4.69194064 176.79248994 7.50000000 0 0 0
217 1 1 0 3.97010362 175.57199960 7.50000000 0 0 0
218 1 1 0 4.66616074 174.33662524 7.50000000 0 0 0
219 1 1 0 3.94432372 173.11613491 7.50000000 0 0 0
220 1 1 0 4.64038085 171.88076055 7.50000000 0 0 0
221 1 1 0 3.91854383 170.66027022 7.50000000 0 0 0
222 1 1 0 4.61460095 169.42489585 7.50000000 0 0 0
223 1 1 0 3.89276394 168.20440552 7.50000000 0 0 0
224 1 1 0 4.58882106 166.96903116 7.50000000 0 0 0
225 1 1 0 3.86698404 165.74854083 7.50000000 0 0 0
226 1 1 0 4.56304117 164.51316647 7.50000000 0 0 0
227 1 1 0 3.84120415 163.29267613 7.50000000 0 0 0
228 1 1 0 4.53726127 162.05730177 7.50000000 0 0 0
229 1 1 0 3.81542426 160.83681144 7.50000000 0 0 0
230 1 1 0 4.51148138 159.60143708 7.50000000 0 0 0
231 1 1 0 3.78964436 158.38094674 7.50000000 0 0 0
232 1 1 0 4.48570149 157.14557238 7.50000000 0 0 0
233 1 1 0 3.76386447 155.92508205 7.50000000 0 0 0
234 1 1 0 4.45992159 154.68970769 7.50000000 0 0 0
235 1 1 0 3.73808457 153.46921736 7.50000000 0 0 0
236 1 1 0 4.43414170 152.23384299 7.50000000 0 0 0
237 1 1 0 3.71230468 151.01335266 7.50000000 0 0 0
238 1 1 0 4.40836180 149.77797830 7.50000000 0 0 0
239 1 1 0 3.68652479 148.55748797 7.50000000 0 0 0
240 1 1 0 4.38258191 147.32211361 7.50000000 0 0 0
241 1 1 0 3.66074489 146.10162327 7.50000000 0 0 0
242 1 1 0 4.35680202 144.86624891 7.50000000 0 0 0
243 1 1 0 3.63496500 143.64575858 7.50000000 0 0 0
244 1 1 0 4.33102212 142.41038422 7.50000000 0 0 0
245 1 1 0 3.60918511 141.18989388 7.50000000 0 0 0
246 1 1 0 4.30524223 139.95451952 7.50000000 0 0 0
247 1 1 0 3.58340521 138.73402919 7.50000000 0 0 0
248 1 1 0 4.27946234 137.49865483 7.50000000 0 0 0
249 1 1 0 3.55762532 136.27816449 7.50000000 0 0 0
250 1 1 0 4.25368244 135.04279013 7.50000000 0 0 0
251 1 1 0 3.53184542 133.82229980 7.50000000 0 0 0
252 1 1 0 4.22790255 132.58692544 7.50000000 0 0 0
253 1 1 0 3.50606553 131.36643511 7.50000000 0 0 0
254 1 1 0 4.20212265 130.13106074 7.50000000 0 0 0
255 1 1 0 3.48028564 128.91057041 7.50000000 0 0 0
256 1 1 0 4.17634276 127.67519605 7.50000000 0 0 0
257 1 1 0 3.45450574 126.45470572 7.50000000 0 0 0
258 1 1 0 4.15056287 125.21933136 7.50000000 0 0 0
259 1 1 0 3.42872585 123.99884102 7.50000000 0 0 0
260 1 1 0 4.12478297 122.76346666 7.50000000 0 0 0
261 1 1 0 3.40294596 121.54297633 7.50000000 0 0 0
262 1 1 0 4.09900308 120.30760197 7.50000000 0 0 0
263 1 1 0 3.37716606 119.08711163 7.50000000 0 0 0
264 1 1 0 4.07322319 117.85173727 7.50000000 0 0 0
265 1 1 0 3.35138617 116.63124694 7.50000000 0 0 0
266 1 1 0 4.04744329 115.39587258 7.50000000 0 0 0
267 1 1 0 3.32560627 114.17538225 7.50000000 0 0 0
268 1 1 0 4.02166340 112.94000788 7.50000000 0 0 0
269 1 1 0 3.29982638 111.71951755 7.50000000 0 0 0
270 1 1 0 3.99588350 110.48414319 7.50000000 0 0 0
271 1 1 0 3.27404649 109.26365286 7.50000000 0 0 0
272 1 1 0 3.97010361 108.02827850 7.50000000 0 0 0
273 1 1 0 3.24826659 106.80778816 7.50000000 0 0 0
274 1 1 0 3.94432372 105.57241380 7.50000000 0 0 0
275 1 1 0 3.22248670 104.35192347 7.50000000 0 0 0
276 1 1 0 3.91854382 103.11654911 7.50000000 0 0 0
277 1 1 0 3.19670680 101.89605877 7.50000000 0 0 0
278 1 1 0 3.89276393 100.66068441 7.50000000 0 0 0
279 1 1 0 3.17092691 99.44019408 7.50000000 0 0 0
280 1 1 0 3.86698404 98.20481972 7.50000000 0 0 0
281 1 1 0 3.14514702 96.98432938 7.50000000 0 0 0
282 1 1 0 3.84120414 95.74895502 7.50000000 0 0 0
283 1 1 0 3.11936712 94.52846469 7.50000000 0 0 0
284 1 1 0 3.81542425 93.29309033 7.50000000 0 0 0
285 1 1 0 3.09358723 92.07260000 7.50000000 0 0 0
286 1 1 0 3.78964435 90.83722563 7.50000000 0 0 0
287 1 1 0 3.06780734 89.61673530 7.50000000 0 0 0
288 1 1 0 3.76386446 88.38136094 7.50000000 0 0 0
289 1 1 0 3.04202744 87.16087061 7.50000000 0 0 0
290 1 1 0 3.73808457 85.92549625 7.50000000 0 0 0
291 1 1 0 3.01624755 84.70500591 7.50000000 0 0 0
292 1 1 0 3.71230467 83.46963155 7.50000000 0 0 0
293 1 1 0 2.99046765 82.24914122 7.50000000 0 0 0
294 1 1 0 3.68652478 81.01376686 7.50000000 0 0 0
295 1 1 0 2.96468776 79.79327652 7.50000000 0 0 0
296 1 1 0 3.66074489 78.55790216 7.50000000 0 0 0
297 1 1 0 2.93890787 77.33741183 7.50000000 0 0 0
298 1 1 0 3.63496499 76.10203747 7.50000000 0 0 0
299 1 1 0 2.91312797 74.88154714 7.50000000 0 0 0
300 1 1 0 3.60918510 73.64617277 7.50000000 0 0 0
301 1 1 0 2.88734808 72.42568244 7.50000000 0 0 0
302 1 1 0 3.58340520 71.19030808 7.50000000 0 0 0
303 1 1 0 2.86156819 69.96981775 7.50000000 0 0 0
304 1 1 0 3.55762531 68.73444339 7.50000000 0 0 0
305 1 1 0 2.83578829 67.51395305 7.50000000 0 0 0
306 1 1 0 3.53184542 66.27857869 7.50000000 0 0 0
307 1 1 0 2.81000840 65.05808836 7.50000000 0 0 0
308 1 1 0 3.50606552 63.82271400 7.50000000 0 0 0
309 1 1 0 2.78422850 62.60222366 7.50000000 0 0 0
310 1 1 0 3.48028563 61.36684930 7.50000000 0 0 0
311 1 1 0 2.75844861 60.14635897 7.50000000 0 0 0
312 1 1 0 3.45450574 58.91098461 7.50000000 0 0 0
313 1 1 0 2.73266872 57.69049427 7.50000000 0 0 0
314 1 1 0 3.42872584 56.45511991 7.50000000 0 0 0
315 1 1 0 2.70688882 55.23462958 7.50000000 0 0 0
316 1 1 0 3.40294595 53.99925522 7.50000000 0 0 0
317 1 1 0 2.68110893 52.77876489 7.50000000 0 0 0
318 1 1 0 3.37716605 51.54339052 7.50000000 0 0 0
319 1 1 0 2.65532904 50.32290019 7.50000000 0 0 0
320 1 1 0 3.35138616 49.08752583 7.50000000 0 0 0
321 1 1 0 2.62954914 47.86703550 7.50000000 0 0 0
322 1 1 0 3.32560627 46.63166114 7.50000000 0 0 0
323 1 1 0 2.60376925 45.41117080 7.50000000 0 0 0
324 1 1 0 3.29982637 44.17579644 7.50000000 0 0 0
325 1 1 0 2.57798935 42.95530611 7.50000000 0 0 0
326 1 1 0 3.27404648 41.71993175 7.50000000 0 0 0
327 1 1 0 2.55220946 40.49944141 7.50000000 0 0 0
328 1 1 0 3.24826659 39.26406705 7.50000000 0 0 0
329 1 1 0 2.52642957 38.04357672 7.50000000 0 0 0
330 1 1 0 3.22248669 36.80820236 7.50000000 0 0 0
331 1 1 0 2.50064967 35.58771203 7.50000000 0 0 0
332 1 1 0 3.19670680 34.35233766 7.50000000 0 0 0
333 1 1 0 2.47486978 33.13184733 7.50000000 0 0 0
334 1 1 0 3.17092690 31.89647297 7.50000000 0 0 0
335 1 1 0 2.44908989 30.67598264 7.50000000 0 0 0
336 1 1 0 3.14514701 29.44060828 7.50000000 0 0 0
337 1 1 0 2.42330999 28.22011794 7.50000000 0 0 0
338 1 1 0 3.11936712 26.98474358 7.50000000 0 0 0
339 1 1 0 2.39753010 25.76425325 7.50000000 0 0 0
340 1 1 0 3.09358722 24.52887889 7.50000000 0 0 0
341 1 1 0 2.37175020 23.30838855 7.50000000 0 0 0
342 1 1 0 3.06780733 22.07301419 7.50000000 0 0 0
343 1 1 0 2.34597031 20.85252386 7.50000000 0 0 0
344 1 1 0 3.04202743 19.61714950 7.50000000 0 0 0
345 1 1 0 2.32019042 18.39665916 7.50000000 0 0 0
346 1 1 0 3.01624754 17.16128480 7.50000000 0 0 0
347 1 1 0 2.29441052 15.94079447 7.50000000 0 0 0
348 1 1 0 2.99046765 14.70542011 7.50000000 0 0 0
349 1 1 0 2.26863063 13.48492978 7.50000000 0 0 0
350 1 1 0 2.96468775 12.24955541 7.50000000 0 0 0
351 1 1 0 2.24285074 11.02906508 7.50000000 0 0 0
352 1 1 0 2.93890786 9.79369072 7.50000000 0 0 0
353 1 1 0 2.21707084 8.57320039 7.50000000 0 0 0
354 1 1 0 2.91312797 7.33782603 7.50000000 0 0 0
355 1 1 0 2.19129095 6.11733569 7.50000000 0 0 0
356 1 1 0 2.88734807 4.88196133 7.50000000 0 0 0
357 1 1 0 2.16551105 3.66147100 7.50000000 0 0 0
358 1 1 0 2.86156818 2.42609664 7.50000000 0 0 0
359 1 1 0 2.13973116 1.20560630 7.50000000 0 0 0
360 1 1 0 7.08947073 202.55674319 7.50000000 0 0 0
361 1 1 0 6.36763372 201.33625285 7.50000000 0 0 0
362 1 1 0 7.06369084 200.10087849 7.50000000 0 0 0
363 1 1 0 6.34185382 198.88038816 7.50000000 0 0 0
364 1 1 0 7.03791095 197.64501380 7.50000000 0 0 0
365 1 1 0 6.31607393 196.42452346 7.50000000 0 0 0
366 1 1 0 7.01213105 195.18914910 7.50000000 0 0 0
367 1 1 0 6.29029403 193.96865877 7.50000000 0 0 0
368 1 1 0 6.98635116 192.73328441 7.50000000 0 0 0
369 1 1 0 6.26451414 191.51279408 7.50000000 0 0 0
370 1 1 0 6.96057127 190.27741971 7.50000000 0 0 0
371 1 1 0 6.23873425 189.05692938 7.50000000 0 0 0
372 1 1 0 6.93479137 187.82155502 7.50000000 0 0 0
373 1 1 0 6.21295435 186.60106469 7.50000000 0 0 0
374 1 1 0 6.90901148 185.36569033 7.50000000 0 0 0
375 1 1 0 6.18717446 184.14519999 7.50000000 0 0 0
376 1 1 0 6.88323158 182.90982563 7.50000000 0 0 0
377 1 1 0 6.16139457 181.68933530 7.50000000 0 0 0
378 1 1 0 6.85745169 180.45396094 7.50000000 0 0 0
379 1 1 0 6.13561467 179.23347060 7.50000000 0 0 0
380 1 1 0 6.83167180 177.99809624 7.50000000 0 0 0
381 1 1 0 6.10983478 176.77760591 7.50000000 0 0 0
382 1 1 0 6.80589190 175.54223155 7.50000000 0 0 0
383 1 1 0 6.08405488 174.32174121 7.50000000 0 0 0
384 1 1 0 6.78011201 173.08636685 7.50000000 0 0 0
385 1 1 0 6.05827499 171.86587652 7.50000000 0 0 0
386 1 1 0 6.75433212 170.63050216 7.50000000 0 0 0
387 1 1 0 6.03249510 169.41001183 7.50000000 0 0 0
388 1 1 0 6.72855222 168.17463746 7.50000000 0 0 0
389 1 1 0 6.00671520 166.95414713 7.50000000 0 0 0
390 1 1 0 6.70277233 165.71877277 7.50000000 0 0 0
391 1 1 0 5.98093531 164.49828244 7.50000000 0 0 0
392 1 1 0 6.67699243 163.26290808 7.50000000 0 0 0
393 1 1 0 5.95515542 162.04241774 7.50000000 0 0 0
394 1 1 0 6.65121254 160.80704338 7.50000000 0 0 0
395 1 1 0 5.92937552 159.58655305 7.50000000 0 0 0
396 1 1 0 6.62543265 158.35117869 7.50000000 0 0 0
397 1 1 0 5.90359563 157.13068835 7.50000000 0 0 0
398 1 1 0 6.59965275 155.89531399 7.50000000 0 0 0
399 1 1 0 5.87781573 154.67482366 7.50000000 0 0 0
400 1 1 0 6.57387286 153.43944930 7.50000000 0 0 0
401 1 1 0 5.85203584 152.21895897 7.50000000 0 0 0
402 1 1 0 6.54809296 150.98358460 7.50000000 0 0 0
403 1 1 0 5.82625595 149.76309427 7.50000000 0 0 0
404 1 1 0 6.52231307 148.52771991 7.50000000 0 0 0
405 1 1 0 5.80047605 147.30722958 7.50000000 0 0 0
406 1 1 0 6.49653318 146.07185522 7.50000000 0 0 0
407 1 1 0 5.77469616 144.85136488 7.50000000 0 0 0
408 1 1 0 6.47075328 143.61599052 7.50000000 0 0 0
409 1 1 0 5.74891627 142.39550019 7.50000000 0 0 0
410 1 1 0 6.44497339 141.16012583 7.50000000 0 0 0
411 1 1 0 5.72313637 139.93963549 7.50000000 0 0 0
412 1 1 0 6.41919350 138.70426113 7.50000000 0 0 0
413 1 1 0 5.69735648 137.48377080 7.50000000 0 0 0
414 1 1 0 6.39341360 136.24839644 7.50000000 0 0 0
415 1 1 0 5.67157658 135.02790610 7.50000000 0 0 0
416 1 1 0 6.36763371 133.79253174 7.50000000 0 0 0
417 1 1 0 5.64579669 132.57204141 7.50000000 0 0 0
418 1 1 0 6.34185381 131.33666705 7.50000000 0 0 0
419 1 1 0 5.62001680 130.11617672 7.50000000 0 0 0
420 1 1 0 6.31607392 128.88080235 7.50000000 0 0 0
421 1 1 0 5.59423690 127.66031202 7.50000000 0 0 0
422 1 1 0 6.29029403 126.42493766 7.50000000 0 0 0
423 1 1 0 5.56845701 125.20444733 7.50000000 0 0 0
424 1 1 0 6.26451413 123.96907297 7.50000000 0 0 0
425 1 1 0 5.54267712 122.74858263 7.50000000 0 0 0
426 1 1 0 6.23873424 121.51320827 7.50000000 0 0 0
427 1 1 0 5.51689722 120.29271794 7.50000000 0 0 0
428 1 1 0 6.21295435 119.05734358 7.50000000 0 0 0
429 1 1 0 5.49111733 117.83685324 7.50000000 0 0 0
430 1 1 0 6.18717445 116.60147888 7.50000000 0 0 0
431 1 1 0 5.46533743 115.38098855 7.50000000 0 0 0
432 1 1 0 6.16139456 114.14561419 7.50000000 0 0 0
433 1 1 0 5.43955754 112.92512386 7.50000000 0 0 0
434 1 1 0 6.13561466 111.68974949 7.50000000 0 0 0
435 1 1 0 5.41377765 110.46925916 7.50000000 0 0 0
436 1 1 0 6.10983477 109.23388480 7.50000000 0 0 0
437 1 1 0 5.38799775 108.01339447 7.50000000 0 0 0
438 1 1 0 6.08405488 106.77802011 7.50000000 0 0 0
439 1 1 0 5.36221786 105.55752977 7.50000000 0 0 0
440 1 1 0 6.05827498 104.32215541 7.50000000 0 0 0
441 1 1 0 5.33643797 103.10166508 7.50000000 0 0 0
442 1 1 0 6.03249509 101.86629072 7.50000000 0 0 0
443 1 1 0 5.31065807 100.64580038 7.50000000 0 0 0
444 1 1 0 6.00671520 99.41042602 7.50000000 0 0 0
445 1 1 0 5.28487818 98.18993569 7.50000000 0 0 0
446 1 1 0 5.98093530 96.95456133 7.50000000 0 0 0
447 1 1 0 5.25909828 95.73407099 7.50000000 0 0 0
448 1 1 0 5.95515541 94.49869663 7.50000000 0 0 0
449 1 1 0 5.23331839 93.27820630 7.50000000 0 0 0
450 1 1 0 5.92937551 92.04283194 7.50000000 0 0 0
451 1 1 0 5.20753850 90.82234161 7.50000000 0 0 0
452 1 1 0 5.90359562 89.58696724 7.50000000 0 0 0
453 1 1 0 5.18175860 88.36647691 7.50000000 0 0 0
454 1 1 0 5.87781573 87.13110255 7.50000000 0 0 0
455 1 1 0 5.15597871 85.91061222 7.50000000 0 0 0
456 1 1 0 5.85203583 84.67523786 7.50000000 0 0 0
457 1 1 0 5.13019882 83.45474752 7.50000000 0 0 0
458 1 1 0 5.82625594 82.21937316 7.50000000 0 0 0
459 1 1 0 5.10441892 80.99888283 7.50000000 0 0 0
460 1 1 0 5.80047605 79.76350847 7.50000000 0 0 0
461 1 1 0 5.07863903 78.54301813 7.50000000 0 0 0
462 1 1 0 5.77469615 77.30764377 7.50000000 0 0 0
463 1 1 0 5.05285913 76.08715344 7.50000000 0 0 0
464 1 1 0 5.74891626 74.85177908 7.50000000 0 0 0
465 1 1 0 5.02707924 73.63128875 7.50000000 0 0 0
466 1 1 0 5.72313636 72.39591438 7.50000000 0 0 0
467 1 1 0 5.00129935 71.17542405 7.50000000 0 0 0
468 1 1 0 5.69735647 69.94004969 7.50000000 0 0 0
469 1 1 0 4.97551945 68.71955936 7.50000000 0 0 0
470 1 1 0 5.67157658 67.48418500 7.50000000 0 0 0
471 1 1 0 4.94973956 66.26369466 7.50000000 0 0 0
472 1 1 0 5.64579668 65.02832030 7.50000000 0 0 0
473 1 1 0 4.92395967 63.80782997 7.50000000 0 0 0
474 1 1 0 5.62001679 62.57245561 7.50000000 0 0 0
475 1 1 0 4.89817977 61.35196527 7.50000000 0 0 0
476 1 1 0 5.59423690 60.11659091 7.50000000 0 0 0
477 1 1 0 4.87239988 58.89610058 7.50000000 0 0 0
478 1 1 0 5.56845700 57.66072622 7.50000000 0 0 0
479 1 1 0 4.84661998 56.44023588 7.50000000 0 0 0
480 1 1 0 5.54267711 55.20486152 7.50000000 0 0 0
481 1 1 0 4.82084009 53.98437119 7.50000000 0 0 0
482 1 1 0 5.51689721 52.74899683 7.50000000 0 0 0
483 1 1 0 4.79506020 51.52850650 7.50000000 0 0 0
484 1 1 0 5.49111732 50.29313213 7.50000000 0 0 0
485 1 1 0 4.76928030 49.07264180 7.50000000 0 0 0
486 1 1 0 5.46533743 47.83726744 7.50000000 0 0 0
487 1 1 0 4.74350041 46.61677711 7.50000000 0 0 0
488 1 1 0 5.43955753 45.38140275 7.50000000 0 0 0
489 1 1 0 4.71772051 44.16091241 7.50000000 0 0 0
490 1 1 0 5.41377764 42.92553805 7.50000000 0 0 0
491 1 1 0 4.69194062 41.70504772 7.50000000 0 0 0
492 1 1 0 5.38799775 40.46967336 7.50000000 0 0 0
493 1 1 0 4.66616073 39.24918302 7.50000000 0 0 0
494 1 1 0 5.36221785 38.01380866 7.50000000 0 0 0
495 1 1 0 4.64038083 36.79331833 7.50000000 0 0 0
496 1 1 0 5.33643796 35.55794397 7.50000000 0 0 0
497 1 1 0 4.61460094 34.33745364 7.50000000 0 0 0
498 1 1 0 5.31065806 33.10207927 7.50000000 0 0 0
499 1 1 0 4.58882105 31.88158894 7.50000000 0 0 0
500 1 1 0 5.28487817 30.64621458 7.50000000 0 0 0
501 1 1 0 4.56304115 29.42572425 7.50000000 0 0 0
502 1 1 0 5.25909828 28.19034989 7.50000000 0 0 0
503 1 1 0 4.53726126 26.96985955 7.50000000 0 0 0
504 1 1 0 5.23331838 25.73448519 7.50000000 0 0 0
505 1 1 0 4.51148136 24.51399486 7.50000000 0 0 0
506 1 1 0 5.20753849 23.27862050 7.50000000 0 0 0
507 1 1 0 4.48570147 22.05813016 7.50000000 0 0 0
508 1 1 0 5.18175860 20.82275580 7.50000000 0 0 0
509 1 1 0 4.45992158 19.60226547 7.50000000 0 0 0
510 1 1 0 5.15597870 18.36689111 7.50000000 0 0 0
511 1 1 0 4.43414168 17.14640077 7.50000000 0 0 0
512 1 1 0 5.13019881 15.91102641 7.50000000 0 0 0
513 1 1 0 4.40836179 14.69053608 7.50000000 0 0 0
514 1 1 0 5.10441891 13.45516172 7.50000000 0 0 0
515 1 1 0 4.38258190 12.23467139 7.50000000 0 0 0
516 1 1 0 5.07863902 10.99929702 7.50000000 0 0 0
517 1 1 0 4.35680200 9.77880669 7.50000000 0 0 0
518 1 1 0 5.05285913 8.54343233 7.50000000 0 0 0
519 1 1 0 4.33102211 7.32294200 7.50000000 0 0 0
520 1 1 0 5.02707923 6.08756764 7.50000000 0 0 0
521 1 1 0 4.30524221 4.86707730 7.50000000 0 0 0
522 1 1 0 5.00129934 3.63170294 7.50000000 0 0 0
523 1 1 0 4.27946232 2.41121261 7.50000000 0 0 0
524 1 1 0 4.97551945 1.17583825 7.50000000 0 0 0
525 1 1 0 8.50736488 202.54185916 7.50000000 0 0 0
526 1 1 0 9.20342200 201.30648480 7.50000000 0 0 0
527 1 1 0 8.48158498 200.08599446 7.50000000 0 0 0
528 1 1 0 9.17764211 198.85062010 7.50000000 0 0 0
529 1 1 0 8.45580509 197.63012977 7.50000000 0 0 0
530 1 1 0 9.15186221 196.39475541 7.50000000 0 0 0
531 1 1 0 8.43002520 195.17426507 7.50000000 0 0 0
532 1 1 0 9.12608232 193.93889071 7.50000000 0 0 0
533 1 1 0 8.40424530 192.71840038 7.50000000 0 0 0
534 1 1 0 9.10030243 191.48302602 7.50000000 0 0 0
535 1 1 0 8.37846541 190.26253569 7.50000000 0 0 0
536 1 1 0 9.07452253 189.02716132 7.50000000 0 0 0
537 1 1 0 8.35268551 187.80667099 7.50000000 0 0 0
538 1 1 0 9.04874264 186.57129663 7.50000000 0 0 0
539 1 1 0 8.32690562 185.35080630 7.50000000 0 0 0
540 1 1 0 9.02296274 184.11543194 7.50000000 0 0 0
541 1 1 0 8.30112573 182.89494160 7.50000000 0 0 0
542 1 1 0 8.99718285 181.65956724 7.50000000 0 0 0
543 1 1 0 8.27534583 180.43907691 7.50000000 0 0 0
544 1 1 0 8.97140296 179.20370255 7.50000000 0 0 0
545 1 1 0 8.24956594 177.98321221 7.50000000 0 0 0
546 1 1 0 8.94562306 176.74783785 7.50000000 0 0 0
547 1 1 0 8.22378605 175.52734752 7.50000000 0 0 0
548 1 1 0 8.91984317 174.29197316 7.50000000 0 0 0
549 1 1 0 8.19800615 173.07148282 7.50000000 0 0 0
550 1 1 0 8.89406328 171.83610846 7.50000000 0 0 0
551 1 1 0 8.17222626 170.61561813 7.50000000 0 0 0
552 1 1 0 8.86828338 169.38024377 7.50000000 0 0 0
553 1 1 0 8.14644636 168.15975344 7.50000000 0 0 0
554 1 1 0 8.84250349 166.92437907 7.50000000 0 0 0
555 1 1 0 8.12066647 165.70388874 7.50000000 0 0 0
556 1 1 0 8.81672359 164.46851438 7.50000000 0 0 0
557 1 1 0 8.09488658 163.24802405 7.50000000 0 0 0
558 1 1 0 8.79094370 162.01264969 7.50000000 0 0 0
559 1 1 0 8.06910668 160.79215935 7.50000000 0 0 0
560 1 1 0 8.76516381 159.55678499 7.50000000 0 0 0
561 1 1 0 8.04332679 158.33629466 7.50000000 0 0 0
562 1 1 0 8.73938391 157.10092030 7.50000000 0 0 0
563 1 1 0 8.01754689 155.88042996 7.50000000 0 0 0
564 1 1 0 8.71360402 154.64505560 7.50000000 0 0 0
565 1 1 0 7.99176700 153.42456527 7.50000000 0 0 0
566 1 1 0 8.68782413 152.18919091 7.50000000 0 0 0
567 1 1 0 7.96598711 150.96870058 7.50000000 0 0 0
568 1 1 0 8.66204423 149.73332621 7.50000000 0 0 0
569 1 1 0 7.94020721 148.51283588 7.50000000 0 0 0
570 1 1 0 8.63626434 147.27746152 7.50000000 0 0 0
571 1 1 0 7.91442732 146.05697119 7.50000000 0 0 0
572 1 1 0 8.61048444 144.82159683 7.50000000 0 0 0
573 1 1 0 7.88864743 143.60110649 7.50000000 0 0 0
574 1 1 0 8.58470455 142.36573213 7.50000000 0 0 0
575 1 1 0 7.86286753 141.14524180 7.50000000 0 0 0
576 1 1 0 8.55892466 139.90986744 7.50000000 0 0 0
577 1 1 0 7.83708764 138.68937710 7.50000000 0 0 0
578 1 1 0 8.53314476 137.45400274 7.50000000 0 0 0
579 1 1 0 7.81130774 136.23351241 7.50000000 0 0 0
580 1 1 0 8.50736487 134.99813805 7.50000000 0 0 0
581 1 1 0 7.78552785 133.77764771 7.50000000 0 0 0
582 1 1 0 8.48158498 132.54227335 7.50000000 0 0 0
583 1 1 0 7.75974796 131.32178302 7.50000000 0 0 0
584 1 1 0 8.45580508 130.08640866 7.50000000 0 0 0
585 1 1 0 7.73396806 128.86591833 7.50000000 0 0 0
586 1 1 0 8.43002519 127.63054396 7.50000000 0 0 0
587 1 1 0 7.70818817 126.41005363 7.50000000 0 0 0
588 1 1 0 8.40424529 125.17467927 7.50000000 0 0 0
589 1 1 0 7.68240828 123.95418894 7.50000000 0 0 0
590 1 1 0 8.37846540 122.71881458 7.50000000 0 0 0
591 1 1 0 7.65662838 121.49832424 7.50000000 0 0 0
592 1 1 0 8.35268551 120.26294988 7.50000000 0 0 0
593 1 1 0 7.63084849 119.04245955 7.50000000 0 0 0