ITEM: TIMESTEP
91
ITEM: NUMBER OF ATOMS
8216
ITEM: BOX BOUNDS pp pp pp
0.0000000000000000e+00 7.8707041300000000e+01
0.0000000000000000e+00 1.3632459399999999e+02
0.0000000000000000e+00 1.8399999999999999e+01
ITEM: ATOMS id type x y z c_csym c_2[1] c_2[2] c_2[3] c_2[4] c_2[5] c_2[6] c_3 
125 1 0.89474 8.57797 7.38864 6.01713 -165791 -144561 -4323.58 -18904 13313.2 -3416.96 -7.41383 
126 1 0.160284 7.36532 7.38491 6.02386 -150754 -159653 3029.1 -13134.5 15555 -1579.22 -7.41406 
127 1 0.842753 6.12251 7.38187 6.02228 -161872 -147877 -1373.38 -9149.98 9148.74 -2866.41 -7.41373 
128 1 0.107591 4.91023 7.3793 6.02659 -151704 -158078 1134.09 -5398.4 9067.57 -1050.98 -7.41376 
129 1 0.789579 3.66719 7.37748 6.02593 -158599 -150810 30.8788 -3273.56 5214.89 -2150.83 -7.41364 
130 1 0.0539992 2.45512 7.37606 6.02876 -152954 -156285 506.788 -1272.13 3965.3 -537.605 -7.41361 
131 1 0.735753 1.21197 7.37536 6.02905 -155821 -153355 434.205 -695.572 1635.97 -1398.35 -7.41358 
237 1 2.31226 8.54691 7.38947 6.01907 -159662 -151249 3537.14 -15696.5 18810.7 -4462.52 -7.41426 
238 1 2.99478 7.30405 7.3864 6.01935 -171435 -138805 -1246.84 -13121 11292.2 -8397.72 -7.4139 
239 1 2.26025 6.09141 7.38264 6.02274 -157212 -152889 1115.31 -6030.37 11697.8 -4056.96 -7.41388 
240 1 2.94227 4.84834 7.38077 6.02343 -165004 -144796 335.542 -5445.87 7200.79 -6981.86 -7.41377 
241 1 2.20706 3.63605 7.3782 6.02567 -155681 -153851 262.203 -306.848 5821.43 -3648.83 -7.41368 
242 1 2.88883 2.39289 7.37748 6.02701 -159457 -150022 678.869 -1416.43 3369.46 -5564.7 -7.41367 
243 1 2.15323 1.18082 7.37606 6.02769 -154833 -154448 290.732 2191.12 1274.68 -3328.27 -7.4136 
348 1 5.14586 8.48649 7.39325 6.01615 -184420 -126431 585.874 -15783.9 13811 -14793.1 -7.41423 
349 1 4.41224 7.2733 7.38831 6.01623 -166099 -144603 -274.457 -5372.97 14679.5 -7089.32 -7.41403 
350 1 5.09431 6.03018 7.38643 6.02043 -174649 -135756 1970.01 -6120.35 9836.89 -12878.9 -7.41405 
351 1 4.35972 4.81752 7.38262 6.02108 -161294 -148728 -1037.98 2179.66 8059.12 -6928.15 -7.41378 
352 1 5.04152 3.57433 7.3819 6.02448 -166037 -144091 1858.74 -475.215 5799.15 -10855 -7.41389 
353 1 4.30629 2.36202 7.37929 6.02424 -157559 -152035 -592.624 6027.41 2689.41 -6811.04 -7.41368 
354 1 4.98804 1.11886 7.37967 6.02541 -158307 -151562 845.458 1832.52 1865.43 -9021.55 -7.41376 
458 1 7.29568 9.67033 7.40217 6.01026 -200588 -110688 4642.31 -16764.3 16218.4 -21609.2 -7.41476 
459 1 6.56328 8.45639 7.39622 6.00811 -178481 -132679 -3543.95 -3193.68 17673.6 -9859.39 -7.41416 
460 1 7.24541 7.21323 7.39441 6.01617 -187695 -123233 5549.41 -4960.71 12769.6 -19586.8 -7.41453 
461 1 6.51173 5.99999 7.38941 6.0145 -170250 -140248 -3932.22 6465.4 10591.7 -10267.9 -7.41388 
462 1 7.19358 4.75677 7.38872 6.02147 -175842 -134915 4651.13 2549.83 8815.49 -17241 -7.41428 
463 1 6.45896 3.54405 7.38486 6.01944 -163321 -146729 -2770.83 11965 4416.72 -10551.3 -7.41377 
464 1 7.14075 2.30088 7.38529 6.02247 -164923 -145569 2565.21 6242.56 4724.45 -14907.9 -7.41405 
465 1 6.4055 1.08852 7.38262 6.02173 -157388 -152600 -761.961 14140.5 -684.335 -10944 -7.41379 
569 1 8.71304 9.64121 7.40594 5.99903 -194128 -117457 -9067.55 493.814 20156.2 -11875.4 -7.41422 
570 1 9.39526 8.398 7.40433 6.00865 -203492 -107600 11469.8 -1823.19 15507.8 -26381.4 -7.41521 
571 1 8.66278 7.18399 7.39837 6.00655 -182728 -128301 -8863.81 12641.3 13033.7 -13184.2 -7.41395 
572 1 9.34469 5.94074 7.39777 6.01573 -188807 -122435 9593.75 7902.27 12045.8 -24126.8 -7.41488 
573 1 8.61097 4.72741 7.39278 6.01374 -172485 -138167 -6747.39 20218.7 6315.93 -14171.2 -7.41385 
574 1 9.29281 3.48423 7.39327 6.01915 -174789 -136428 6165.7 13349 8089.69 -21614.5 -7.41454 
575 1 8.55817 2.27143 7.38941 6.01757 -163230 -147248 -3404.49 23892.4 442.993 -15062.4 -7.4139 
576 1 9.24019 1.02842 7.39098 6.01546 -161328 -149757 1870.35 15260.3 3863.18 -19147.6 -7.41424 
680 1 11.5436 9.58497 7.41541 6.00019 -220496 -89663.5 19770.8 2997.67 17615.7 -32360.5 -7.4161 
681 1 10.8126 8.37001 7.40891 5.99811 -197833 -113245 -16079.6 20334.6 14902 -15136.9 -7.41393 
682 1 11.4946 7.12676 7.40848 6.00853 -203922 -107050 16925.4 15356.1 15030.6 -30582.2 -7.41569 
683 1 10.762 5.91264 7.40266 6.00651 -184741 -126263 -12890.9 30536.6 8026.94 -17059 -7.41387 
684 1 11.444 4.66947 7.40322 6.015 -187465 -124099 12073 23036.2 11590.3 -28280.9 -7.41524 
685 1 10.7102 3.45604 7.39837 6.01266 -172366 -138641 -8044.16 36241.4 1620.58 -18680.9 -7.41396 
686 1 11.3923 2.21306 7.39997 6.0106 -171070 -140635 5931.37 26601.4 7632.72 -25717.5 -7.4148 
687 1 10.6576 1.00016 7.39622 6.01445 -160521 -150526 -2289.83 38151.4 -4049.72 -20191 -7.41418 
791 1 12.9609 9.55845 7.42014 5.99006 -214155 -96386.1 -25492.9 28676.7 15845 -15834.9 -7.41379 
792 1 13.6431 8.31524 7.41995 6.0007 -219619 -90054.7 26475.8 24181.9 17392 -35709.2 -7.4167 
793 1 12.9119 7.1002 7.41373 5.99898 -199118 -111888 -21304.2 42074.6 9178.6 -18720.9 -7.41378 
794 1 13.594 5.85707 7.41439 6.00831 -201822 -109396 20351.2 34663.3 14811.3 -33931.4 -7.41615 
795 1 12.8613 4.64285 7.40889 6.00743 -184289 -127117 -14965.6 50472.9 2571.6 -21182.5 -7.41395 
796 1 13.5435 3.39992 7.41048 6.00602 -183434 -128572 12410.4 40504.2 11445.5 -31619.6 -7.41556 
797 1 12.8097 2.18638 7.40593 6.01068 -169507 -141906 -7226.56 54401.5 -3530.69 -23336.6 -7.41425 
798 1 13.4923 0.943765 7.40845 6.00084 -164629 -147590 3452.85 42150.6 7519.47 -28969.3 -7.415 
902 1 15.7901 9.50642 7.43123 5.99309 -233825 -73041.3 37684.8 33265 18919.1 -38939.1 -7.41782 
903 1 15.0603 8.29038 7.42504 5.99225 -213967 -96330.8 -31704.5 53599.3 9569.36 -19003.8 -7.41357 
904 1 15.7426 7.04735 7.42581 6.00114 -215916 -93595.8 30642.8 47065.1 17431.8 -37826.3 -7.41721 
905 1 15.0112 5.83224 7.42008 6.00178 -197779 -113631 -24118.9 65350.4 3071.17 -22216.2 -7.41381 
906 1 15.6936 4.58941 7.42164 6.00116 -196806 -114634 21206.3 55808.1 14932.1 -36011.9 -7.41651 
907 1 14.9608 3.3751 7.41665 6.00743 -181102 -130810 -14560.9 71993.7 -3204.98 -25017.1 -7.41421 
908 1 15.6436 2.13257 7.41901 5.99543 -176602 -135688 10162.1 59741.8 11692.2 -33619.6 -7.41579 
909 1 14.9097 0.918919 7.41495 6.00406 -163999 -147874 -3882.27 74005.4 -8905.16 -27480.5 -7.41474 
1013 1 17.2072 9.4833 7.43573 5.98704 -227205 -81100.6 -43438.4 63864.8 9222.96 -18091.6 -7.41326 
1014 1 17.89 8.24045 7.43663 5.99449 -228058 -78249.3 42256.5 58911.2 19274.7 -39654.1 -7.41836 
1015 1 17.1599 7.02441 7.43102 5.99642 -210820 -99492.5 -35045.1 79356.3 3058.21 -21805.4 -7.41356 
1016 1 17.8426 5.78173 7.43253 5.99546 -209544 -99998.8 31820.2 71101.5 17816.4 -38422.4 -7.41758 
1017 1 17.1109 4.56657 7.42746 6.00484 -193449 -118156 -24086.2 89400.8 -3159.31 -25093.7 -7.41404 
1018 1 17.7939 3.32419 7.42962 5.99098 -189287 -122226 19142 77977.7 15451 -36484.1 -7.41673 
1019 1 17.0609 2.10979 7.42531 5.99955 -175113 -136854 -11370.8 94097.3 -8969.88 -27979.8 -7.41468 
1020 1 17.7445 0.86781 7.42809 5.98496 -167708 -144698 5126.31 79819.7 12336.7 -33935.3 -7.41586 
1125 1 19.3071 8.21934 7.441 5.99262 -221910 -86437.8 -46980.5 91108.4 2624.6 -20253.8 -7.41321 
1127 1 19.2598 5.76089 7.43757 6.00198 -205079 -105540 -35203 104988 -3363.76 -23774.4 -7.41375 
1129 1 19.2112 3.3035 7.43524 5.996 -186757 -124852 -21020.4 113037 -9142 -26902.4 -7.41447 
1131 1 19.1618 0.84719 7.43416 5.98878 -167248 -144370 -5390.33 115376 -14303.8 -29646 -7.41532 
1124 1 20.036 9.43629 7.44627 5.98896 -236713 -65051 54377.3 68930.2 20298 -39515.1 -7.41953 
1126 1 19.9903 6.97691 7.44245 5.99067 -219905 -86403.4 43496.4 84895.9 19949.9 -38809.7 -7.41871 
1128 1 19.9431 4.5187 7.43952 5.98667 -201019 -108675 29800.2 95289.1 18563.7 -37382 -7.41776 
1130 1 19.895 2.06168 7.43766 5.98049 -180119 -131428 14093.4 100021 16315.3 -35268.6 -7.41675 
1235 1 21.4531 9.41687 7.44964 5.99067 -229392 -75528.7 -59099.1 99713.1 1942.23 -17966.2 -7.4128 
1236 1 22.1369 8.17475 7.45106 5.98703 -226450 -75028.5 55450.5 96017.4 21295.5 -37447.6 -7.41982 
1237 1 21.4075 6.95792 7.44648 5.99751 -214109 -94162.9 -47099.9 117453 -3705.17 -21459.1 -7.41337 
1238 1 22.0913 5.716 7.44823 5.98187 -209942 -96320.2 41372.8 110177 20914.8 -36481.1 -7.41882 
1239 1 21.3604 4.50002 7.44416 5.99352 -197173 -113252 -32135.3 129298 -9346.89 -24607.8 -7.41414 
1240 1 22.0445 3.25841 7.44624 5.97731 -191118 -118437 24677 118412 19573.6 -34844 -7.41772 
1241 1 21.3123 2.04318 7.44283 5.98485 -178508 -132552 -15034.6 134928 -14508.3 -27407.9 -7.41507 
1242 1 21.997 0.801992 7.44521 5.9714 -170168 -140956 6337.62 120718 17339.9 -32588.2 -7.41657 
1346 1 24.2825 9.37496 7.45826 5.98468 -228745 -67051.8 67038.5 103733 21894 -34742.1 -7.42089 
1347 1 23.5541 8.15742 7.45402 5.99451 -219462 -85461 -59000.9 126048 -4055.2 -18569.9 -7.41294 
1348 1 24.2385 6.91583 7.4556 5.97841 -215317 -86616.5 53127.2 121690 22485.2 -34139.3 -7.41987 
1349 1 23.5085 5.69913 7.45177 5.99099 -204753 -103463 -43906 141744 -9485.24 -21545 -7.41372 
1350 1 24.1931 4.45779 7.45358 5.97424 -199542 -107172 36126.6 133681 22039.5 -32941.3 -7.41871 
1351 1 23.4617 3.24185 7.45033 5.98211 -188154 -121678 -26077.2 151040 -14606 -24228.6 -7.4147 
1352 1 24.1467 2.00086 7.45231 5.96858 -181204 -128205 16842.2 139401 20641.9 -31159.6 -7.41747 
1353 1 23.4143 0.785574 7.44976 5.97448 -169679 -140018 -6532.22 153819 -18999.4 -26617.1 -7.41582 
1457 1 25.6996 9.35902 7.46022 5.99322 -220568 -79993.7 -70329.3 130503 -4312.05 -15449.2 -7.4125 
1458 1 26.3847 8.11783 7.46168 5.97631 -216247 -80171.3 64496.2 129274 23323.8 -30745.9 -7.42086 
1459 1 25.6556 6.90051 7.45808 5.98824 -208685 -96259.9 -55627 149865 -9472.95 -18113.8 -7.41327 
1460 1 26.3408 5.65949 7.45965 5.97105 -204070 -98522.2 47763.7 145021 23729.2 -29917.9 -7.41968 
1461 1 25.6103 4.44292 7.45657 5.98047 -195061 -112894 -37743.6 162983 -14518.9 -20546.3 -7.41425 
1462 1 26.2956 3.20216 7.45824 5.96689 -189376 -117614 28229.4 154442 23131.6 -28578.9 -7.41839 
1463 1 25.564 1.98625 7.45579 5.97181 -179345 -129606 -17507 169366 -18975.9 -22744 -7.4154 
1464 1 26.2498 0.745844 7.45752 5.96188 -171881 -136883 6902.16 157391 21535.2 -26768.5 -7.41704 
1568 1 28.5304 9.32157 7.46663 5.97555 -212600 -77445.2 75106.4 132737 23509.4 -26627.3 -7.42178 
1569 1 27.802 8.10377 7.4632 5.9867 -208351 -92439.5 -66796.7 153504 -9255.52 -14608.4 -7.41281 
1570 1 28.4877 6.86311 7.4646 5.96927 -204346 -93215.9 59075.7 152118 24707.7 -26100.5 -7.42061 
1571 1 27.758 5.64602 7.46164 5.97972 -198053 -106880 -49394.5 170338 -14188.8 -16704.3 -7.41375 
1572 1 28.4438 4.40554 7.46307 5.96476 -193740 -109759 39868.2 165296 24858.7 -25152.3 -7.4193 
1573 1 27.7129 3.18909 7.4607 5.97023 -185873 -121467 -29134.1 180478 -18708.6 -18620.6 -7.4149 
1574 1 28.399 1.94887 7.46213 5.95978 -180251 -126561 18289.5 171899 23992.7 -23792 -7.4179 
1575 1 27.6671 0.732957 7.46043 5.96315 -171341 -136064 -7051.9 183829 -22413.5 -20358.9 -7.41619 
1679 1 29.9476 9.30847 7.46733 5.98632 -203581 -92085.4 -77110.3 152851 -8808.92 -11216.8 -7.41237 
1680 1 30.6341 8.06822 7.4686 5.96882 -200192 -91528.5 69715.6 154833 25058.6 -21736.7 -7.42148 
1681 1 29.905 6.85074 7.46571 5.97859 -196933 -104236 -60580.7 173093 -13584.7 -12931.4 -7.41325 
1682 1 30.5914 5.61058 7.46696 5.96326 -193908 -105319 51276.8 171680 25907 -21127 -7.42017 
1683 1 29.861 4.39369 7.46462 5.9696 -188653 -116391 -40832.4 186963 -18150.7 -14513 -7.41435 
1684 1 30.5475 3.15369 7.46582 5.95802 -184867 -119393 30011.5 182038 25717.2 -20173.1 -7.41875 
1685 1 29.8163 1.93732 7.46412 5.96181 -178127 -128510 -18690 194033 -22046.1 -15962.6 -7.41564 
1686 1 30.5031 0.697558 7.46524 5.95459 -172792 -133598 6940.29 185758 24468.1 -18907 -7.41729 
1790 1 32.7802 9.27438 7.47182 5.96969 -191484 -93438.9 79466.2 153339 24860.6 -16992.5 -7.42227 
1791 1 32.0514 8.05663 7.46897 5.9784 -191477 -104889 -71010.5 171383 -12696.9 -9363.89 -7.41278 
1792 1 32.7385 6.81682 7.47007 5.96252 -189385 -104211 62123 173584 26364.2 -16677.1 -7.421 
1793 1 32.0086 5.59963 7.46772 5.96974 -187195 -114476 -52180 188839 -17273.5 -10584.3 -7.41381 
1794 1 32.6956 4.35989 7.46874 5.95673 -184977 -115461 41617.8 187668 26802.1 -16086.8 -7.41959 
1795 1 31.9648 3.14317 7.467 5.9614 -180939 -123957 -30504.4 199647 -21360.6 -11710.1 -7.41504 
1796 1 32.6518 1.90356 7.46791 5.9534 -177667 -126811 18763.4 195118 26183.6 -15228.7 -7.4181 
1797 1 31.9204 0.687227 7.46685 5.95549 -172144 -133289 -7020.3 203553 -24578.5 -12749.4 -7.41643 
1901 1 34.1976 9.26325 7.47154 5.9794 -181821 -109227 -80493.4 165452 -11532.4 -6076.25 -7.41234 
1902 1 34.8854 8.02384 7.47254 5.9626 -180601 -106872 72170 171105 26305.7 -11912.3 -7.42177 
1903 1 34.1558 6.80646 7.47015 5.96966 -181367 -116117 -62883.6 186174 -16065.8 -6923.87 -7.41328 
1904 1 34.8433 5.56701 7.47103 5.9562 -180736 -115092 52773.4 188749 27336 -11647.3 -7.42039 
1905 1 34.1129 4.35006 7.46921 5.96167 -179404 -122819 -42093.6 200617 -20322.8 -7707.5 -7.41445 
1906 1 34.8002 3.11065 7.46996 5.95235 -178206 -123465 30587.1 199944 27300.4 -11161.1 -7.41891 
1907 1 34.0691 1.89405 7.4688 5.95533 -175230 -129349 -18950.7 208307 -23853.1 -8430.38 -7.41579 
1908 1 34.7566 0.654735 7.46941 5.95084 -172524 -131794 6638.3 204417 26178.5 -10479.3 -7.41739 
2012 1 37.0321 9.23117 7.47444 5.96337 -167611 -112952 81236.2 164421 25789.2 -6898.06 -7.42246 
2013 1 36.3028 8.01374 7.47202 5.96989 -171359 -121067 -72724.2 179183 -14529.5 -3578.54 -7.41279 
2014 1 36.9909 6.77461 7.47278 5.95645 -171985 -118136 63223.3 185335 27391.4 -6922.34 -7.42114 
2015 1 36.2606 5.55757 7.47086 5.96171 -173579 -125056 -53152.6 197071 -18910.9 -4008.37 -7.41387 
2016 1 36.9484 4.31837 7.47149 5.95201 -174224 -123582 42078.3 200173 27903.9 -6774.85 -7.41969 
2017 1 36.2175 3.10163 7.47019 5.95578 -173960 -128822 -30782.4 208465 -22748.6 -4399.2 -7.41514 
2018 1 36.9052 1.86244 7.47066 5.95018 -173510 -128997 18629.1 208436 27335.6 -6459.08 -7.41816 
2019 1 36.1738 0.645907 7.47005 5.95152 -171712 -132177 -6656.43 212980 -25677.2 -4763.75 -7.41657 
2123 1 38.4497 9.22102 7.47337 5.97073 -157571 -129726 -81512.3 168064 -12675.9 -578.962 -7.41236 
2124 1 39.1385 7.98225 7.47403 5.95749 -159119 -124848 72742.4 177630 27022.1 -1953.3 -7.42183 
2125 1 38.4083 6.76524 7.47204 5.96222 -163554 -130842 -63430.1 189134 -17114.8 -641.917 -7.41332 
2126 1 39.0966 5.52629 7.47254 5.95248 -165784 -127244 52956.8 195904 28063.9 -2109.8 -7.42043 
2127 1 38.3658 4.30953 7.47111 5.95594 -168320 -131787 -42199.3 204074 -21229.7 -686.464 -7.41451 
2128 1 39.0537 3.07049 7.47144 5.95004 -170036 -129697 30408.7 207886 28012 -2131.58 -7.41892 
2129 1 38.3225 1.8539 7.47068 5.95208 -170832 -132282 -18663 212346 -24573.4 -717.711 -7.41588 
2130 1 39.0103 0.61481 7.47084 5.95021 -171233 -131928 6144.65 213077 26858.6 -2036.16 -7.41739 
2234 1 41.2863 9.18949 7.47478 5.9593 -142633 -135207 81091.9 165819 26267.1 3225.48 -7.42243 
2235 1 40.556 7.97262 7.47274 5.96342 -149668 -140307 -72689.2 176996 -14932.1 2365.71 -7.41283 
2236 1 41.2449 6.73396 7.47312 5.95374 -153264 -134555 62952.4 187269 27831.6 2806.22 -7.4211 
2237 1 40.514 5.51731 7.47158 5.95674 -158413 -138316 -52920 195252 -19268.8 2687.01 -7.41391 
2238 1 41.2023 4.27844 7.47179 5.95071 -162149 -133974 41672.7 202764 28273.4 2479.36 -7.41965 
2239 1 40.471 3.06192 7.47087 5.95243 -165604 -135959 -30374.9 207146 -23018.1 3006.63 -7.4152 
2240 1 41.159 1.82291 7.4709 5.94963 -168294 -133284 18112.6 211725 27609.4 2246.95 -7.41812 
2241 1 40.4275 0.606425 7.47067 5.95061 -170315 -133268 -6115.76 212324 -25819.8 3307.2 -7.41664 
2345 1 42.7039 9.17928 7.47296 5.96532 -132504 -153393 -80667.2 161004 -12368 4973.39 -7.4124 
2346 1 43.3934 7.94095 7.4732 5.95573 -137189 -145563 71766.9 174477 27246.4 7937.32 -7.4217 
2347 1 42.6624 6.72452 7.4716 5.95826 -144763 -148555 -62653.3 182190 -16846.3 5691.24 -7.41336 
2348 1 43.3511 5.48586 7.47166 5.95148 -150108 -141904 52106.1 193256 28171.5 7348.71 -7.42031 
2349 1 42.6197 4.26953 7.47062 5.9535 -156157 -143275 -41478.7 197507 -20964.7 6387.52 -7.41455 
2350 1 43.3079 3.03062 7.47051 5.94973 -161023 -138206 29669.4 205845 27967.7 6818.77 -7.41883 
2351 1 42.5763 1.81429 7.47013 5.95086 -165537 -137577 -18013.5 206341 -24270.3 7054.33 -7.41591 
2352 1 43.2641 0.575196 7.46984 5.95055 -169046 -134291 5541.3 211743 26643.6 6336.51 -7.4173 
2456 1 45.5424 9.14683 7.47272 5.95783 -118382 -159905 79045.7 157903 26346.8 13214.8 -7.42217 
2457 1 44.8111 7.93073 7.47111 5.96054 -127803 -162222 -71072.5 165215 -13951.2 8272.93 -7.41288 
2458 1 45.5004 6.69232 7.471 5.95302 -134664 -153255 61346.2 179549 27748.8 12428.3 -7.42089 
2459 1 44.7687 5.47629 7.46989 5.95532 -142773 -154031 -51633.5 183607 -18372.8 9383.7 -7.41394 
2460 1 45.4571 4.23752 7.4696 5.95068 -149662 -146575 40454.4 195484 27985.5 11646.4 -7.41947 
2461 1 44.7253 3.02145 7.46911 5.9519 -156567 -145469 -29399.4 195885 -22169.8 10447.5 -7.41521 
2462 1 45.4132 1.78239 7.46866 5.95092 -162357 -139768 17272 205029 27083.7 10878.5 -7.41798 
2463 1 44.6814 0.566196 7.46885 5.95079 -168024 -136504 -5467.62 201635 -24983.1 11438.9 -7.41663 
2567 1 46.9602 9.13553 7.47005 5.96365 -108584 -179214 -77790.3 144762 -10583.2 10344 -7.41247 
2568 1 47.6501 7.89741 7.46973 5.9556 -116524 -167921 68964.5 162030 27050.7 17620.8 -7.42135 
2569 1 46.918 6.68177 7.46861 5.95797 -126413 -168268 -60439.8 165785 -15213.3 11922.3 -7.41341 
2570 1 47.6068 5.44317 7.4681 5.95261 -134964 -158341 50040.1 180932 27712.1 16657.5 -7.42003 
2571 1 46.8746 4.22748 7.46754 5.95393 -143807 -156766 -39879.3 181181 -19457.5 13425.6 -7.41456 
2572 1 47.5627 2.98848 7.46688 5.9522 -151671 -148555 28298.1 193880 27201.7 15652.7 -7.41859 
2573 1 46.8305 1.77263 7.46698 5.95212 -159597 -144915 -17014 190411 -22855.2 14840.3 -7.41589 
2574 1 47.518 0.533308 7.46617 5.95441 -166043 -138716 4862.84 200305 25545.4 14605.6 -7.41713 
2679 1 49.0679 7.88558 7.46669 5.96152 -107655 -185266 -67436.2 144478 -11474 13891.3 -7.41294 
2681 1 49.0245 5.43196 7.46534 5.95706 -128001 -171187 -48985.1 162591 -16085.6 15888.2 -7.41396 
2683 1 48.9801 2.97765 7.46447 5.95449 -147398 -156510 -27706.5 174894 -20049.2 17769.7 -7.41518 
2685 1 48.9353 0.522632 7.46416 5.95455 -164973 -141580 -4726.67 181044 -23009.3 19497.8 -7.41655 
2678 1 49.8003 9.10076 7.46777 5.95934 -97098.5 -185319 74473 141232 26140.5 22752 -7.42165 
2680 1 49.7571 6.64719 7.46591 5.95566 -117773 -172847 57922.3 162504 27202.1 21712.4 -7.42045 
2682 1 49.7127 4.19306 7.4644 5.95453 -137930 -160468 38128.9 178459 27052.8 20548.4 -7.41911 
2684 1 49.6676 1.73832 7.46341 5.95602 -156096 -147782 16023 188269 25728.3 19281.8 -7.4177 
2789 1 51.2183 9.08738 7.46411 5.96563 -88051.2 -204631 -72112.9 120450 -7162.66 15143.4 -7.41259 
2790 1 51.9081 7.84924 7.46297 5.96 -99732.8 -189724 63544.4 140835 26529 26578 -7.42071 
2791 1 51.1749 6.63451 7.46243 5.96061 -110146 -187982 -56176.1 140551 -12031.7 17692.7 -7.41346 
2792 1 51.8635 5.39574 7.46114 5.95808 -121970 -174654 46187.6 159165 26701.1 25368.7 -7.41949 
2793 1 51.1303 4.18085 7.46121 5.95787 -132465 -170884 -37005.2 155548 -16502.9 20089 -7.41454 
2794 1 51.8179 2.94154 7.45981 5.95879 -143259 -159605 26004.4 171975 25662.7 23968.4 -7.41817 
2795 1 51.085 1.72637 7.46056 5.9573 -153467 -153330 -15524.6 164775 -20119.2 22306.4 -7.41578 
2796 1 51.7718 0.486588 7.45909 5.96213 -162521 -144348 4127.57 178620 23458.2 22391.8 -7.41681 
2900 1 54.0596 9.04902 7.45931 5.96573 -81955.9 -207656 66355.9 116692 25791 30925.9 -7.42076 
2901 1 53.326 7.83482 7.4588 5.96439 -91811.6 -206444 -60882.2 115959 -7308.83 18667.9 -7.41307 
2902 1 54.0149 6.59622 7.45705 5.96303 -105382 -190564 51854.9 136681 26228.6 29809.6 -7.4197 
2903 1 53.2812 5.38187 7.45713 5.96101 -115780 -187212 -44301.7 132952 -12191.1 21618.5 -7.41398 
2904 1 53.9689 4.14262 7.45529 5.96286 -128623 -173339 34160.3 151859 25419.6 28395.4 -7.4185 
2905 1 53.2354 2.92801 7.45607 5.96003 -139439 -167518 -24924.4 144776 -16429.1 24357.5 -7.41508 
2906 1 53.9222 1.68819 7.4542 5.96528 -150636 -156113 14191.8 161418 23418.1 26714.8 -7.41723 
2907 1 53.1892 0.473188 7.45571 5.9615 -161551 -147560 -3871.61 150917 -19690 26829.4 -7.41633 
3011 1 55.4777 9.03264 7.45454 5.96946 -74103.8 -225118 -62586.3 89762.6 -1977.12 18648.8 -7.41282 
3012 1 56.1669 7.79423 7.45223 5.96945 -89771.5 -206677 54564.9 111953 25732.5 33480.9 -7.41969 
3013 1 55.4327 6.58043 7.45228 5.96545 -98797.1 -204329 -48982.2 108019 -7142.47 22165.5 -7.41354 
3014 1 56.1207 5.34126 7.44989 5.96838 -113777 -187904 39828.8 128715 25083.9 32185.7 -7.41864 
3015 1 55.3866 4.12724 7.45067 5.96376 -123923 -182943 -32259.4 121745 -11924.4 25431.7 -7.41447 
3016 1 56.0733 2.88739 7.44828 5.96981 -137233 -169019 22398.7 140568 23217.5 30524.6 -7.4175 
3017 1 55.3397 1.67302 7.44984 5.96451 -148331 -161259 -13317.8 130440 -15892.9 28408.7 -7.41557 
3018 1 56.0255 0.432594 7.44753 5.97378 -159189 -150191 3344.73 146904 20207.5 28527.1 -7.41632 
3122 1 58.3195 8.98966 7.44695 5.97733 -76979.4 -221730 53916.8 86117.9 25303.7 35979 -7.41946 
3123 1 57.5849 7.77635 7.44684 5.97128 -83220 -220901 -50544.4 81912.9 -1457.06 21577.8 -7.41326 
3124 1 58.273 6.53728 7.44381 5.97537 -100353 -201925 42455.3 103678 24746.7 34905.8 -7.41857 
3125 1 57.5384 5.32381 7.44447 5.9689 -108690 -198517 -36903.5 96879.4 -6666.55 25326.2 -7.41399 
3126 1 58.2253 4.08398 7.44147 5.97579 -124081 -182221 28060.9 117038 22941.6 33382.7 -7.41758 
3127 1 57.4909 2.87022 7.44298 5.96889 -134140 -175838 -20674.6 107386 -11282.3 28763.6 -7.4149 
3128 1 58.1767 1.62972 7.44013 5.9786 -146949 -162531 11587 125598 19992.4 31449 -7.41653 
3129 1 57.4429 0.415519 7.44251 5.97129 -158427 -153037 -2896.18 113103 -15021.2 31830.7 -7.41593 
3233 1 59.7376 8.96959 7.44117 5.97852 -70594.7 -235305 -48700.2 55909.5 4690.35 19819.2 -7.41316 
3234 1 60.426 7.73062 7.43741 5.98371 -90089.5 -213861 41735.1 78053.4 24472.6 36185.2 -7.41829 
3235 1 59.6909 6.51764 7.43779 5.97548 -95125.1 -212613 -38411.1 71448.5 -810.729 23934.4 -7.41366 
3236 1 60.3778 5.27782 7.4341 5.98313 -112755 -193979 30680.5 92189.6 22668.5 34863.2 -7.41746 
3237 1 59.6429 4.06462 7.4354 5.97468 -120413 -189586 -25335.4 83077.4 -5972.28 27716.1 -7.41435 
3238 1 60.3286 2.82407 7.43193 5.98477 -135158 -174167 17275.4 102162 19721.6 33091.9 -7.41656 
3239 1 59.5942 1.61051 7.43419 5.97623 -145232 -166543 -10305.2 90571.1 -10424.3 31140 -7.41519 
3240 1 60.2789 0.369322 7.43106 5.9886 -156568 -154682 2448.58 107598 15757.2 30914.3 -7.41566 
3344 1 62.5792 8.92139 7.43123 5.99309 -84504.7 -222416 37684.8 53072 24262.9 35853.9 -7.41782 
3345 1 61.8439 7.70876 7.43112 5.98334 -84949 -223883 -36622.3 46770.8 5401.67 21327.2 -7.41352 
3346 1 62.5309 6.46897 7.42672 5.99158 -104989 -202948 30086.1 67468.9 22438.6 34702 -7.41715 
3347 1 61.7956 5.25623 7.42758 5.98184 -108863 -201240 -26945.5 59043.1 -181.302 25261.9 -7.41398 
3348 1 62.4813 4.01563 7.42346 5.9921 -125770 -183882 20006.9 78184.1 19458.5 33112.6 -7.41641 
3349 1 61.7462 2.80264 7.42537 5.98251 -132876 -178738 -15073.5 67597.7 -5250.12 28851.4 -7.41459 
3350 1 62.4308 1.56136 7.4217 5.99459 -145929 -165173 8202.6 85007.6 15514 31145.9 -7.41565 
3351 1 61.6963 0.347972 7.42466 5.98533 -156099 -156385 -1893.35 72286.8 -9595.19 32089.4 -7.41532 
3455 1 63.9972 8.89742 7.42504 5.99224 -79310.2 -231025 -31704.6 24048.6 11673.1 17789.3 -7.41357 
3456 1 64.6843 7.65764 7.41995 6.0007 -101535 -208105 26475.9 44087.4 22229.1 32916.6 -7.4167 
3457 1 63.9487 6.44522 7.42014 5.99006 -100945 -209551 -25492.9 36587.9 5790.91 21639.7 -7.41379 
3458 1 64.6344 5.20458 7.41541 6.00019 -119778 -190326 19770.8 55209.9 19217 31436 -7.4161 
3459 1 63.8989 3.99203 7.4167 5.98996 -123083 -188272 -16956.2 45831.4 222.191 25141.6 -7.41417 
3460 1 64.5834 2.75067 7.41253 6.00144 -137790 -173224 11161.6 62824.7 15298.3 29657.8 -7.41549 
3461 1 63.8483 1.53784 7.41495 5.99179 -144799 -167341 -6826.21 51595.6 -4738.23 28362.7 -7.41468 
3462 1 64.5319 0.295882 7.41147 6.00438 -155074 -156578 1414.13 66802.7 10627.8 27652.1 -7.41491 
3566 1 66.8377 8.84418 7.41439 6.0083 -102518 -208699 20351.2 22735 21979.8 29792.8 -7.41615 
3567 1 66.1022 7.63191 7.41373 5.99898 -97221.8 -213797 -21304.2 16673.1 11623.5 17309.3 -7.41378 
3568 1 66.7878 6.39123 7.40848 6.00853 -118013 -192978 16925.3 34331.1 18969.7 28308 -7.41569 
3569 1 66.0521 5.17896 7.40891 5.99811 -116724 -194328 -16079.5 26407.6 5657.87 20474 -7.41393 
3570 1 66.7365 3.93753 7.40433 6.00866 -133179 -177896 11469.8 42483.2 15093.1 26620.9 -7.41521 
3571 1 66.001 2.72511 7.40594 5.99903 -136102 -175365 -9067.5 32905.6 206.058 23393.7 -7.41422 
3572 1 66.6844 1.48307 7.40217 6.01025 -147665 -163547 4642.38 47325.2 10604.7 24850.3 -7.41476 
3573 1 65.9493 0.27037 7.40497 6.00159 -154920 -157044 -1007.47 36281.5 -4614.42 26195.6 -7.41462 
3677 1 68.2556 8.81677 7.40889 6.00743 -97690.3 -213768 -14965.8 -521.9 17058.8 12818.1 -7.41395 
3679 1 68.2055 6.36387 7.40266 6.0065 -114425 -196591 -12890.9 9995.52 10760 15481.1 -7.41387 
3680 1 68.8899 5.12237 7.39777 6.01574 -132186 -179011 9593.77 24819.8 14871.4 22495.3 -7.41488 
3681 1 68.1541 3.9102 7.39837 6.00657 -130952 -180078 -8863.87 17215.9 4901.04 17879.6 -7.41395 
3682 1 68.8375 2.66809 7.39441 6.01617 -143693 -167290 5549.37 30406.6 10578 20852.1 -7.41453 
3683 1 68.102 1.45577 7.39622 6.00812 -146898 -164321 -3544.04 21422 -298.288 20235.4 -7.41416 
3684 1 68.7846 0.2132 7.39325 6.01615 -154652 -156305 585.74 33003.3 5905.88 19357.1 -7.41423 
3678 1 68.9412 7.57603 7.40322 6.015 -120044 -191582 12073 15971 18697 24177.8 -7.41524 
3788 1 71.0943 8.75948 7.39997 6.01061 -125239 -186528 5931.26 -93.2211 18455.8 19468.7 -7.4148 
3789 1 70.3589 7.54728 7.39837 6.01265 -115687 -195338 -8044.09 -3556.1 15367.9 10744 -7.41397 
3790 1 71.0432 6.3057 7.39327 6.01915 -134443 -176706 6165.82 9967.39 14673.8 17813.3 -7.41454 
3791 1 70.3075 5.09361 7.39278 6.01375 -129193 -181390 -6747.33 4725.89 9114.62 12555.4 -7.41385 
3792 1 70.9908 3.85144 7.38872 6.02147 -142972 -167801 4651.17 16454.3 10523.4 16255 -7.41428 
3793 1 70.255 2.63933 7.38941 6.0145 -142165 -168367 -3932.2 9736.29 3596.49 14306.6 -7.41388 
3794 1 70.9376 1.39671 7.38643 6.02042 -150778 -159625 1969.97 19904.2 6234.98 14958.4 -7.41405 
3795 1 70.2021 0.184467 7.38831 6.01623 -154658 -156080 -274.446 11987.6 -1200.12 16257.5 -7.41403 
3899 1 72.5121 8.72969 7.39622 6.01445 -119990 -191041 -2289.91 -14751.4 19510.8 6588.52 -7.41418 
3900 1 73.1963 7.48803 7.39098 6.01546 -139418 -171609 1870.54 -2602.13 14650.7 12919.6 -7.41424 
3901 1 72.4608 6.27588 7.38941 6.01757 -130513 -179900 -3404.5 -5028.69 12822.8 7914.86 -7.4139 
3902 1 73.144 5.03363 7.38529 6.02248 -145009 -165486 2565.14 5257.84 10548.4 11545.4 -7.41405 
3903 1 72.4083 3.82159 7.38486 6.01944 -140540 -169552 -2770.87 1185 6929.37 9100.6 -7.41377 
3904 1 73.0908 2.57892 7.3819 6.02448 -149994 -160131 1858.76 9748.39 6501.14 10449.7 -7.41389 
3905 1 72.3551 1.36687 7.38262 6.02109 -149979 -160053 -1037.94 4354.49 1970.38 10443.4 -7.41378 
3906 1 73.0371 0.123909 7.38077 6.02343 -154627 -155284 335.563 11460.5 2446.19 9727 -7.41377 
4010 1 75.349 8.66983 7.39095 6.01298 -146867 -163996 -2599.66 -13595 15006.2 7840.38 -7.41401 
4011 1 74.6139 7.45748 7.38832 6.01865 -134469 -176027 435.631 -12787.1 16215.6 4059.77 -7.41405 
4012 1 75.2971 6.21517 7.38414 6.0201 -149376 -160847 -66.5298 -3919.41 10889.3 6867.53 -7.41388 
4013 1 74.5616 5.00306 7.38262 6.02175 -141530 -168381 -761.908 -4985.04 9820.04 4879.47 -7.41379 
4014 1 75.2441 3.76034 7.37967 6.02542 -151647 -158177 845.429 2006.67 6880.15 6126.31 -7.41376 
4015 1 74.5083 2.54834 7.37929 6.02426 -148186 -161391 -592.623 -622.797 4553.79 5734.6 -7.41368 
4016 1 75.1903 1.30535 7.37748 6.02703 -153595 -155887 678.874 4790.1 3134.43 5700.37 -7.41367 
4017 1 74.4546 0.0933397 7.3782 6.02567 -154623 -154991 262.209 953.809 249.361 6865.87 -7.41368 
4104 1 76.7666 8.63885 7.38948 6.01954 -140991 -169807 4066.25 -19274.8 19563.4 787.291 -7.41427 
4105 1 77.4498 7.39648 7.38525 6.01872 -156156 -153987 -2587.99 -11839.7 11788 2002.15 -7.4138 
4106 1 76.7147 6.18417 7.38264 6.02282 -144878 -165148 1391.64 -9584.75 12588.8 1451.54 -7.41389 
4107 1 77.3971 4.94141 7.37966 6.02376 -155496 -154138 -449.341 -4119.07 7679.23 1838.45 -7.4137 
4108 1 76.6616 3.72933 7.3782 6.02553 -148817 -160730 356.563 -3658.89 6787.7 2057.17 -7.41368 
4109 1 77.3436 2.48632 7.37641 6.02763 -154933 -154361 368.572 75.0013 3938.08 1888.81 -7.41362 
4110 1 76.6078 1.27434 7.37606 6.02769 -152630 -156630 290.762 -915.58 2245.04 2768.06 -7.4136 
4111 1 77.2896 0.0311951 7.37536 6.02905 -154572 -154623 434.196 1414.25 392.996 2115.96 -7.41358 
4112 1 78.707 -7.06812e-07 7.37501 6.03041 -154578 -154583 450.022 1.25485 0.0152806 -0.0357483 -7.41357 
117 1 1.07969 18.4015 7.43055 5.99166 -180684 -129102 -37009.5 -87466.4 20774.2 -3517.44 -7.41345 
118 1 0.350606 17.1859 7.42558 5.9988 -150137 -158616 31837.6 -77296.8 41676.3 -3264.42 -7.41725 
119 1 1.03776 15.9454 7.41948 5.99748 -178072 -132900 -25892.7 -68899.4 21072.5 -3700.64 -7.41371 
120 1 0.307104 14.7307 7.41409 6.00634 -150184 -160538 21390.6 -58509.4 37006.7 -3095.66 -7.41618 
121 1 0.992758 13.4894 7.40819 6.00442 -174353 -136867 -16488.9 -49949.7 19845.3 -3797.09 -7.41385 
122 1 0.260614 12.2755 7.40288 6.01364 -150127 -161224 12927.6 -40407.8 30515.3 -2683.74 -7.41526 
123 1 0.944935 11.0336 7.39761 6.01135 -170071 -140829 -9274.63 -32746.7 17112.7 -3725.2 -7.41388 
124 1 0.211496 9.82041 7.39289 6.01996 -150242 -160830 6822.8 -24868.2 23013 -2140.65 -7.41455 
229 1 2.49732 18.3711 7.43162 5.99808 -173726 -134894 35175.6 -84979 42800 -3630.06 -7.41773 
230 1 3.18437 17.1303 7.42611 6.00134 -200905 -110348 -27958.3 -78536.3 20579.2 -10725.2 -7.41379 
231 1 2.45536 15.9147 7.42049 6.005 -170440 -140462 24238.8 -65987.4 39203.9 -4401.64 -7.41663 
232 1 3.14102 14.6732 7.41503 6.00608 -194239 -117441 -18001.9 -59199.6 20283 -10757.9 -7.41398 