ITEM: TIMESTEP
0
ITEM: NUMBER OF ATOMS
8216
ITEM: BOX BOUNDS pp pp pp
0.0000000000000000e+00 7.8707041300000000e+01
0.0000000000000000e+00 1.3632459399999999e+02
0.0000000000000000e+00 1.8399999999999999e+01
ITEM: ATOMS id type x y z c_csym c_2[1] c_2[2] c_2[3] c_2[4] c_2[5] c_2[6] c_3 
125 1 0.843016 8.58389 7.5 6.03194 -149414 -130944 -149877 -616.305 21006.9 -4092.11 -7.41095 
126 1 0.114957 7.3671 7.5 6.03193 -134484 -143821 -147520 287.451 22712.5 -882.589 -7.41111 
127 1 0.804697 6.12819 7.5 6.03194 -144850 -132314 -153576 -614.027 14953.8 -3452.15 -7.41079 
128 1 0.0766378 4.9114 7.5 6.03193 -134343 -141426 -153922 196.323 14102.7 -665.469 -7.41079 
129 1 0.766378 3.67249 7.5 6.03194 -141008 -133960 -156416 -615.343 8960.55 -2759.97 -7.41066 
130 1 0.0383189 2.4557 7.5 6.03193 -135127 -139072 -157338 99.5283 6586.17 -374.593 -7.41062 
131 1 0.728059 1.21679 7.5 6.03193 -137996 -135861 -158042 -610.039 2982.11 -2099.21 -7.41058 
237 1 2.26082 8.56177 7.5 6.03194 -135081 -145274 -143056 3055.65 26833.1 -5427.33 -7.41133 
238 1 2.95056 7.32286 7.5 6.03194 -146984 -132243 -149562 -1553.17 18294.1 -11045.1 -7.41098 
239 1 2.2225 6.10607 7.5 6.03194 -134494 -142887 -150934 2766.48 17725.9 -5457.4 -7.41093 
240 1 2.91224 4.86716 7.5 6.03194 -142808 -133742 -153264 -1845.61 12193.2 -9708.65 -7.41081 
241 1 2.18418 3.65037 7.5 6.03194 -134820 -140490 -155563 2421.88 9656.15 -5457.07 -7.4107 
242 1 2.87392 2.41145 7.5 6.03194 -139412 -135517 -155913 -2151.94 6114.48 -8411.89 -7.41069 
243 1 2.14586 1.19467 7.5 6.03193 -136050 -138167 -157507 2035.77 2642.43 -5465.77 -7.41061 
348 1 5.09642 8.51752 7.5 6.03194 -149223 -132925 -142218 -2150.91 22140.2 -19294.7 -7.41136 
349 1 4.36836 7.30073 7.5 6.03194 -134996 -145023 -146956 5532.07 21445 -10196.4 -7.41112 
350 1 5.0581 6.06182 7.5 6.03194 -144822 -134257 -147087 -2719.03 16066.4 -17456.2 -7.41112 
351 1 4.33004 4.84503 7.5 6.03194 -134886 -142605 -152596 4984.32 12798.5 -10504.2 -7.41084 
352 1 5.01978 3.60612 7.5 6.03194 -141111 -135882 -151080 -3331.29 9865.85 -15571.3 -7.41093 
353 1 4.29172 2.38933 7.5 6.03194 -135664 -140228 -155260 4350.59 5198.96 -10842.7 -7.41071 
354 1 4.98146 1.15042 7.5 6.03193 -138196 -137774 -153798 -3946.96 3551.06 -13834.5 -7.41079 
458 1 7.24227 9.71219 7.5 6.03194 -151435 -134332 -131140 -2393.32 26132 -27908.5 -7.41193 
459 1 6.51421 8.4954 7.5 6.03194 -135810 -147733 -142367 8407.52 25127.9 -14800 -7.41133 
460 1 7.20396 7.25649 7.5 6.03194 -146950 -135487 -137376 -3202.99 20370.3 -25854.7 -7.41162 
461 1 6.4759 6.0397 7.5 6.03194 -135320 -145348 -148797 7727.23 16035.6 -15557.2 -7.41101 
462 1 7.16564 4.80078 7.5 6.03194 -143027 -136944 -142978 -4108.04 14193.4 -23578.9 -7.41134 
463 1 6.43758 3.584 7.5 6.03194 -135672 -142938 -151988 6882.79 7823.65 -16280.8 -7.41086 
464 1 7.12732 2.34508 7.5 6.03194 -139824 -138700 -147503 -5057.73 7794.8 -21326.8 -7.41111 
465 1 6.39926 1.1283 7.5 6.03193 -136863 -140602 -152472 5921.94 559.402 -17092.2 -7.41084 
569 1 8.66007 9.69006 7.5 6.03194 -136824 -150809 -137570 11255.1 28470.5 -18930.1 -7.41155 
570 1 9.34981 8.45115 7.5 6.03194 -149071 -137363 -123818 -3293.03 24705.2 -34432.6 -7.41233 
571 1 8.62175 7.23436 7.5 6.03194 -136048 -148552 -144526 10543.7 19201.6 -20367.9 -7.4112 
572 1 9.3115 5.99545 7.5 6.03194 -145068 -138647 -131169 -4454.07 18844.4 -32091.3 -7.41195 
573 1 8.58344 4.77866 7.5 6.03194 -136040 -146187 -148033 9564.13 10506.8 -21640.2 -7.41103 
574 1 9.27318 3.53975 7.5 6.03194 -141669 -140238 -137711 -5716.3 12524.1 -29558.5 -7.41161 
575 1 8.54512 2.32296 7.5 6.03194 -136819 -143837 -148553 8391.02 2653.39 -22896 -7.41102 
576 1 9.23486 1.08405 7.5 6.03193 -138974 -142104 -142952 -6998.23 5848.7 -27073.8 -7.41133 
680 1 11.4957 9.64582 7.5 6.03194 -151044 -139743 -106404 -3029.69 28569.2 -42481.1 -7.41324 
681 1 10.7676 8.42903 7.5 6.03194 -136947 -151937 -140188 13268.3 21981.1 -24463.8 -7.41139 
682 1 11.4574 7.19012 7.5 6.03194 -147119 -140870 -115469 -4378.03 23401.5 -40460.6 -7.41277 
683 1 10.7293 5.97333 7.5 6.03194 -136680 -149741 -143768 12264.3 13063.8 -26505 -7.41122 
684 1 11.419 4.73441 7.5 6.03194 -143651 -142295 -124097 -5908.04 17454.5 -37987.5 -7.41232 
685 1 10.691 3.51763 7.5 6.03194 -137122 -147467 -144126 10956.9 4754.88 -28369.2 -7.41122 
686 1 11.3807 2.27871 7.5 6.03194 -140779 -144010 -131733 -7523.13 10971.8 -35309.3 -7.41191 
687 1 10.6527 1.06192 7.5 6.03193 -138276 -145226 -141765 9427.87 -2796.26 -30183.6 -7.41136 
791 1 12.9135 9.62369 7.5 6.03194 -137862 -155123 -136241 15684.5 24003.3 -27305.3 -7.41156 
792 1 13.6032 8.38478 7.5 6.03194 -149048 -143415 -96041.7 -3937.91 27382 -47878.2 -7.4138 
793 1 12.8752 7.16799 7.5 6.03194 -137460 -153260 -139619 14793.3 15192.4 -30309.5 -7.4114 
794 1 13.5649 5.92908 7.5 6.03194 -145660 -144697 -106640 -5655.37 22169.9 -45833.2 -7.41324 
795 1 12.8368 4.71229 7.5 6.03194 -137677 -151207 -139603 13473.5 6674.8 -32968.4 -7.41142 
796 1 13.5266 3.47338 7.5 6.03194 -142727 -146251 -116663 -7540.54 16168.7 -43299.2 -7.4127 
797 1 12.7985 2.25659 7.5 6.03194 -138523 -149094 -136630 11824.8 -1239.44 -35394 -7.4116 
798 1 13.4883 1.01768 7.5 6.03193 -140333 -148031 -125505 -9459.54 9558.87 -40486.7 -7.41221 
902 1 15.7491 9.57945 7.5 6.03194 -150713 -146023 -73431.4 -3236.97 30352.9 -53569.7 -7.415 
903 1 15.021 8.36266 7.5 6.03194 -138218 -156325 -136057 16919.4 16574.4 -32523.3 -7.41156 
904 1 15.7108 7.12375 7.5 6.03194 -147569 -147202 -85690.4 -5033.67 26225 -52259.8 -7.41435 
905 1 14.9827 5.90696 7.5 6.03194 -138338 -154668 -135450 15732.5 8144.08 -36104 -7.41161 
906 1 15.6724 4.66804 7.5 6.03194 -144718 -148620 -97899.8 -7095.55 21037.2 -50206.4 -7.41369 
907 1 14.9444 3.45126 7.5 6.03194 -138997 -152829 -131694 14091.9 92.0248 -39280.7 -7.41183 
908 1 15.6341 2.21234 7.5 6.03194 -142267 -150248 -109397 -9279.09 15050.3 -47586.5 -7.41306 
909 1 14.9061 0.995554 7.5 6.03193 -140182 -150918 -125291 12106.2 -7358.34 -42118.7 -7.41219 
1013 1 17.1669 9.55732 7.5 6.03194 -138795 -158524 -133533 18410.4 16983.2 -32827.8 -7.41167 
1014 1 17.8566 8.31841 7.5 6.03194 -149243 -149532 -61961.8 -4160.28 29251.3 -56573.3 -7.41562 
1015 1 17.1286 7.10162 7.5 6.03194 -138940 -157431 -132150 17498.6 8915.22 -37329.9 -7.41175 
1016 1 17.8183 5.86271 7.5 6.03194 -146629 -150856 -75971.8 -6279.17 25179.8 -55253.5 -7.41486 
1017 1 17.0902 4.64592 7.5 6.03194 -139545 -156039 -127465 16019.9 975.107 -41314.6 -7.41202 
1018 1 17.78 3.40701 7.5 6.03194 -144252 -152349 -89841.2 -8613.45 20103.7 -53125.9 -7.4141 
1019 1 17.0519 2.19022 7.5 6.03194 -140586 -154456 -119934 14081.1 -6502.47 -44805 -7.41245 
1020 1 17.7417 0.951308 7.5 6.03193 -142174 -153939 -102863 -10982.6 14228.6 -50330 -7.41338 
1125 1 19.2744 8.29629 7.5 6.03194 -139326 -159130 -130120 18556.1 8853.86 -36486.3 -7.41185 
1127 1 19.2361 5.84059 7.5 6.03194 -139997 -158337 -124425 17381 1240.08 -41202.9 -7.41216 
1129 1 19.1978 3.38489 7.5 6.03194 -141029 -157231 -115701 15640.2 -6073.91 -45340.2 -7.41265 
1131 1 19.1595 0.929184 7.5 6.03193 -142366 -155897 -104514 13449.1 -12825.5 -48880.5 -7.41327 
1124 1 20.0025 9.51308 7.5 6.03194 -150560 -151420 -36456.6 -3174.92 31029.8 -58366 -7.41699 
1126 1 19.9642 7.05738 7.5 6.03194 -148328 -152696 -51731.7 -5220.21 28294.7 -57896.6 -7.41616 
1128 1 19.9258 4.60167 7.5 6.03194 -146174 -154096 -67516.1 -7576.99 24372.9 -56464.8 -7.4153 
1130 1 19.8875 2.14597 7.5 6.03194 -144157 -155557 -83067.6 -10065.5 19499.6 -54158.7 -7.41444 
1235 1 21.4203 9.49095 7.5 6.03194 -139382 -159539 -129629 18757.2 7987.24 -33746.8 -7.41187 
1236 1 22.11 8.25204 7.5 6.03194 -149700 -153928 -26255.4 -4063.58 30227.4 -57920.1 -7.41754 
1237 1 21.382 7.03525 7.5 6.03194 -140199 -159438 -122941 17985.7 841.751 -38979.9 -7.41223 
1238 1 22.0717 5.79634 7.5 6.03194 -147906 -155277 -43366.1 -6309.01 27619.2 -57255.8 -7.4166 
1239 1 21.3436 4.57955 7.5 6.03194 -141342 -158936 -113050 16582.1 -6166.24 -43631.2 -7.41278 
1240 1 22.0334 3.34064 7.5 6.03194 -146086 -156643 -60924.3 -8775.73 23924.8 -55602 -7.41564 
1241 1 21.3053 2.12385 7.5 6.03194 -142721 -158097 -100488 14638.6 -12699.2 -47643.4 -7.41347 
1242 1 21.9951 0.884937 7.5 6.03193 -144269 -157927 -78139.2 -11257.3 19321.6 -53033.7 -7.41469 
1346 1 24.2559 9.44671 7.5 6.03194 -150654 -154437 -705.416 -2942.52 30972.9 -55432.8 -7.41893 
1347 1 23.5278 8.22992 7.5 6.03194 -140051 -159233 -123192 17728.7 -117.362 -34993.9 -7.41222 
1348 1 24.2176 6.991 7.5 6.03194 -149333 -155765 -18487.9 -4957.04 29741.9 -55481.2 -7.41795 
1349 1 23.4895 5.77422 7.5 6.03194 -141376 -159396 -112274 16750.5 -6746.39 -39911.9 -7.41282 
1350 1 24.1792 4.5353 7.5 6.03194 -147844 -157077 -37419.1 -7269.88 27322.3 -54521.4 -7.41691 
1351 1 23.4512 3.31851 7.5 6.03194 -142911 -159138 -98461.2 15177.6 -12995.6 -44227.3 -7.41357 
1352 1 24.1409 2.0796 7.5 6.03194 -146195 -158280 -56707.3 -9691.53 23893.2 -52582.2 -7.41585 
1353 1 23.4129 0.862814 7.5 6.03193 -144527 -158500 -82423.5 13108.7 -18597.1 -47868 -7.41445 
1457 1 25.6737 9.42458 7.5 6.03194 -139525 -157814 -125124 16611.6 -1416.17 -29804.6 -7.41214 
1458 1 26.3634 8.18567 7.5 6.03194 -150367 -155543 6002.95 -3654.26 30766.6 -51399.8 -7.41929 
1459 1 25.6354 6.96888 7.5 6.03194 -141043 -158627 -113446 16080.7 -7654.68 -34676.3 -7.41276 
1460 1 26.3251 5.72997 7.5 6.03194 -149317 -156830 -13621.1 -5698.62 29635.5 -51071.7 -7.41821 
1461 1 25.597 4.51318 7.5 6.03194 -142799 -158981 -98631.9 14952.8 -13617.7 -39040 -7.41356 
1462 1 26.2868 3.27427 7.5 6.03194 -147962 -157984 -34313.2 -7926.17 27418.5 -49783.9 -7.41708 
1463 1 25.5587 2.05748 7.5 6.03194 -144620 -158893 -81321.8 13292.2 -18974.6 -42806.1 -7.4145 
1464 1 26.2485 0.818567 7.5 6.03193 -146303 -158890 -55215.9 -10136.6 24233.9 -47578.2 -7.41593 
1568 1 28.5093 9.38034 7.5 6.03194 -150963 -154710 29089.9 -2501.25 30804.9 -45435.5 -7.42056 
1569 1 27.7812 8.16355 7.5 6.03194 -140331 -156828 -116403 14613.7 -8648.82 -28546.4 -7.41262 
1570 1 28.471 6.92463 7.5 6.03194 -150417 -155983 9434.73 -4194.33 30911.5 -45612.5 -7.41948 
1571 1 27.7429 5.70785 7.5 6.03194 -142308 -157759 -100956 13937.3 -14366.2 -32670.5 -7.41345 
1572 1 28.4326 4.46893 7.5 6.03194 -149466 -157120 -11963.8 -6120.74 29877.6 -44915.8 -7.4183 
1573 1 27.7046 3.25214 7.5 6.03194 -144390 -158217 -82707.6 12735.4 -19539.9 -36315.9 -7.41444 
1574 1 28.3943 2.01323 7.5 6.03194 -148066 -158008 -34283 -8114.07 27817.7 -43355.5 -7.41708 
1575 1 27.6663 0.796444 7.5 6.03193 -146363 -158201 -62451.4 11075.6 -23911.8 -39404 -7.41554 
1679 1 29.9271 9.35821 7.5 6.03194 -139308 -154345 -120786 12485.1 -9470.05 -22126.8 -7.41242 
1680 1 30.6168 8.1193 7.5 6.03194 -151096 -154713 30840.4 -2857.54 31261.6 -38589.4 -7.42066 
1681 1 29.8887 6.90251 7.5 6.03194 -141440 -155758 -105164 12200.3 -14992.6 -25748.3 -7.41325 
1682 1 30.5785 5.6636 7.5 6.03194 -150615 -155847 9402.48 -4407.77 31334.4 -38378.7 -7.41948 
1683 1 29.8504 4.44681 7.5 6.03194 -143774 -156713 -86420.9 11447.4 -20068.5 -29020.5 -7.41425 
1684 1 30.5402 3.2079 7.5 6.03194 -149583 -156740 -13627.7 -6078.9 30340.4 -37407.5 -7.41822 
1685 1 29.8121 1.99111 7.5 6.03194 -146052 -157186 -65302.2 10259.5 -24371.4 -31870.2 -7.41539 
1686 1 30.5019 0.752197 7.5 6.03193 -147977 -157273 -37338.5 -7711.41 28335.2 -35711.8 -7.41692 
1790 1 32.7627 9.31397 7.5 6.03194 -151354 -153250 49867.8 -1754.12 30825.3 -30432.7 -7.42172 
1791 1 32.0346 8.09718 7.5 6.03194 -140275 -153356 -110816 9888.93 -15260.7 -18818.3 -7.41297 
1792 1 32.7243 6.85826 7.5 6.03194 -151359 -154386 28980.8 -2889.4 31902.3 -30590.2 -7.42056 
1793 1 31.9963 5.64148 7.5 6.03194 -142787 -154720 -92093.8 9515.99 -20314.3 -21504.9 -7.41397 
1794 1 32.686 4.40256 7.5 6.03194 -150767 -155305 5906.04 -4169.01 31881.1 -30120 -7.4193 
1795 1 31.958 3.18577 7.5 6.03194 -145349 -155617 -70605.1 8769.24 -24666.2 -23899.4 -7.41512 
1796 1 32.6477 1.94686 7.5 6.03194 -149499 -155893 -18511.3 -5478.14 30820.1 -29035.8 -7.41796 
1797 1 31.9197 0.730073 7.5 6.03193 -147668 -156014 -47254.1 7683.03 -28068.9 -25953.5 -7.41639 
1901 1 34.1805 9.29184 7.5 6.03194 -138948 -150943 -117383 7191.04 -14993.3 -12272.1 -7.41264 
1902 1 34.8702 8.05293 7.5 6.03194 -151690 -152972 46128.5 -1635.18 31719 -21914.8 -7.42152 
1903 1 34.1421 6.83614 7.5 6.03194 -141514 -152613 -99219.1 7088.4 -20063 -14224.7 -7.41361 
1904 1 34.8319 5.59723 7.5 6.03194 -151559 -153928 23596.8 -2488.77 32559.9 -21846.9 -7.42027 
1905 1 34.1038 4.38044 7.5 6.03194 -144280 -153857 -77912.8 6706.81 -24556.2 -15993.6 -7.41475 
1906 1 34.7936 3.14153 7.5 6.03194 -150704 -154584 -867.38 -3402.19 32342.9 -21294.6 -7.41893 
1907 1 34.0655 1.92474 7.5 6.03194 -146920 -154627 -54288.7 6057.52 -28147.5 -17546.2 -7.41602 
1908 1 34.7553 0.685826 7.5 6.03193 -149090 -154831 -26313.5 -4282.63 31074.5 -20293.8 -7.41754 
2012 1 37.0161 9.24759 7.5 6.03194 -151652 -151802 60362.2 -684.622 30936.8 -12647.3 -7.42231 
2013 1 36.288 8.03081 7.5 6.03194 -140094 -150730 -107227 4337.42 -19164.3 -7478.07 -7.4132 
2014 1 36.9777 6.79189 7.5 6.03194 -151946 -152802 38856.9 -1113.11 32522.2 -12876.5 -7.42112 
2015 1 36.2497 5.57511 7.5 6.03194 -142935 -152240 -86668.3 4212.39 -23844.1 -8506.9 -7.41429 
2016 1 36.9394 4.33619 7.5 6.03194 -151534 -153545 14928.5 -1596.59 33033.6 -12763.2 -7.4198 
2017 1 36.2114 3.1194 7.5 6.03194 -145805 -153310 -63344.5 3915.14 -27725.1 -9417.9 -7.41554 
2018 1 36.9011 1.88049 7.5 6.03194 -150317 -153924 -10564.1 -2091.04 32490 -12323.7 -7.41841 
2019 1 36.1731 0.663703 7.5 6.03193 -148360 -153886 -38229.4 3452.84 -30568.9 -10207.6 -7.4169 
2123 1 38.4339 9.22547 7.5 6.03194 -138683 -149316 -115546 1428.07 -17534.8 -1437.62 -7.41276 
2124 1 39.1236 7.98656 7.5 6.03194 -151969 -152052 51224.4 -87.8031 31936.4 -3449.18 -7.4218 
2125 1 38.3955 6.76977 7.5 6.03194 -141446 -151029 -96271.3 1441.64 -22394.5 -1655.04 -7.41379 
2126 1 39.0853 5.53086 7.5 6.03194 -151968 -152895 28314 -141.086 33052.7 -3664.81 -7.42054 
2127 1 38.3572 4.31407 7.5 6.03194 -144415 -152336 -73833.9 1392.05 -26616 -1829.23 -7.41499 
2128 1 39.047 3.07516 7.5 6.03194 -151177 -153417 3350.91 -205.399 33114.9 -3688.75 -7.41917 
2129 1 38.3189 1.85837 7.5 6.03194 -147232 -153181 -49096.8 1279.76 -29880.4 -1971.38 -7.41632 
2130 1 39.0087 0.619456 7.5 6.03193 -149556 -153515 -22698.4 -267.7 32100.7 -3549.01 -7.41775 
2234 1 41.2695 9.18122 7.5 6.03194 -151721 -151710 60346.8 573.441 30995.9 6195.04 -7.42231 
2235 1 40.5414 7.96444 7.5 6.03194 -139965 -150372 -106122 -1460.49 -20128.4 4431.4 -7.41326 
2236 1 41.2311 6.72552 7.5 6.03194 -152040 -152659 38825.4 912.702 32590.5 5787.15 -7.42112 
2237 1 40.5031 5.50873 7.5 6.03194 -142879 -151868 -85136.6 -1372.55 -24690.5 5060.89 -7.41438 
2238 1 41.1928 4.26982 7.5 6.03194 -151649 -153342 14873.4 1280.81 33126.4 5424.36 -7.4198 
2239 1 40.4648 3.05303 7.5 6.03194 -145820 -152924 -61383.9 -1238.53 -28432.5 5651.98 -7.41566 
2240 1 41.1545 1.81412 7.5 6.03194 -150444 -153653 -10648.8 1641.61 32603.9 5094.68 -7.41841 
2241 1 40.4264 0.597333 7.5 6.03193 -148434 -153488 -35856.7 -1072.13 -31127.8 6163.73 -7.41704 
2345 1 42.6873 9.1591 7.5 6.03194 -138632 -150309 -115637 -4369.63 -17004 9642.37 -7.41275 
2346 1 43.377 7.92019 7.5 6.03194 -151844 -152765 46094.5 1548.34 31864.8 15335.4 -7.42151 
2347 1 42.6489 6.7034 7.5 6.03194 -141336 -151958 -96627.6 -4246.31 -21865.9 11132.6 -7.41376 
2348 1 43.3387 5.46449 7.5 6.03194 -151761 -153614 23527.6 2312.07 32737.4 14791.3 -7.42027 
2349 1 42.6106 4.2477 7.5 6.03194 -144246 -153184 -74456.6 -3967 -26096.6 12523.6 -7.41494 
2350 1 43.3004 3.00879 7.5 6.03194 -150943 -154148 -985.849 3109.36 32564.1 14135.1 -7.41893 
2351 1 42.5723 1.792 7.5 6.03194 -147016 -153936 -49982.7 -3540.69 -29393.9 13763.8 -7.41626 
2352 1 43.262 0.553086 7.5 6.03193 -149348 -154261 -26492.4 3870.95 31319.4 13351.4 -7.41754 
2456 1 45.5229 9.11485 7.5 6.03194 -151523 -153059 49855.1 1788.92 31106.1 24644.6 -7.42172 
2457 1 44.7948 7.89807 7.5 6.03194 -139919 -152555 -107683 -7107.66 -18092.1 16251.7 -7.41315 
2458 1 45.4845 6.65915 7.5 6.03194 -151606 -154066 28936.3 2873.17 32184.8 24103.6 -7.42056 
2459 1 44.7565 5.44236 7.5 6.03194 -142643 -153912 -87663.4 -6778.67 -22785.3 18500.2 -7.41422 
2460 1 45.4462 4.20345 7.5 6.03194 -151084 -154825 5808.64 4068.62 32211.5 23297.3 -7.41929 
2461 1 44.7182 2.98666 7.5 6.03194 -145409 -154802 -64875.1 -6193.91 -26710.8 20533.1 -7.41545 
2462 1 45.4079 1.74775 7.5 6.03194 -149865 -155232 -18682.1 5263.87 31194.5 22216.6 -7.41795 
2463 1 44.6798 0.530962 7.5 6.03193 -147895 -155187 -40276.2 -5392.36 -29654.4 22270.6 -7.41678 
2567 1 46.9407 9.09273 7.5 6.03194 -138735 -153546 -117671 -9842.44 -13345 20252.7 -7.4126 
2568 1 47.6304 7.85382 7.5 6.03194 -151334 -154475 30844 2994.89 31704.4 32957.9 -7.42066 
2569 1 46.9023 6.63703 7.5 6.03194 -141134 -154988 -100336 -9547.24 -18445.7 23402.2 -7.41352 
2570 1 47.5921 5.39812 7.5 6.03194 -150960 -155440 9368.1 4507.4 31793.5 32194.7 -7.41948 
2571 1 46.864 4.18133 7.5 6.03194 -143742 -155969 -79848.6 -8895.06 -22990.6 26275.9 -7.41462 
2572 1 47.5538 2.94242 7.5 6.03194 -150017 -156130 -13728.4 6102.86 30846.5 31007 -7.41821 
2573 1 46.8257 1.72563 7.5 6.03194 -146262 -156456 -57019.2 -7913.14 -26696.5 28786.4 -7.41586 
2574 1 47.5154 0.486716 7.5 6.03193 -148470 -156434 -37532.7 7641.39 28864.2 29387.9 -7.41691 
2679 1 49.0482 7.8317 7.5 6.03194 -139825 -156251 -111793 -12143.8 -13064.1 27025.3 -7.41289 
2681 1 49.0099 5.37599 7.5 6.03194 -142132 -157262 -94184.9 -11508.7 -18187.8 30756.5 -7.41383 
2683 1 48.9716 2.92029 7.5 6.03194 -144527 -157785 -73776.9 -10446 -22662.8 34067.9 -7.41494 
2685 1 48.9332 0.464592 7.5 6.03193 -146752 -157808 -51445.9 -9027.72 -26279.3 36852.4 -7.41615 
2678 1 49.7763 9.04848 7.5 6.03194 -151127 -154617 29141.3 2755.58 31491.8 40890.4 -7.42056 
2680 1 49.7379 6.59278 7.5 6.03194 -150722 -155741 9479.11 4469.41 31538 40349.1 -7.41948 
2682 1 49.6996 4.13708 7.5 6.03194 -149906 -156680 -11957.5 6374.86 30522.1 39246.4 -7.4183 
2684 1 49.6613 1.68138 7.5 6.03194 -148616 -157331 -34350.5 8302.97 28490.7 37571.4 -7.41708 
2789 1 51.1941 9.02636 7.5 6.03194 -138795 -157541 -121353 -14434.7 -6682.77 29190.8 -7.41236 
2790 1 51.8838 7.78745 7.5 6.03194 -150560 -155512 6110.12 4049.73 31610.4 47256.4 -7.4193 
2791 1 51.1557 6.57066 7.5 6.03194 -140685 -158506 -107148 -13891.5 -12313 33741.4 -7.41312 
2792 1 51.8455 5.33175 7.5 6.03194 -149686 -156637 -13507.4 6138.45 30429.2 46395.1 -7.41822 
2793 1 51.1174 4.11496 7.5 6.03194 -142813 -158994 -89770.7 -12837.3 -17526.3 37831.1 -7.41405 
2794 1 51.8072 2.87605 7.5 6.03194 -148496 -157578 -34230.9 8362.45 28220.8 44847.1 -7.41708 
2795 1 51.0791 1.65926 7.5 6.03194 -144958 -159006 -69947.5 -11327.6 -22047.4 41354.1 -7.41513 
2796 1 51.7688 0.420345 7.5 6.03193 -146966 -158227 -55208.2 10536.2 25036.9 42611.1 -7.41593 
2900 1 54.0297 8.98211 7.5 6.03194 -150668 -154621 -578.365 3381.14 32078.5 52477 -7.41893 
2901 1 53.3016 7.76532 7.5 6.03194 -139484 -159554 -118020 -15897 -5453.18 35069.3 -7.41251 
2902 1 53.9913 6.52641 7.5 6.03194 -149551 -155841 -18304 5508.6 30693.4 51943.3 -7.41796 
2903 1 53.2633 5.30962 7.5 6.03194 -141226 -159925 -104209 -14932.5 -11334.1 39842 -7.41326 
2904 1 53.953 4.07071 7.5 6.03194 -148276 -156992 -37208.8 7890.3 28231.9 50649.5 -7.41692 
2905 1 53.225 2.85392 7.5 6.03194 -143146 -159840 -87511.6 -13437.2 -16727.8 44035.5 -7.41417 
2906 1 53.9147 1.61501 7.5 6.03194 -146819 -157980 -56514.5 10328.1 24799 48589.9 -7.41586 
2907 1 53.1866 0.398222 7.5 6.03193 -145067 -159325 -68691 -11517.2 -21416.1 47543 -7.41519 
3011 1 55.4475 8.95999 7.5 6.03194 -138594 -160304 -126154 -17386 2214.56 34719.8 -7.41206 
3012 1 56.1372 7.72108 7.5 6.03194 -149692 -154247 -26064.7 4635.9 31332.3 55511.8 -7.41754 
3013 1 55.4091 6.50429 7.5 6.03194 -139855 -160476 -116344 -16581 -4225.45 39997.1 -7.41259 
3014 1 56.0989 5.26538 7.5 6.03194 -148146 -155503 -43088.9 7021.77 28604.1 54516 -7.41661 
3015 1 55.3708 4.04859 7.5 6.03194 -141429 -160215 -103294 -15190.6 -10412.2 44708.6 -7.4133 
3016 1 56.0606 2.80968 7.5 6.03194 -146576 -156720 -60594.8 9581.34 24881 52728.7 -7.41565 
3017 1 55.3325 1.59289 7.5 6.03194 -143179 -159567 -87627.2 -13300.9 -16065.3 48769 -7.41416 
3018 1 56.0222 0.353975 7.5 6.03193 -144980 -157801 -77804.4 12116.4 20265.9 50164 -7.4147 
3122 1 58.2831 8.91574 7.5 6.03194 -150271 -151919 -36330.7 3674.56 32261.1 56923.3 -7.41699 
3123 1 57.555 7.69895 7.5 6.03194 -138771 -160605 -125539 -17652.2 3565.87 38382.4 -7.41209 
3124 1 58.2447 6.46004 7.5 6.03194 -148299 -153173 -51470.3 5923.2 29308 56183.4 -7.41617 
3125 1 57.5167 5.24325 7.5 6.03194 -139904 -160101 -116528 -16441 -3293.61 43379.7 -7.41259 
3126 1 58.2064 4.00434 7.5 6.03194 -146435 -154502 -67134.8 8446.27 25313.9 54674.2 -7.41531 
3127 1 57.4784 2.78755 7.5 6.03194 -141357 -159242 -104498 -14687.9 -9809.38 47791.1 -7.41325 
3128 1 58.1681 1.54864 7.5 6.03194 -144701 -155838 -82600.7 11051.8 20432.5 52420.2 -7.41446 
3129 1 57.44 0.331852 7.5 6.03193 -143025 -158097 -90096.5 -12520.5 -15755 51551.7 -7.41404 
3233 1 59.7009 8.89362 7.5 6.03194 -138025 -160322 -131341 -18053.7 11732.6 35281 -7.41178 
3234 1 60.3906 7.65471 7.5 6.03194 -148886 -150173 -61799 4756.97 30228.7 55633.8 -7.41562 
3235 1 59.6625 6.43792 7.5 6.03194 -138647 -159535 -126609 -17075.4 4346.46 40283 -7.41204 
3236 1 60.3523 5.19901 7.5 6.03194 -146579 -151501 -75637 7102.55 26027 54331.9 -7.41487 
3237 1 59.6242 3.98222 7.5 6.03194 -139706 -158417 -118543 -15537.2 -2892.08 44775.5 -7.41249 
3238 1 60.314 2.74331 7.5 6.03194 -144531 -152951 -89348.4 9626.27 20937.1 52362.4 -7.41412 
3239 1 59.5859 1.52652 7.5 6.03194 -141134 -157062 -107677 -13543.4 -9700 48743.7 -7.4131 
3240 1 60.2756 0.287605 7.5 6.03193 -142765 -154446 -102240 12152.5 15075.7 49773 -7.41341 
3344 1 62.5365 8.84937 7.5 6.03194 -149999 -146738 -73431.4 3649.57 31216.3 53071.3 -7.415 
3345 1 61.8084 7.63258 7.5 6.03194 -137715 -158598 -133157 -17029.9 12177.7 35849.2 -7.4117 
3346 1 62.4981 6.39367 7.5 6.03194 -147152 -147980 -85490.9 5715.58 26889.5 51870.5 -7.41435 
3347 1 61.7701 5.17688 7.5 6.03194 -138308 -157208 -129217 -15758.3 4370.21 40132.9 -7.41193 
3348 1 62.4598 3.93797 7.5 6.03194 -144651 -149428 -97489.9 8023.33 21672.9 50098.5 -7.4137 
3349 1 61.7318 2.72118 7.5 6.03194 -139393 -155606 -122137 -14022.8 -3134.87 44018.3 -7.41233 
3350 1 62.4215 1.48227 7.5 6.03194 -142560 -151045 -108782 10417.1 15727.5 47833.4 -7.41308 
3351 1 61.6934 0.265481 7.5 6.03193 -140922 -153891 -112479 -11950.2 -10132.3 47518.3 -7.41286 
3455 1 63.9543 8.82725 7.5 6.03194 -137145 -157397 -136057 -16300.2 19878.8 30615.5 -7.41156 
3456 1 64.644 7.58834 7.5 6.03194 -148234 -144230 -96041.7 4407.51 27772.7 47652.6 -7.4138 
3457 1 63.9159 6.37155 7.5 6.03194 -137224 -155761 -136241 -15316.8 11645.4 34440.1 -7.41156 
3458 1 64.6057 5.13264 7.5 6.03194 -145192 -145596 -106404 6408.38 22505.1 45982.2 -7.41324 
3459 1 63.8776 3.91585 7.5 6.03194 -137894 -153919 -133023 -13885.6 3602.22 37963.4 -7.41176 
3460 1 64.5674 2.67694 7.5 6.03194 -142645 -147206 -116171 8554 16568.3 43946 -7.41271 
3461 1 63.8393 1.46015 7.5 6.03194 -139131 -151996 -126888 -12106.8 -3993.73 41268.4 -7.4121 
3462 1 64.529 0.221234 7.5 6.03193 -140634 -149005 -124745 10717 10028.6 41631.3 -7.41224 
3566 1 66.7899 8.783 7.5 6.03194 -149836 -140522 -106640 3244.81 28607.8 42116.3 -7.41324 
3567 1 66.0618 7.56621 7.5 6.03194 -136498 -154221 -139619 -14238.3 18652.6 28311.8 -7.4114 
3568 1 66.7515 6.3273 7.5 6.03194 -146224 -141766 -115469 4894.93 23339.2 40496.6 -7.41277 
3569 1 66.0235 5.11051 7.5 6.03194 -136699 -152185 -140188 -13125.1 10195.7 31268.1 -7.41139 
3570 1 66.7132 3.8716 7.5 6.03194 -143142 -143292 -123818 6716.03 17466.9 38611.6 -7.41233 
3571 1 65.9852 2.65481 7.5 6.03194 -137565 -150067 -137570 -11683.1 2158.71 34121.2 -7.41155 
3572 1 66.6749 1.4159 7.5 6.03194 -140680 -145085 -131140 8602.63 11103.5 36585.2 -7.41193 
3573 1 65.9468 0.199111 7.5 6.03193 -139076 -147978 -132292 -10014.6 -5326.77 36963.4 -7.41185 
3677 1 68.2077 8.76088 7.5 6.03194 -136156 -152728 -139603 -12595.6 25214.1 22264.8 -7.41142 
3679 1 68.1693 6.30518 7.5 6.03194 -135855 -150566 -143768 -11788.4 16422.1 24566.1 -7.41122 
3680 1 68.8591 5.06627 7.5 6.03194 -144109 -139605 -131169 5007.11 18369.7 32365.4 -7.41195 
3681 1 68.131 3.84948 7.5 6.03194 -136295 -148305 -144526 -10686.3 8038.28 26813 -7.4112 
3682 1 68.8208 2.61057 7.5 6.03194 -141127 -141310 -137376 6564.96 12205.7 30568.5 -7.41162 
3683 1 68.0927 1.39378 7.5 6.03194 -137472 -146071 -142367 -9366.61 253.246 29161.4 -7.41133 
3684 1 68.7824 0.154864 7.5 6.03193 -138859 -143270 -142218 8140.95 5639.62 28821.4 -7.41136 
3678 1 68.8974 7.52197 7.5 6.03194 -147750 -138196 -124097 3541.15 24170.8 34109.8 -7.41232 
3788 1 71.0433 8.71663 7.5 6.03194 -149718 -135071 -131733 2362 25092.9 27156.5 -7.41191 
3789 1 70.3152 7.49984 7.5 6.03194 -135392 -149197 -144126 -9958.24 22191 18302.5 -7.41122 
3790 1 71.0049 6.26093 7.5 6.03194 -145546 -136361 -137711 3477.93 19336.3 25625.4 -7.41161 
3791 1 70.2769 5.04414 7.5 6.03194 -135367 -146859 -148033 -9175.82 13487.5 19919.3 -7.41103 
3792 1 70.9666 3.80523 7.5 6.03194 -142023 -137948 -142978 4687.88 13323.2 24081.3 -7.41134 
3793 1 70.2386 2.58844 7.5 6.03194 -136149 -144519 -148797 -8205.71 5455.18 21665.8 -7.41101 
3794 1 70.9283 1.34953 7.5 6.03194 -139254 -139824 -147087 5934.15 7084.28 22642 -7.41112 
3795 1 70.2002 0.132741 7.5 6.03193 -137723 -142279 -146956 -7115.28 -1892.11 23670.1 -7.41112 
3899 1 72.4611 8.69451 7.5 6.03194 -135330 -148191 -141765 -7732.67 27537.9 12670.2 -7.41136 
3900 1 73.1508 7.4556 7.5 6.03194 -147401 -133695 -142952 2142.84 20522.3 18602 -7.41133 
3901 1 72.4227 6.23881 7.5 6.03194 -134816 -145840 -148553 -7235.64 18501.8 13745.9 -7.41102 
3902 1 73.1125 4.9999 7.5 6.03194 -143362 -135162 -147503 3014.61 14572.2 17413.9 -7.41111 
3903 1 72.3844 3.78311 7.5 6.03194 -135161 -143449 -151988 -6587.81 10187.8 14915.9 -7.41086 
3904 1 73.0742 2.54419 7.5 6.03194 -140075 -136919 -151080 3929.39 8552.25 16329.8 -7.41093 
3905 1 72.3461 1.32741 7.5 6.03194 -136360 -141131 -152596 -5834.89 2697.6 16335.9 -7.41084 
3906 1 73.0358 0.0884937 7.5 6.03193 -137604 -138928 -153264 4857.03 2311.32 15414 -7.41081 
4010 1 75.2967 8.65026 7.5 6.03194 -149586 -131688 -146387 1005.45 22111.3 11297.8 -7.41114 
4011 1 74.5686 7.43347 7.5 6.03194 -134665 -145336 -146630 -4950.25 23197.2 8316.66 -7.41114 
4012 1 75.2583 6.19456 7.5 6.03194 -145097 -133038 -150499 1562.55 16154.6 10604.8 -7.41095 
4013 1 74.5303 4.97777 7.5 6.03194 -134544 -142939 -152472 -4589.08 14522.6 9030.57 -7.41084 
4014 1 75.22 3.73886 7.5 6.03194 -141316 -134671 -153798 2155.53 10205.5 9992.58 -7.41079 
4015 1 74.492 2.52207 7.5 6.03194 -135320 -140572 -155260 -4152.19 6790.54 9923.77 -7.41071 
4016 1 75.1817 1.28316 7.5 6.03194 -138356 -136573 -155913 2761.9 4227.68 9501.24 -7.41069 
4017 1 74.4536 0.0663703 7.5 6.03193 -136972 -138320 -155563 -3673.61 -102.114 11091 -7.4107 
4104 1 76.7145 8.62814 7.5 6.03194 -134920 -145422 -142813 -2394.25 27730 3458.65 -7.41135 
4105 1 77.4042 7.38923 7.5 6.03193 -147121 -131623 -151471 344.23 18269.1 3502.79 -7.41088 
4106 1 76.6761 6.17244 7.5 6.03194 -134324 -143048 -150810 -2278.43 18636.6 3858.26 -7.41094 
4107 1 77.3659 4.93353 7.5 6.03193 -142905 -133130 -154801 632.742 12274.8 3488.08 -7.41073 
4108 1 76.6378 3.71674 7.5 6.03194 -134647 -140659 -155521 -2124.15 10520 4353.95 -7.4107 
4109 1 77.3276 2.47782 7.5 6.03193 -139478 -134908 -157117 931.241 6363.29 3539.03 -7.41063 
4110 1 76.5995 1.26104 7.5 6.03194 -135882 -138355 -157507 -1942.47 3412.27 5021.28 -7.41061 
4111 1 77.2892 0.0221234 7.5 6.03193 -136930 -136919 -158042 1240.24 326.894 3632.23 -7.41058 
4112 1 78.707 1e-08 7.5 6.03193 -136831 -136814 -158351 -7.39173 0.00811366 0.0437802 -7.41057 
117 1 0.996292 18.4067 7.5 6.03194 -168137 -127995 -134250 -679.919 36907.8 -4880.94 -7.41164 
118 1 0.268232 17.1899 7.5 6.03193 -142890 -151710 -85176.3 490.359 58626.4 -1382.14 -7.41438 
119 1 0.957973 15.951 7.5 6.03194 -164365 -128396 -137392 -661.435 35359.4 -4997.52 -7.4115 
120 1 0.229913 14.7342 7.5 6.03193 -139971 -150196 -106272 473 51070.2 -1300.22 -7.41326 
121 1 0.919654 13.4953 7.5 6.03194 -159620 -129005 -141356 -641.046 31822.3 -4907.39 -7.41133 
122 1 0.191595 12.2785 7.5 6.03193 -137427 -148313 -123868 430.815 41945.1 -1185.54 -7.41233 
123 1 0.881335 11.0396 7.5 6.03194 -154465 -129846 -145670 -624.972 26819.6 -4597.33 -7.41114 
124 1 0.153276 9.8228 7.5 6.03193 -135538 -146153 -137611 367.371 32197.5 -1048.85 -7.41162 
229 1 2.41409 18.3846 7.5 6.03194 -144405 -152602 -74605.8 3191.75 61102.6 -4097.23 -7.41494 
230 1 3.10383 17.1457 7.5 6.03194 -166117 -128904 -132014 -806.401 36309.7 -13992.6 -7.41178 
231 1 2.37577 15.9289 7.5 6.03194 -141475 -151298 -96921.2 3349.18 54604.8 -4698.36 -7.41375 
232 1 3.06551 14.69 7.5 6.03194 -161836 -129383 -135924 -914.252 33891.9 -13818 -7.4116 
233 1 2.33745 13.4732 7.5 6.03194 -138749 -149585 -116062 3370.06 46126.7 -5094.5 -7.41274 
234 1 3.02719 12.2343 7.5 6.03194 -156874 -130082 -140472 -1075.23 29682 -13226.4 -7.4114 
235 1 2.29913 11.0175 7.5 6.03194 -136542 -147544 -131494 3265.37 36556 -5322.22 -7.41193 
236 1 2.98887 9.77856 7.5 6.03194 -151774 -131027 -145167 -1291.15 24274.2 -12266.6 -7.41118 
340 1 5.24969 18.3403 7.5 6.03194 -167255 -130203 -122809 -809.658 36469.1 -22545.4 -7.41226 
341 1 4.52163 17.1235 7.5 6.03194 -142913 -152890 -88031.9 6037.38 57096.9 -7341.86 -7.41421 
342 1 5.21137 15.8846 7.5 6.03194 -163618 -130549 -126665 -988.322 35466.5 -22578.7 -7.41208 
343 1 4.48331 14.6678 7.5 6.03194 -140155 -151404 -108213 6238.56 49624.2 -8472.95 -7.41314 
344 1 5.17305 13.4289 7.5 6.03194 -159049 -131097 -131527 -1267.81 32414.2 -22008 -7.41186 
345 1 4.44499 12.2121 7.5 6.03194 -137756 -149534 -124929 6201.09 40590 -9278.13 -7.41226 
346 1 5.13473 10.9732 7.5 6.03194 -154088 -131879 -136880 -1658.95 27771.2 -20873.6 -7.41161 