(written by TR)

8224	atoms
2	atom types
0	78.7070413	xlo xhi
0	136.324594	ylo yhi
0	18.4	zlo zhi


Masses

1	12
2	12

Atoms

1 1 1 0 -0.00000001 136.32459358 7.50000000 0 0 0
2 1 1 0 0.68974036 135.08568134 7.50000000 0 0 0
3 1 1 0 0.65142146 132.62998029 7.50000000 0 0 0
4 1 1 0 0.61310255 130.17427924 7.50000000 0 0 0
5 1 1 0 0.57478364 127.71857818 7.50000000 0 0 0
6 1 1 0 0.53646473 125.26287713 7.50000000 0 0 0
7 1 1 0 0.49814582 122.80717608 7.50000000 0 0 0
8 1 1 0 0.45982691 120.35147502 7.50000000 0 0 0
9 1 1 0 0.42150800 117.89577397 7.50000000 0 0 0
10 1 1 0 0.38318909 115.44007292 7.50000000 0 0 0
11 1 1 0 0.34487018 112.98437187 7.50000000 0 0 0
12 1 1 0 0.30655127 110.52867081 7.50000000 0 0 0
13 1 1 0 0.26823236 108.07296976 7.50000000 0 0 0
14 1 1 0 0.22991345 105.61726871 7.50000000 0 0 0
15 1 1 0 0.19159454 103.16156765 7.50000000 0 0 0
16 1 1 0 0.15327563 100.70586660 7.50000000 0 0 0
17 1 1 0 0.11495672 98.25016555 7.50000000 0 0 0
18 1 1 0 0.07663781 95.79446450 7.50000000 0 0 0
19 1 1 0 0.03831890 93.33876344 7.50000000 0 0 0
20 1 1 0 -0.00000001 90.88306239 7.50000000 0 0 0
21 1 1 0 2.83559932 136.28034672 7.50000000 0 0 0
22 1 1 0 2.10754003 135.06355791 7.50000000 0 0 0
23 1 1 0 2.79728041 133.82464567 7.50000000 0 0 0
24 1 1 0 2.06922112 132.60785686 7.50000000 0 0 0
25 1 1 0 2.75896150 131.36894461 7.50000000 0 0 0
26 1 1 0 2.03090221 130.15215580 7.50000000 0 0 0
27 1 1 0 2.72064259 128.91324356 7.50000000 0 0 0
28 1 1 0 1.99258330 127.69645475 7.50000000 0 0 0
29 1 1 0 2.68232368 126.45754251 7.50000000 0 0 0
30 1 1 0 1.95426439 125.24075370 7.50000000 0 0 0
31 1 1 0 2.64400477 124.00184145 7.50000000 0 0 0
32 1 1 0 1.91594548 122.78505264 7.50000000 0 0 0
33 1 1 0 2.60568586 121.54614040 7.50000000 0 0 0
34 1 1 0 1.87762657 120.32935159 7.50000000 0 0 0
35 1 1 0 2.56736695 119.09043935 7.50000000 0 0 0
36 1 1 0 1.83930766 117.87365054 7.50000000 0 0 0
37 1 1 0 2.52904804 116.63473830 7.50000000 0 0 0
38 1 1 0 1.80098875 115.41794949 7.50000000 0 0 0
39 1 1 0 2.49072913 114.17903724 7.50000000 0 0 0
40 1 1 0 1.76266984 112.96224843 7.50000000 0 0 0
41 1 1 0 2.45241022 111.72333619 7.50000000 0 0 0
42 1 1 0 1.72435093 110.50654738 7.50000000 0 0 0
43 1 1 0 2.41409131 109.26763514 7.50000000 0 0 0
44 1 1 0 1.68603202 108.05084633 7.50000000 0 0 0
45 1 1 0 2.37577240 106.81193408 7.50000000 0 0 0
46 1 1 0 1.64771311 105.59514527 7.50000000 0 0 0
47 1 1 0 2.33745349 104.35623303 7.50000000 0 0 0
48 1 1 0 1.60939420 103.13944422 7.50000000 0 0 0
49 1 1 0 2.29913458 101.90053198 7.50000000 0 0 0
50 1 1 0 1.57107529 100.68374317 7.50000000 0 0 0
51 1 1 0 2.26081567 99.44483093 7.50000000 0 0 0
52 1 1 0 1.53275638 98.22804212 7.50000000 0 0 0
53 1 1 0 2.22249676 96.98912987 7.50000000 0 0 0
54 1 1 0 1.49443747 95.77234106 7.50000000 0 0 0
55 1 1 0 2.18417785 94.53342882 7.50000000 0 0 0
56 1 1 0 1.45611857 93.31664001 7.50000000 0 0 0
57 1 1 0 2.14585894 92.07772777 7.50000000 0 0 0
58 1 1 0 1.41779966 90.86093896 7.50000000 0 0 0
59 1 1 0 2.10754003 89.62202671 7.50000000 0 0 0
60 1 1 0 1.37948075 88.40523790 7.50000000 0 0 0
61 1 1 0 2.06922112 87.16632566 7.50000000 0 0 0
62 1 1 0 1.34116184 85.94953685 7.50000000 0 0 0
63 1 1 0 2.03090221 84.71062461 7.50000000 0 0 0
64 1 1 0 1.30284293 83.49383580 7.50000000 0 0 0
65 1 1 0 1.99258330 82.25492356 7.50000000 0 0 0
66 1 1 0 1.26452402 81.03813475 7.50000000 0 0 0
67 1 1 0 1.95426439 79.79922250 7.50000000 0 0 0
68 1 1 0 1.22620511 78.58243369 7.50000000 0 0 0
69 1 1 0 1.91594548 77.34352145 7.50000000 0 0 0
70 1 1 0 1.18788620 76.12673264 7.50000000 0 0 0
71 1 1 0 1.87762658 74.88782040 7.50000000 0 0 0
72 1 1 0 1.14956729 73.67103159 7.50000000 0 0 0
73 1 1 0 1.83930767 72.43211934 7.50000000 0 0 0
74 1 1 0 1.11124838 71.21533053 7.50000000 0 0 0
75 1 1 0 1.80098876 69.97641829 7.50000000 0 0 0
76 1 1 0 1.07292947 68.75962948 7.50000000 0 0 0
77 1 1 0 1.76266985 67.52071724 7.50000000 0 0 0
78 1 1 0 1.03461056 66.30392843 7.50000000 0 0 0
79 1 1 0 1.72435094 65.06501619 7.50000000 0 0 0
80 1 1 0 0.99629165 63.84822738 7.50000000 0 0 0
81 1 1 0 1.68603203 62.60931513 7.50000000 0 0 0
82 1 1 0 0.95797274 61.39252632 7.50000000 0 0 0
83 1 1 0 1.64771312 60.15361408 7.50000000 0 0 0
84 1 1 0 0.91965383 58.93682527 7.50000000 0 0 0
85 1 1 0 1.60939421 57.69791303 7.50000000 0 0 0
86 1 1 0 0.88133492 56.48112422 7.50000000 0 0 0
87 1 1 0 1.57107530 55.24221197 7.50000000 0 0 0
88 1 1 0 0.84301601 54.02542316 7.50000000 0 0 0
89 1 1 0 1.53275639 52.78651092 7.50000000 0 0 0
90 1 1 0 0.80469710 51.56972211 7.50000000 0 0 0
91 1 1 0 1.49443748 50.33080987 7.50000000 0 0 0
92 1 1 0 0.76637819 49.11402106 7.50000000 0 0 0
93 1 1 0 1.45611857 47.87510881 7.50000000 0 0 0
94 1 1 0 0.72805928 46.65832000 7.50000000 0 0 0
95 1 1 0 1.41779966 45.41940776 7.50000000 0 0 0
96 1 1 0 0.68974037 44.20261895 7.50000000 0 0 0
97 1 1 0 1.37948075 42.96370671 7.50000000 0 0 0
98 1 1 0 0.65142146 41.74691790 7.50000000 0 0 0
99 1 1 0 1.34116184 40.50800566 7.50000000 0 0 0
100 1 1 0 0.61310255 39.29121685 7.50000000 0 0 0
101 1 1 0 1.30284293 38.05230460 7.50000000 0 0 0
102 1 1 0 0.57478364 36.83551579 7.50000000 0 0 0
103 1 1 0 1.26452402 35.59660355 7.50000000 0 0 0
104 1 1 0 0.53646473 34.37981474 7.50000000 0 0 0
105 1 1 0 1.22620511 33.14090250 7.50000000 0 0 0
106 1 1 0 0.49814582 31.92411369 7.50000000 0 0 0
107 1 1 0 1.18788620 30.68520144 7.50000000 0 0 0
108 1 1 0 0.45982692 29.46841263 7.50000000 0 0 0
109 1 1 0 1.14956729 28.22950039 7.50000000 0 0 0
110 1 1 0 0.42150801 27.01271158 7.50000000 0 0 0
111 1 1 0 1.11124838 25.77379934 7.50000000 0 0 0
112 1 1 0 0.38318910 24.55701053 7.50000000 0 0 0
113 1 1 0 1.07292947 23.31809829 7.50000000 0 0 0
114 1 1 0 0.34487019 22.10130948 7.50000000 0 0 0
115 1 1 0 1.03461056 20.86239723 7.50000000 0 0 0
116 1 1 0 0.30655128 19.64560842 7.50000000 0 0 0
117 1 1 0 0.99629165 18.40669618 7.50000000 0 0 0
118 1 1 0 0.26823237 17.18990737 7.50000000 0 0 0
119 1 1 0 0.95797274 15.95099513 7.50000000 0 0 0
120 1 1 0 0.22991346 14.73420632 7.50000000 0 0 0
121 1 1 0 0.91965383 13.49529407 7.50000000 0 0 0
122 1 1 0 0.19159455 12.27850526 7.50000000 0 0 0
123 1 1 0 0.88133493 11.03959302 7.50000000 0 0 0
124 1 1 0 0.15327564 9.82280421 7.50000000 0 0 0
125 1 1 0 0.84301602 8.58389197 7.50000000 0 0 0
126 1 1 0 0.11495673 7.36710316 7.50000000 0 0 0
127 1 1 0 0.80469711 6.12819092 7.50000000 0 0 0
128 1 1 0 0.07663782 4.91140211 7.50000000 0 0 0
129 1 1 0 0.76637820 3.67248986 7.50000000 0 0 0
130 1 1 0 0.03831891 2.45570105 7.50000000 0 0 0
131 1 1 0 0.72805929 1.21678881 7.50000000 0 0 0
132 1 1 0 0.00000000 0.00000000 7.50000000 0 0 0
133 1 1 0 4.25339898 136.25822329 7.50000000 0 0 0
134 1 1 0 4.94313936 135.01931104 7.50000000 0 0 0
135 1 1 0 4.21508007 133.80252223 7.50000000 0 0 0
136 1 1 0 4.90482045 132.56360999 7.50000000 0 0 0
137 1 1 0 4.17676116 131.34682118 7.50000000 0 0 0
138 1 1 0 4.86650154 130.10790894 7.50000000 0 0 0
139 1 1 0 4.13844225 128.89112013 7.50000000 0 0 0
140 1 1 0 4.82818263 127.65220788 7.50000000 0 0 0
141 1 1 0 4.10012334 126.43541907 7.50000000 0 0 0
142 1 1 0 4.78986372 125.19650683 7.50000000 0 0 0
143 1 1 0 4.06180443 123.97971802 7.50000000 0 0 0
144 1 1 0 4.75154481 122.74080578 7.50000000 0 0 0
145 1 1 0 4.02348552 121.52401697 7.50000000 0 0 0
146 1 1 0 4.71322590 120.28510473 7.50000000 0 0 0
147 1 1 0 3.98516661 119.06831592 7.50000000 0 0 0
148 1 1 0 4.67490699 117.82940367 7.50000000 0 0 0
149 1 1 0 3.94684770 116.61261486 7.50000000 0 0 0
150 1 1 0 4.63658808 115.37370262 7.50000000 0 0 0
151 1 1 0 3.90852879 114.15691381 7.50000000 0 0 0
152 1 1 0 4.59826917 112.91800157 7.50000000 0 0 0
153 1 1 0 3.87020988 111.70121276 7.50000000 0 0 0
154 1 1 0 4.55995026 110.46230051 7.50000000 0 0 0
155 1 1 0 3.83189097 109.24551170 7.50000000 0 0 0
156 1 1 0 4.52163135 108.00659946 7.50000000 0 0 0
157 1 1 0 3.79357206 106.78981065 7.50000000 0 0 0
158 1 1 0 4.48331244 105.55089841 7.50000000 0 0 0
159 1 1 0 3.75525315 104.33410960 7.50000000 0 0 0
160 1 1 0 4.44499353 103.09519736 7.50000000 0 0 0
161 1 1 0 3.71693424 101.87840855 7.50000000 0 0 0
162 1 1 0 4.40667462 100.63949630 7.50000000 0 0 0
163 1 1 0 3.67861534 99.42270749 7.50000000 0 0 0
164 1 1 0 4.36835571 98.18379525 7.50000000 0 0 0
165 1 1 0 3.64029643 96.96700644 7.50000000 0 0 0
166 1 1 0 4.33003680 95.72809420 7.50000000 0 0 0
167 1 1 0 3.60197752 94.51130539 7.50000000 0 0 0
168 1 1 0 4.29171789 93.27239314 7.50000000 0 0 0
169 1 1 0 3.56365861 92.05560433 7.50000000 0 0 0
170 1 1 0 4.25339898 90.81669209 7.50000000 0 0 0
171 1 1 0 3.52533970 89.59990328 7.50000000 0 0 0
172 1 1 0 4.21508007 88.36099104 7.50000000 0 0 0
173 1 1 0 3.48702079 87.14420223 7.50000000 0 0 0
174 1 1 0 4.17676116 85.90528999 7.50000000 0 0 0
175 1 1 0 3.44870188 84.68850118 7.50000000 0 0 0
176 1 1 0 4.13844225 83.44958893 7.50000000 0 0 0
177 1 1 0 3.41038297 82.23280012 7.50000000 0 0 0
178 1 1 0 4.10012335 80.99388788 7.50000000 0 0 0
179 1 1 0 3.37206406 79.77709907 7.50000000 0 0 0
180 1 1 0 4.06180444 78.53818683 7.50000000 0 0 0
181 1 1 0 3.33374515 77.32139802 7.50000000 0 0 0
182 1 1 0 4.02348553 76.08248577 7.50000000 0 0 0
183 1 1 0 3.29542624 74.86569696 7.50000000 0 0 0
184 1 1 0 3.98516662 73.62678472 7.50000000 0 0 0
185 1 1 0 3.25710733 72.40999591 7.50000000 0 0 0
186 1 1 0 3.94684771 71.17108367 7.50000000 0 0 0
187 1 1 0 3.21878842 69.95429486 7.50000000 0 0 0
188 1 1 0 3.90852880 68.71538262 7.50000000 0 0 0
189 1 1 0 3.18046951 67.49859381 7.50000000 0 0 0
190 1 1 0 3.87020989 66.25968156 7.50000000 0 0 0
191 1 1 0 3.14215060 65.04289275 7.50000000 0 0 0
192 1 1 0 3.83189098 63.80398051 7.50000000 0 0 0
193 1 1 0 3.10383169 62.58719170 7.50000000 0 0 0
194 1 1 0 3.79357207 61.34827946 7.50000000 0 0 0
195 1 1 0 3.06551278 60.13149065 7.50000000 0 0 0
196 1 1 0 3.75525316 58.89257840 7.50000000 0 0 0
197 1 1 0 3.02719387 57.67578959 7.50000000 0 0 0
198 1 1 0 3.71693425 56.43687735 7.50000000 0 0 0
199 1 1 0 2.98887496 55.22008854 7.50000000 0 0 0
200 1 1 0 3.67861534 53.98117630 7.50000000 0 0 0
201 1 1 0 2.95055605 52.76438749 7.50000000 0 0 0
202 1 1 0 3.64029643 51.52547525 7.50000000 0 0 0
203 1 1 0 2.91223714 50.30868644 7.50000000 0 0 0
204 1 1 0 3.60197752 49.06977419 7.50000000 0 0 0
205 1 1 0 2.87391823 47.85298538 7.50000000 0 0 0
206 1 1 0 3.56365861 46.61407314 7.50000000 0 0 0
207 1 1 0 2.83559932 45.39728433 7.50000000 0 0 0
208 1 1 0 3.52533970 44.15837209 7.50000000 0 0 0
209 1 1 0 2.79728041 42.94158328 7.50000000 0 0 0
210 1 1 0 3.48702079 41.70267103 7.50000000 0 0 0
211 1 1 0 2.75896150 40.48588222 7.50000000 0 0 0
212 1 1 0 3.44870188 39.24696998 7.50000000 0 0 0
213 1 1 0 2.72064259 38.03018117 7.50000000 0 0 0
214 1 1 0 3.41038297 36.79126893 7.50000000 0 0 0
215 1 1 0 2.68232369 35.57448012 7.50000000 0 0 0
216 1 1 0 3.37206406 34.33556787 7.50000000 0 0 0
217 1 1 0 2.64400478 33.11877906 7.50000000 0 0 0
218 1 1 0 3.33374515 31.87986682 7.50000000 0 0 0
219 1 1 0 2.60568587 30.66307801 7.50000000 0 0 0
220 1 1 0 3.29542624 29.42416577 7.50000000 0 0 0
221 1 1 0 2.56736696 28.20737696 7.50000000 0 0 0
222 1 1 0 3.25710733 26.96846472 7.50000000 0 0 0
223 1 1 0 2.52904805 25.75167591 7.50000000 0 0 0
224 1 1 0 3.21878842 24.51276366 7.50000000 0 0 0
225 1 1 0 2.49072914 23.29597485 7.50000000 0 0 0
226 1 1 0 3.18046951 22.05706261 7.50000000 0 0 0
227 1 1 0 2.45241023 20.84027380 7.50000000 0 0 0
228 1 1 0 3.14215060 19.60136156 7.50000000 0 0 0
229 1 1 0 2.41409132 18.38457275 7.50000000 0 0 0
230 1 1 0 3.10383170 17.14566050 7.50000000 0 0 0
231 1 1 0 2.37577241 15.92887169 7.50000000 0 0 0
232 1 1 0 3.06551279 14.68995945 7.50000000 0 0 0
233 1 1 0 2.33745350 13.47317064 7.50000000 0 0 0
234 1 1 0 3.02719388 12.23425840 7.50000000 0 0 0
235 1 1 0 2.29913459 11.01746959 7.50000000 0 0 0
236 1 1 0 2.98887497 9.77855735 7.50000000 0 0 0
237 1 1 0 2.26081568 8.56176854 7.50000000 0 0 0
238 1 1 0 2.95055606 7.32285629 7.50000000 0 0 0
239 1 1 0 2.22249677 6.10606748 7.50000000 0 0 0
240 1 1 0 2.91223715 4.86715524 7.50000000 0 0 0
241 1 1 0 2.18417786 3.65036643 7.50000000 0 0 0
242 1 1 0 2.87391824 2.41145419 7.50000000 0 0 0
243 1 1 0 2.14585895 1.19466538 7.50000000 0 0 0
244 1 1 0 7.08899831 136.21397642 7.50000000 0 0 0
245 1 1 0 6.36093902 134.99718761 7.50000000 0 0 0
246 1 1 0 7.05067940 133.75827537 7.50000000 0 0 0
247 1 1 0 6.32262011 132.54148656 7.50000000 0 0 0
248 1 1 0 7.01236049 131.30257431 7.50000000 0 0 0
249 1 1 0 6.28430120 130.08578550 7.50000000 0 0 0
250 1 1 0 6.97404158 128.84687326 7.50000000 0 0 0
251 1 1 0 6.24598229 127.63008445 7.50000000 0 0 0
252 1 1 0 6.93572267 126.39117221 7.50000000 0 0 0
253 1 1 0 6.20766338 125.17438340 7.50000000 0 0 0
254 1 1 0 6.89740376 123.93547116 7.50000000 0 0 0
255 1 1 0 6.16934447 122.71868235 7.50000000 0 0 0
256 1 1 0 6.85908485 121.47977010 7.50000000 0 0 0
257 1 1 0 6.13102556 120.26298129 7.50000000 0 0 0
258 1 1 0 6.82076594 119.02406905 7.50000000 0 0 0
259 1 1 0 6.09270665 117.80728024 7.50000000 0 0 0
260 1 1 0 6.78244703 116.56836800 7.50000000 0 0 0
261 1 1 0 6.05438774 115.35157919 7.50000000 0 0 0
262 1 1 0 6.74412812 114.11266694 7.50000000 0 0 0
263 1 1 0 6.01606883 112.89587813 7.50000000 0 0 0
264 1 1 0 6.70580921 111.65696589 7.50000000 0 0 0
265 1 1 0 5.97774992 110.44017708 7.50000000 0 0 0
266 1 1 0 6.66749030 109.20126484 7.50000000 0 0 0
267 1 1 0 5.93943101 107.98447603 7.50000000 0 0 0
268 1 1 0 6.62917139 106.74556379 7.50000000 0 0 0
269 1 1 0 5.90111211 105.52877498 7.50000000 0 0 0
270 1 1 0 6.59085248 104.28986273 7.50000000 0 0 0
271 1 1 0 5.86279320 103.07307392 7.50000000 0 0 0
272 1 1 0 6.55253357 101.83416168 7.50000000 0 0 0
273 1 1 0 5.82447429 100.61737287 7.50000000 0 0 0
274 1 1 0 6.51421466 99.37846063 7.50000000 0 0 0
275 1 1 0 5.78615538 98.16167182 7.50000000 0 0 0
276 1 1 0 6.47589575 96.92275957 7.50000000 0 0 0
277 1 1 0 5.74783647 95.70597076 7.50000000 0 0 0
278 1 1 0 6.43757684 94.46705852 7.50000000 0 0 0
279 1 1 0 5.70951756 93.25026971 7.50000000 0 0 0
280 1 1 0 6.39925793 92.01135747 7.50000000 0 0 0
281 1 1 0 5.67119865 90.79456866 7.50000000 0 0 0
282 1 1 0 6.36093902 89.55565642 7.50000000 0 0 0
283 1 1 0 5.63287974 88.33886761 7.50000000 0 0 0
284 1 1 0 6.32262012 87.09995536 7.50000000 0 0 0
285 1 1 0 5.59456083 85.88316655 7.50000000 0 0 0
286 1 1 0 6.28430121 84.64425431 7.50000000 0 0 0
287 1 1 0 5.55624192 83.42746550 7.50000000 0 0 0
288 1 1 0 6.24598230 82.18855326 7.50000000 0 0 0
289 1 1 0 5.51792301 80.97176445 7.50000000 0 0 0
290 1 1 0 6.20766339 79.73285220 7.50000000 0 0 0
291 1 1 0 5.47960410 78.51606339 7.50000000 0 0 0
292 1 1 0 6.16934448 77.27715115 7.50000000 0 0 0
293 1 1 0 5.44128519 76.06036234 7.50000000 0 0 0
294 1 1 0 6.13102557 74.82145010 7.50000000 0 0 0
295 1 1 0 5.40296628 73.60466129 7.50000000 0 0 0
296 1 1 0 6.09270666 72.36574905 7.50000000 0 0 0
297 1 1 0 5.36464737 71.14896024 7.50000000 0 0 0
298 1 1 0 6.05438775 69.91004799 7.50000000 0 0 0
299 1 1 0 5.32632846 68.69325918 7.50000000 0 0 0
300 1 1 0 6.01606884 67.45434694 7.50000000 0 0 0
301 1 1 0 5.28800955 66.23755813 7.50000000 0 0 0
302 1 1 0 5.97774993 64.99864589 7.50000000 0 0 0
303 1 1 0 5.24969064 63.78185708 7.50000000 0 0 0
304 1 1 0 5.93943102 62.54294483 7.50000000 0 0 0
305 1 1 0 5.21137173 61.32615602 7.50000000 0 0 0
306 1 1 0 5.90111211 60.08724378 7.50000000 0 0 0
307 1 1 0 5.17305282 58.87045497 7.50000000 0 0 0
308 1 1 0 5.86279320 57.63154273 7.50000000 0 0 0
309 1 1 0 5.13473391 56.41475392 7.50000000 0 0 0
310 1 1 0 5.82447429 55.17584168 7.50000000 0 0 0
311 1 1 0 5.09641500 53.95905287 7.50000000 0 0 0
312 1 1 0 5.78615538 52.72014062 7.50000000 0 0 0
313 1 1 0 5.05809609 51.50335181 7.50000000 0 0 0
314 1 1 0 5.74783647 50.26443957 7.50000000 0 0 0
315 1 1 0 5.01977718 49.04765076 7.50000000 0 0 0
316 1 1 0 5.70951756 47.80873852 7.50000000 0 0 0
317 1 1 0 4.98145827 46.59194971 7.50000000 0 0 0
318 1 1 0 5.67119865 45.35303746 7.50000000 0 0 0
319 1 1 0 4.94313936 44.13624865 7.50000000 0 0 0
320 1 1 0 5.63287974 42.89733641 7.50000000 0 0 0
321 1 1 0 4.90482046 41.68054760 7.50000000 0 0 0
322 1 1 0 5.59456083 40.44163536 7.50000000 0 0 0
323 1 1 0 4.86650155 39.22484655 7.50000000 0 0 0
324 1 1 0 5.55624192 37.98593431 7.50000000 0 0 0
325 1 1 0 4.82818264 36.76914550 7.50000000 0 0 0
326 1 1 0 5.51792301 35.53023325 7.50000000 0 0 0
327 1 1 0 4.78986373 34.31344444 7.50000000 0 0 0
328 1 1 0 5.47960410 33.07453220 7.50000000 0 0 0
329 1 1 0 4.75154482 31.85774339 7.50000000 0 0 0
330 1 1 0 5.44128519 30.61883115 7.50000000 0 0 0
331 1 1 0 4.71322591 29.40204234 7.50000000 0 0 0
332 1 1 0 5.40296628 28.16313009 7.50000000 0 0 0
333 1 1 0 4.67490700 26.94634128 7.50000000 0 0 0
334 1 1 0 5.36464737 25.70742904 7.50000000 0 0 0
335 1 1 0 4.63658809 24.49064023 7.50000000 0 0 0
336 1 1 0 5.32632847 23.25172799 7.50000000 0 0 0
337 1 1 0 4.59826918 22.03493918 7.50000000 0 0 0
338 1 1 0 5.28800956 20.79602693 7.50000000 0 0 0
339 1 1 0 4.55995027 19.57923812 7.50000000 0 0 0
340 1 1 0 5.24969065 18.34032588 7.50000000 0 0 0
341 1 1 0 4.52163136 17.12353707 7.50000000 0 0 0
342 1 1 0 5.21137174 15.88462483 7.50000000 0 0 0
343 1 1 0 4.48331245 14.66783602 7.50000000 0 0 0
344 1 1 0 5.17305283 13.42892378 7.50000000 0 0 0
345 1 1 0 4.44499354 12.21213497 7.50000000 0 0 0
346 1 1 0 5.13473392 10.97322272 7.50000000 0 0 0
347 1 1 0 4.40667463 9.75643391 7.50000000 0 0 0
348 1 1 0 5.09641501 8.51752167 7.50000000 0 0 0
349 1 1 0 4.36835572 7.30073286 7.50000000 0 0 0
350 1 1 0 5.05809610 6.06182062 7.50000000 0 0 0
351 1 1 0 4.33003681 4.84503181 7.50000000 0 0 0
352 1 1 0 5.01977719 3.60611956 7.50000000 0 0 0
353 1 1 0 4.29171790 2.38933075 7.50000000 0 0 0
354 1 1 0 4.98145828 1.15041851 7.50000000 0 0 0
355 1 1 0 8.50679797 136.19185299 7.50000000 0 0 0
356 1 1 0 9.19653835 134.95294075 7.50000000 0 0 0
357 1 1 0 8.46847906 133.73615194 7.50000000 0 0 0
358 1 1 0 9.15821944 132.49723969 7.50000000 0 0 0
359 1 1 0 8.43016015 131.28045088 7.50000000 0 0 0
360 1 1 0 9.11990053 130.04153864 7.50000000 0 0 0
361 1 1 0 8.39184124 128.82474983 7.50000000 0 0 0
362 1 1 0 9.08158162 127.58583759 7.50000000 0 0 0
363 1 1 0 8.35352233 126.36904878 7.50000000 0 0 0
364 1 1 0 9.04326271 125.13013653 7.50000000 0 0 0
365 1 1 0 8.31520342 123.91334772 7.50000000 0 0 0
366 1 1 0 9.00494380 122.67443548 7.50000000 0 0 0
367 1 1 0 8.27688451 121.45764667 7.50000000 0 0 0
368 1 1 0 8.96662489 120.21873443 7.50000000 0 0 0
369 1 1 0 8.23856560 119.00194562 7.50000000 0 0 0
370 1 1 0 8.92830598 117.76303337 7.50000000 0 0 0
371 1 1 0 8.20024669 116.54624456 7.50000000 0 0 0
372 1 1 0 8.88998707 115.30733232 7.50000000 0 0 0
373 1 1 0 8.16192778 114.09054351 7.50000000 0 0 0
374 1 1 0 8.85166816 112.85163127 7.50000000 0 0 0
375 1 1 0 8.12360888 111.63484246 7.50000000 0 0 0
376 1 1 0 8.81334925 110.39593022 7.50000000 0 0 0
377 1 1 0 8.08528997 109.17914141 7.50000000 0 0 0
378 1 1 0 8.77503034 107.94022916 7.50000000 0 0 0
379 1 1 0 8.04697106 106.72344035 7.50000000 0 0 0
380 1 1 0 8.73671143 105.48452811 7.50000000 0 0 0
381 1 1 0 8.00865215 104.26773930 7.50000000 0 0 0
382 1 1 0 8.69839252 103.02882706 7.50000000 0 0 0
383 1 1 0 7.97033324 101.81203825 7.50000000 0 0 0
384 1 1 0 8.66007361 100.57312600 7.50000000 0 0 0
385 1 1 0 7.93201433 99.35633719 7.50000000 0 0 0
386 1 1 0 8.62175470 98.11742495 7.50000000 0 0 0
387 1 1 0 7.89369542 96.90063614 7.50000000 0 0 0
388 1 1 0 8.58343579 95.66172390 7.50000000 0 0 0
389 1 1 0 7.85537651 94.44493509 7.50000000 0 0 0
390 1 1 0 8.54511688 93.20602285 7.50000000 0 0 0
391 1 1 0 7.81705760 91.98923404 7.50000000 0 0 0
392 1 1 0 8.50679798 90.75032179 7.50000000 0 0 0
393 1 1 0 7.77873869 89.53353298 7.50000000 0 0 0
394 1 1 0 8.46847907 88.29462074 7.50000000 0 0 0
395 1 1 0 7.74041978 87.07783193 7.50000000 0 0 0
396 1 1 0 8.43016016 85.83891969 7.50000000 0 0 0
397 1 1 0 7.70210087 84.62213088 7.50000000 0 0 0
398 1 1 0 8.39184125 83.38321863 7.50000000 0 0 0
399 1 1 0 7.66378196 82.16642982 7.50000000 0 0 0
400 1 1 0 8.35352234 80.92751758 7.50000000 0 0 0
401 1 1 0 7.62546305 79.71072877 7.50000000 0 0 0
402 1 1 0 8.31520343 78.47181653 7.50000000 0 0 0
403 1 1 0 7.58714414 77.25502772 7.50000000 0 0 0
404 1 1 0 8.27688452 76.01611548 7.50000000 0 0 0
405 1 1 0 7.54882523 74.79932667 7.50000000 0 0 0
406 1 1 0 8.23856561 73.56041442 7.50000000 0 0 0
407 1 1 0 7.51050632 72.34362561 7.50000000 0 0 0
408 1 1 0 8.20024670 71.10471337 7.50000000 0 0 0
409 1 1 0 7.47218741 69.88792456 7.50000000 0 0 0
410 1 1 0 8.16192779 68.64901232 7.50000000 0 0 0
411 1 1 0 7.43386850 67.43222351 7.50000000 0 0 0
412 1 1 0 8.12360888 66.19331126 7.50000000 0 0 0
413 1 1 0 7.39554959 64.97652245 7.50000000 0 0 0
414 1 1 0 8.08528997 63.73761021 7.50000000 0 0 0
415 1 1 0 7.35723068 62.52082140 7.50000000 0 0 0
416 1 1 0 8.04697106 61.28190916 7.50000000 0 0 0
417 1 1 0 7.31891177 60.06512035 7.50000000 0 0 0
418 1 1 0 8.00865215 58.82620811 7.50000000 0 0 0
419 1 1 0 7.28059286 57.60941930 7.50000000 0 0 0
420 1 1 0 7.97033324 56.37050705 7.50000000 0 0 0
421 1 1 0 7.24227395 55.15371824 7.50000000 0 0 0
422 1 1 0 7.93201433 53.91480600 7.50000000 0 0 0
423 1 1 0 7.20395504 52.69801719 7.50000000 0 0 0
424 1 1 0 7.89369542 51.45910495 7.50000000 0 0 0
425 1 1 0 7.16563613 50.24231614 7.50000000 0 0 0
426 1 1 0 7.85537651 49.00340389 7.50000000 0 0 0
427 1 1 0 7.12731723 47.78661508 7.50000000 0 0 0
428 1 1 0 7.81705760 46.54770284 7.50000000 0 0 0
429 1 1 0 7.08899832 45.33091403 7.50000000 0 0 0
430 1 1 0 7.77873869 44.09200179 7.50000000 0 0 0
431 1 1 0 7.05067941 42.87521298 7.50000000 0 0 0
432 1 1 0 7.74041978 41.63630074 7.50000000 0 0 0
433 1 1 0 7.01236050 40.41951193 7.50000000 0 0 0
434 1 1 0 7.70210087 39.18059968 7.50000000 0 0 0
435 1 1 0 6.97404159 37.96381087 7.50000000 0 0 0
436 1 1 0 7.66378196 36.72489863 7.50000000 0 0 0
437 1 1 0 6.93572268 35.50810982 7.50000000 0 0 0
438 1 1 0 7.62546305 34.26919758 7.50000000 0 0 0
439 1 1 0 6.89740377 33.05240877 7.50000000 0 0 0
440 1 1 0 7.58714414 31.81349652 7.50000000 0 0 0
441 1 1 0 6.85908486 30.59670771 7.50000000 0 0 0
442 1 1 0 7.54882524 29.35779547 7.50000000 0 0 0
443 1 1 0 6.82076595 28.14100666 7.50000000 0 0 0
444 1 1 0 7.51050633 26.90209442 7.50000000 0 0 0
445 1 1 0 6.78244704 25.68530561 7.50000000 0 0 0
446 1 1 0 7.47218742 24.44639336 7.50000000 0 0 0
447 1 1 0 6.74412813 23.22960455 7.50000000 0 0 0
448 1 1 0 7.43386851 21.99069231 7.50000000 0 0 0
449 1 1 0 6.70580922 20.77390350 7.50000000 0 0 0
450 1 1 0 7.39554960 19.53499126 7.50000000 0 0 0
451 1 1 0 6.66749031 18.31820245 7.50000000 0 0 0
452 1 1 0 7.35723069 17.07929021 7.50000000 0 0 0
453 1 1 0 6.62917140 15.86250140 7.50000000 0 0 0
454 1 1 0 7.31891178 14.62358915 7.50000000 0 0 0
455 1 1 0 6.59085249 13.40680034 7.50000000 0 0 0
456 1 1 0 7.28059287 12.16788810 7.50000000 0 0 0
457 1 1 0 6.55253358 10.95109929 7.50000000 0 0 0
458 1 1 0 7.24227396 9.71218705 7.50000000 0 0 0
459 1 1 0 6.51421467 8.49539824 7.50000000 0 0 0
460 1 1 0 7.20395505 7.25648599 7.50000000 0 0 0
461 1 1 0 6.47589576 6.03969718 7.50000000 0 0 0
462 1 1 0 7.16563614 4.80078494 7.50000000 0 0 0
463 1 1 0 6.43757685 3.58399613 7.50000000 0 0 0
464 1 1 0 7.12731723 2.34508389 7.50000000 0 0 0
465 1 1 0 6.39925794 1.12829508 7.50000000 0 0 0
466 1 1 0 11.34239730 136.14760612 7.50000000 0 0 0
467 1 1 0 10.61433801 134.93081731 7.50000000 0 0 0
468 1 1 0 11.30407839 133.69190507 7.50000000 0 0 0
469 1 1 0 10.57601910 132.47511626 7.50000000 0 0 0
470 1 1 0 11.26575948 131.23620402 7.50000000 0 0 0
471 1 1 0 10.53770019 130.01941521 7.50000000 0 0 0
472 1 1 0 11.22744057 128.78050296 7.50000000 0 0 0
473 1 1 0 10.49938128 127.56371415 7.50000000 0 0 0
474 1 1 0 11.18912166 126.32480191 7.50000000 0 0 0
475 1 1 0 10.46106237 125.10801310 7.50000000 0 0 0
476 1 1 0 11.15080275 123.86910086 7.50000000 0 0 0
477 1 1 0 10.42274346 122.65231205 7.50000000 0 0 0
478 1 1 0 11.11248384 121.41339980 7.50000000 0 0 0
479 1 1 0 10.38442455 120.19661099 7.50000000 0 0 0
480 1 1 0 11.07416493 118.95769875 7.50000000 0 0 0
481 1 1 0 10.34610565 117.74090994 7.50000000 0 0 0
482 1 1 0 11.03584602 116.50199770 7.50000000 0 0 0
483 1 1 0 10.30778674 115.28520889 7.50000000 0 0 0
484 1 1 0 10.99752711 114.04629665 7.50000000 0 0 0
485 1 1 0 10.26946783 112.82950784 7.50000000 0 0 0
486 1 1 0 10.95920820 111.59059559 7.50000000 0 0 0
487 1 1 0 10.23114892 110.37380678 7.50000000 0 0 0
488 1 1 0 10.92088929 109.13489454 7.50000000 0 0 0
489 1 1 0 10.19283001 107.91810573 7.50000000 0 0 0
490 1 1 0 10.88257038 106.67919349 7.50000000 0 0 0
491 1 1 0 10.15451110 105.46240468 7.50000000 0 0 0
492 1 1 0 10.84425147 104.22349243 7.50000000 0 0 0
493 1 1 0 10.11619219 103.00670362 7.50000000 0 0 0
494 1 1 0 10.80593256 101.76779138 7.50000000 0 0 0
495 1 1 0 10.07787328 100.55100257 7.50000000 0 0 0
496 1 1 0 10.76761365 99.31209033 7.50000000 0 0 0
497 1 1 0 10.03955437 98.09530152 7.50000000 0 0 0
498 1 1 0 10.72929475 96.85638928 7.50000000 0 0 0
499 1 1 0 10.00123546 95.63960047 7.50000000 0 0 0
500 1 1 0 10.69097584 94.40068822 7.50000000 0 0 0
501 1 1 0 9.96291655 93.18389941 7.50000000 0 0 0
502 1 1 0 10.65265693 91.94498717 7.50000000 0 0 0
503 1 1 0 9.92459764 90.72819836 7.50000000 0 0 0
504 1 1 0 10.61433802 89.48928612 7.50000000 0 0 0
505 1 1 0 9.88627873 88.27249731 7.50000000 0 0 0
506 1 1 0 10.57601911 87.03358506 7.50000000 0 0 0
507 1 1 0 9.84795982 85.81679625 7.50000000 0 0 0
508 1 1 0 10.53770020 84.57788401 7.50000000 0 0 0
509 1 1 0 9.80964091 83.36109520 7.50000000 0 0 0
510 1 1 0 10.49938129 82.12218296 7.50000000 0 0 0
511 1 1 0 9.77132200 80.90539415 7.50000000 0 0 0
512 1 1 0 10.46106238 79.66648191 7.50000000 0 0 0
513 1 1 0 9.73300309 78.44969310 7.50000000 0 0 0
514 1 1 0 10.42274347 77.21078085 7.50000000 0 0 0
515 1 1 0 9.69468418 75.99399204 7.50000000 0 0 0
516 1 1 0 10.38442456 74.75507980 7.50000000 0 0 0
517 1 1 0 9.65636527 73.53829099 7.50000000 0 0 0
518 1 1 0 10.34610565 72.29937875 7.50000000 0 0 0
519 1 1 0 9.61804636 71.08258994 7.50000000 0 0 0
520 1 1 0 10.30778674 69.84367769 7.50000000 0 0 0
521 1 1 0 9.57972745 68.62688888 7.50000000 0 0 0
522 1 1 0 10.26946783 67.38797664 7.50000000 0 0 0
523 1 1 0 9.54140854 66.17118783 7.50000000 0 0 0
524 1 1 0 10.23114892 64.93227559 7.50000000 0 0 0
525 1 1 0 9.50308963 63.71548678 7.50000000 0 0 0
526 1 1 0 10.19283001 62.47657454 7.50000000 0 0 0
527 1 1 0 9.46477072 61.25978573 7.50000000 0 0 0
528 1 1 0 10.15451110 60.02087348 7.50000000 0 0 0
529 1 1 0 9.42645181 58.80408467 7.50000000 0 0 0
530 1 1 0 10.11619219 57.56517243 7.50000000 0 0 0
531 1 1 0 9.38813290 56.34838362 7.50000000 0 0 0
532 1 1 0 10.07787328 55.10947138 7.50000000 0 0 0
533 1 1 0 9.34981400 53.89268257 7.50000000 0 0 0
534 1 1 0 10.03955437 52.65377032 7.50000000 0 0 0
535 1 1 0 9.31149509 51.43698151 7.50000000 0 0 0
536 1 1 0 10.00123546 50.19806927 7.50000000 0 0 0
537 1 1 0 9.27317618 48.98128046 7.50000000 0 0 0
538 1 1 0 9.96291655 47.74236822 7.50000000 0 0 0
539 1 1 0 9.23485727 46.52557941 7.50000000 0 0 0
540 1 1 0 9.92459764 45.28666717 7.50000000 0 0 0
541 1 1 0 9.19653836 44.06987836 7.50000000 0 0 0
542 1 1 0 9.88627873 42.83096611 7.50000000 0 0 0
543 1 1 0 9.15821945 41.61417730 7.50000000 0 0 0
544 1 1 0 9.84795982 40.37526506 7.50000000 0 0 0
545 1 1 0 9.11990054 39.15847625 7.50000000 0 0 0
546 1 1 0 9.80964091 37.91956401 7.50000000 0 0 0
547 1 1 0 9.08158163 36.70277520 7.50000000 0 0 0
548 1 1 0 9.77132200 35.46386295 7.50000000 0 0 0
549 1 1 0 9.04326272 34.24707414 7.50000000 0 0 0
550 1 1 0 9.73300310 33.00816190 7.50000000 0 0 0
551 1 1 0 9.00494381 31.79137309 7.50000000 0 0 0
552 1 1 0 9.69468419 30.55246085 7.50000000 0 0 0
553 1 1 0 8.96662490 29.33567204 7.50000000 0 0 0
554 1 1 0 9.65636528 28.09675980 7.50000000 0 0 0
555 1 1 0 8.92830599 26.87997099 7.50000000 0 0 0
556 1 1 0 9.61804637 25.64105874 7.50000000 0 0 0
557 1 1 0 8.88998708 24.42426993 7.50000000 0 0 0
558 1 1 0 9.57972746 23.18535769 7.50000000 0 0 0
559 1 1 0 8.85166817 21.96856888 7.50000000 0 0 0
560 1 1 0 9.54140855 20.72965664 7.50000000 0 0 0
561 1 1 0 8.81334926 19.51286783 7.50000000 0 0 0
562 1 1 0 9.50308964 18.27395558 7.50000000 0 0 0
563 1 1 0 8.77503035 17.05716677 7.50000000 0 0 0
564 1 1 0 9.46477073 15.81825453 7.50000000 0 0 0
565 1 1 0 8.73671144 14.60146572 7.50000000 0 0 0
566 1 1 0 9.42645182 13.36255348 7.50000000 0 0 0
567 1 1 0 8.69839253 12.14576467 7.50000000 0 0 0
568 1 1 0 9.38813291 10.90685242 7.50000000 0 0 0
569 1 1 0 8.66007362 9.69006361 7.50000000 0 0 0
570 1 1 0 9.34981400 8.45115137 7.50000000 0 0 0
571 1 1 0 8.62175471 7.23436256 7.50000000 0 0 0
572 1 1 0 9.31149509 5.99545032 7.50000000 0 0 0
573 1 1 0 8.58343580 4.77866151 7.50000000 0 0 0
574 1 1 0 9.27317618 3.53974927 7.50000000 0 0 0
575 1 1 0 8.54511689 2.32296046 7.50000000 0 0 0
576 1 1 0 9.23485727 1.08404821 7.50000000 0 0 0
577 1 1 0 12.76019696 136.12548269 7.50000000 0 0 0
578 1 1 0 13.44993734 134.88657045 7.50000000 0 0 0
579 1 1 0 12.72187805 133.66978164 7.50000000 0 0 0
580 1 1 0 13.41161843 132.43086939 7.50000000 0 0 0
581 1 1 0 12.68355914 131.21408058 7.50000000 0 0 0
582 1 1 0 13.37329952 129.97516834 7.50000000 0 0 0
583 1 1 0 12.64524023 128.75837953 7.50000000 0 0 0
584 1 1 0 13.33498061 127.51946729 7.50000000 0 0 0
585 1 1 0 12.60692132 126.30267848 7.50000000 0 0 0
586 1 1 0 13.29666170 125.06376624 7.50000000 0 0 0
587 1 1 0 12.56860241 123.84697743 7.50000000 0 0 0
588 1 1 0 13.25834279 122.60806518 7.50000000 0 0 0
589 1 1 0 12.53028351 121.39127637 7.50000000 0 0 0
590 1 1 0 13.22002388 120.15236413 7.50000000 0 0 0
591 1 1 0 12.49196460 118.93557532 7.50000000 0 0 0
592 1 1 0 13.18170497 117.69666308 7.50000000 0 0 0
593 1 1 0 12.45364569 116.47987427 7.50000000 0 0 0
594 1 1 0 13.14338606 115.24096202 7.50000000 0 0 0
595 1 1 0 12.41532678 114.02417321 7.50000000 0 0 0