ITEM: TIMESTEP
102
ITEM: NUMBER OF ATOMS
12152
ITEM: BOX BOUNDS pp pp pp
0.0000000000000000e+00 9.5721004899999997e+01
0.0000000000000000e+00 1.6579364400000000e+02
0.0000000000000000e+00 1.5000000000000000e+01
ITEM: ATOMS id type x y z c_csym c_2[1] c_2[2] c_2[3] c_2[4] c_2[5] c_2[6] c_3 
152 1 0.86183 8.58168 2.85151 6.02042 -164955 -146390 -935 -15989.9 10511.5 -2105.14 -7.41146 
153 1 0.131873 7.36621 2.8487 6.0255 -150776 -161008 1388.8 -11659.3 13260.9 -743.4 -7.41154 
154 1 0.819156 6.12599 2.8463 6.02365 -162537 -149184 -54.3803 -8758.61 8563.96 -1928.75 -7.41137 
155 1 0.0886231 4.91083 2.84413 6.02733 -152400 -159579 735.165 -5425.94 8952.06 -503.299 -7.41136 
156 1 0.775462 3.67038 2.84251 6.02638 -159951 -151905 343.671 -3581.75 5701.11 -1699.29 -7.41128 
157 1 0.0445369 2.45543 2.84119 6.02914 -154049 -157862 477.219 -1429.77 4434.04 -246.575 -7.41125 
158 1 0.731116 1.21486 2.84051 6.02939 -157347 -154538 438.335 -771.822 2023.65 -1406.38 -7.41123 
159 1 5.04922e-06 3.12862e-06 2.84017 6.03092 -155946 -155898 436.244 56.6893 0.552102 0.33365 -7.41121 
288 1 2.27948 8.5561 2.85207 6.02196 -158204 -153562 1602.76 -12780.4 14892.5 -2766.35 -7.41167 
289 1 2.96678 7.31584 2.84983 6.02211 -170436 -141080 -10.0582 -11831.2 9478.61 -6324.59 -7.41147 
290 1 2.2368 6.10035 2.84691 6.02416 -157320 -154437 789.43 -5532.87 10765 -3115.36 -7.41145 
291 1 2.92366 4.85988 2.84538 6.0246 -165773 -145974 473.094 -5632.12 7134.86 -5989.78 -7.41137 
292 1 2.19311 3.6447 2.84317 6.02612 -156686 -155197 444.489 -348.753 6322.36 -3387.65 -7.41131 
293 1 2.8797 2.40413 2.84251 6.02751 -160919 -150992 556.936 -1644.55 3923.77 -5511.72 -7.41129 
294 1 2.14876 1.18916 2.84119 6.02794 -156252 -155797 405.777 2394.87 1816.21 -3585.82 -7.41124 
423 1 5.11366 8.50645 2.8547 6.02035 -179716 -131666 537.36 -13496 10200 -10538 -7.41166 
424 1 4.38439 7.29052 2.85124 6.01949 -164253 -147359 418.017 -4364.35 12020.5 -5026.25 -7.41155 
425 1 5.07129 6.05004 2.84984 6.0229 -173448 -138280 1010.12 -6194.24 8420.92 -10150.5 -7.41155 
426 1 4.34128 4.83452 2.84691 6.0226 -161362 -150223 97.9795 2093.36 7749.71 -5845.28 -7.4114 
427 1 5.02791 3.59394 2.84631 6.02565 -166495 -145220 988.384 -1007.06 5770.87 -9565.12 -7.41144 
428 1 4.29734 2.37874 2.84412 6.02495 -158598 -153049 173.165 6142.69 3305.55 -6539.21 -7.41132 
429 1 4.9839 1.13817 2.84445 6.02611 -159400 -152427 658.08 1562.42 2335.51 -8752.77 -7.41136 
558 1 6.53124 8.48163 2.85671 6.01468 -172435 -138808 -537.288 -2340.64 12721.6 -6212.99 -7.41166 
559 1 7.2182 7.24115 2.85549 6.01964 -182049 -129446 2095.77 -5692.84 9512.43 -13984.4 -7.4118 
560 1 6.48888 6.02519 2.85206 6.01831 -167869 -143590 -743.203 5454.3 8667.35 -7532.06 -7.41149 
561 1 7.17557 4.78462 2.85153 6.02328 -173756 -138096 1890.42 728.256 7469.75 -13336.4 -7.41167 
562 1 6.44553 3.56907 2.84868 6.02173 -162993 -148417 -459.907 10808 4376.41 -8708.71 -7.41141 
563 1 7.13214 2.32852 2.84899 6.02436 -164858 -146900 1266.83 4664.78 4605.47 -12423.4 -7.41155 
564 1 6.40154 1.11328 2.84691 6.02351 -158186 -153477 133.647 13560.9 89.1058 -9710.23 -7.4114 
693 1 9.36429 8.43343 2.86192 6.01518 -191317 -119955 3826.68 -4134.75 10403.6 -17382.3 -7.41212 
694 1 8.63576 7.21697 2.85818 6.01384 -175222 -135476 -2205.45 9386.25 9106.38 -8483.96 -7.41158 
695 1 9.32255 5.97643 2.85775 6.01942 -181859 -129701 3382.06 3457.72 8974.87 -16684.3 -7.41197 
696 1 8.59316 4.76045 2.85444 6.01831 -168886 -142164 -1648.57 16245.7 5007.88 -10076.8 -7.4115 
697 1 9.27985 3.51992 2.85473 6.02261 -171613 -140097 2408.09 8803.4 6727.84 -15711.5 -7.41181 
698 1 8.54975 2.30434 2.85205 6.02129 -162339 -149048 -672.556 20446.4 839.814 -11490.3 -7.41149 
699 1 9.23656 1.06394 2.85314 6.01937 -160809 -150836 1106.18 11381.1 3728.13 -14436.1 -7.41166 
6096 2 0.555821 8.60652 6.54847 6.02324 -147423 -164192 1890.91 15935 15283.8 199.706 -7.41167 
6097 2 0.59849 6.15126 6.55369 6.02564 -149611 -162238 987.597 8749.8 11168.9 -214.707 -7.41144 
6098 2 0.642193 3.69596 6.55748 6.0275 -151904 -159899 556.448 3550.47 6734.31 -642.559 -7.41129 
6099 2 0.686541 1.24059 6.55949 6.02939 -154635 -157315 438.116 784.924 2229.77 -1049.08 -7.41122 
6100 2 1.74506e-06 2.34218e-06 6.55983 6.0309 -155870 -155945 436.298 -11.1084 0.102892 -0.0861556 -7.41122 
6228 2 1.97353 8.63212 6.54794 6.01826 -154147 -157058 -742.936 13285.2 10856.6 -3739.93 -7.41149 
6229 2 2.70385 7.41688 6.55016 6.02295 -141528 -169981 1009.84 12159.6 13000.9 -2218.4 -7.41155 
6230 2 2.01618 6.17691 6.55309 6.02251 -154730 -156808 97.901 5939.06 8936.95 -3788.59 -7.4114 
6231 2 2.74696 4.96191 6.55462 6.02457 -146004 -165699 472.988 5838.86 8754.6 -3184.8 -7.41137 
6232 2 2.05986 3.72164 6.55683 6.02622 -155175 -156561 444.708 570.741 6095.12 -3782.99 -7.41131 
6233 2 2.79091 2.50676 6.55749 6.0264 -150869 -160899 343.988 1828.74 4322.31 -4087 -7.41128 
6234 2 2.1042 1.26628 6.55881 6.02918 -155739 -156148 477.317 -2258.35 2430.84 -3716.94 -7.41125 
6235 2 2.8353 0.0514152 6.55848 6.02798 -155864 -156070 441.152 343.146 -11.6252 -4873.96 -7.41126 
6363 2 4.80997 8.68179 6.5453 6.02032 -131931 -179352 537.362 14062.9 14226.1 -3565.11 -7.41166 
6364 2 4.12159 7.44225 6.54876 6.01949 -147663 -163818 418.22 5147.28 10362.8 -7896.98 -7.41155 
6365 2 4.85233 6.22723 6.55017 6.02216 -138092 -173351 -10.1418 6813.64 10216.3 -5046.9 -7.41147 
6366 2 4.16467 4.98731 6.55309 6.02413 -150353 -161404 790.164 -1452.79 8079.94 -7766.17 -7.41145 
6367 2 4.89569 3.77241 6.5537 6.0236 -144823 -166679 -53.5735 1544.48 5952.17 -6452.06 -7.41136 
6368 2 4.20859 2.53217 6.55587 6.02729 -153108 -158790 735.843 -5678.75 4912.06 -7501.63 -7.41136 
6369 2 4.93968 1.31728 6.55556 6.02452 -152128 -159753 236.795 -1318.95 1669.52 -7706.44 -7.41133 
6370 2 4.25296 0.0768248 6.55683 6.02611 -155800 -155972 456.728 -7340.52 1023.44 -7093.32 -7.41131 
6498 2 6.22777 8.70669 6.54328 6.01678 -139101 -172363 1281.18 3356.54 11514.1 -11735.3 -7.41179 
6499 2 6.95845 7.49163 6.54454 6.02028 -128807 -182225 -1051.16 6535.41 11130.7 -6195.28 -7.41157 
6500 2 6.27008 6.25214 6.54793 6.02207 -143632 -168129 1602.64 -4416.89 9841.21 -11514.5 -7.41167 
6501 2 7.00105 5.03721 6.54849 6.02045 -137313 -174138 -935.213 37.3343 7078.82 -8050.32 -7.41146 
6502 2 6.3134 3.79731 6.5513 6.02545 -148301 -163532 1388.97 -10163.2 7274.07 -11112.6 -7.41154 
6503 2 7.04446 2.58239 6.55103 6.02091 -146204 -165322 -373.278 -4226.05 2929.75 -9752.7 -7.41143 
6504 2 6.35735 1.34218 6.55308 6.02429 -153254 -158507 826.128 -13304.9 3893.12 -10513.4 -7.41145 
6505 2 7.08829 0.127162 6.5519 6.02195 -155523 -156171 435.919 -5939.78 -1058.53 -11225.8 -7.41146 
6633 2 9.06543 8.75488 6.53815 6.0179 -118930 -191813 -2750.26 5386.98 11569.7 -6703.37 -7.41165 
6634 2 8.37626 7.51589 6.54179 6.02028 -135606 -176066 3002.54 -8065.89 11311.2 -14900.4 -7.41196 
6635 2 9.10714 6.30089 6.5423 6.01736 -128484 -182337 -2427.74 -2314.73 7734.68 -8913.15 -7.41154 
6636 2 8.4188 5.06143 6.54552 6.02218 -142062 -169649 2575.36 -15198.1 9396.63 -14392.7 -7.41181 
6637 2 9.1498 3.84645 6.5453 6.01674 -138824 -172205 -1544.47 -8021.63 3755.38 -10991 -7.41152 
6638 2 8.46216 2.60658 6.54793 6.02212 -148685 -162985 1674.32 -19857.6 6625.53 -13659.6 -7.41167 
6639 2 9.19307 1.39151 6.54687 6.01738 -149750 -161621 -291.285 -11131.9 -151.139 -12852.4 -7.41156 
6640 2 8.50595 0.15133 6.54876 6.02196 -155484 -156007 513.173 -21729.2 3132.91 -12691.3 -7.41155 
828 1 10.7818 8.41007 2.86487 6.00958 -183187 -126707 -4355.61 13889.3 9150.81 -8820.7 -7.41164 
829 1 11.4687 7.16958 2.86455 6.01532 -190509 -120982 5532.44 7020.9 10277.1 -19554 -7.41233 
830 1 10.7401 5.9531 2.86098 6.01431 -175642 -134710 -3490.62 22128.4 5249.02 -10732.9 -7.41157 
831 1 11.4269 4.71263 2.86125 6.01947 -179309 -132284 4177.09 13707.8 8655.28 -18533.8 -7.41213 
832 1 10.6974 3.49662 2.85817 6.01854 -167691 -143026 -2091.61 27807.8 1232.52 -12483 -7.41158 
833 1 11.3843 2.25626 2.85914 6.017 -167421 -144154 2371.86 17713.2 6247.28 -17220 -7.41194 
834 1 10.6542 1.04064 2.85671 6.01983 -159465 -151701 -363.375 30486 -2672.57 -14031.6 -7.41166 
963 1 13.6141 8.3642 2.87159 6.01125 -199057 -112406 8363.57 10971.2 11381.9 -21941.5 -7.41275 
964 1 12.8863 7.14719 2.8679 6.01059 -182856 -126686 -6024.63 28025.5 5183.2 -10826.3 -7.41161 
965 1 13.5732 5.90679 2.86817 6.01566 -187464 -124192 6620.49 18952.4 10370.6 -20878.6 -7.41253 
966 1 12.8445 4.6903 2.86485 6.01593 -173931 -136149 -4193.69 35206.7 1322.61 -12818.4 -7.41164 
967 1 13.5315 3.45001 2.86571 6.01504 -174866 -136788 4306.18 24484.7 8566.9 -19540.9 -7.41229 
968 1 12.8019 2.23397 2.86292 6.0181 -164647 -145969 -1907.97 39470.2 -2489.52 -14635.7 -7.41174 
969 1 13.4892 0.993873 2.86442 6.01138 -161561 -149644 1644.05 27082.8 6021.16 -17919.4 -7.41205 
1098 1 15.0316 8.3428 2.87491 6.00715 -189989 -118608 -9237.29 33626.6 4904.55 -10511.5 -7.41161 
1099 1 15.7188 7.1025 2.8752 6.01194 -195219 -116319 9739.49 24305.7 11866.7 -22757.9 -7.41296 
1100 1 14.9908 5.8855 2.87176 6.01265 -180548 -128904 -6992.25 42318.8 1189.87 -12656.8 -7.41166 
1101 1 15.678 4.64529 2.87253 6.01209 -182403 -129214 6934.84 31353.7 10660.4 -21407.6 -7.41269 
1102 1 14.9491 3.42879 2.86952 6.01686 -170562 -139456 -4164.35 48230.5 -2524.42 -14653.3 -7.41179 
1103 1 15.6364 2.18877 2.87082 6.00903 -168862 -142521 3656.07 35529.4 8671.76 -19802.5 -7.4124 
1104 1 14.9068 0.972697 2.86837 6.01379 -160176 -150242 -985.774 50898.7 -6028.37 -16477.7 -7.41197 
1233 1 17.8635 8.29979 2.8821 6.0084 -202598 -108938 13489.2 29623.8 13129.3 -24179.8 -7.41344 
1234 1 17.1363 7.08226 2.87864 6.00959 -186826 -121497 -10452.6 48929.3 919.997 -12139.7 -7.41164 
1235 1 17.8237 5.84217 2.87932 6.00915 -189789 -121817 10238.8 38074.4 12506.9 -22831.9 -7.41313 
1236 1 17.0955 4.62518 2.87621 6.01523 -176553 -132748 -7123.19 56439.6 -2700.59 -14239 -7.41179 
1237 1 17.783 3.38525 2.87733 6.00695 -176086 -135348 6386.78 43913.1 11080.9 -21257.3 -7.4128 
1238 1 17.054 2.16874 2.87468 6.01177 -165903 -144020 -3310.55 60809 -6178.24 -16192.8 -7.41201 
1239 1 17.7419 0.929045 2.87629 6.00318 -161773 -148949 2179.68 46534.5 8902.09 -19462.7 -7.41247 
6768 2 10.4833 8.77836 6.53507 6.01741 -127007 -184750 5062.75 -11930.7 12473.5 -17872.2 -7.41231 
6769 2 11.2141 7.56327 6.53554 6.01361 -119047 -190990 -4599.54 -5236.59 7998.9 -9161.28 -7.4116 
6770 2 10.5249 6.3243 6.53896 6.01835 -134706 -176950 4389.6 -20373.6 11218 -17268 -7.41214 
6771 2 11.2559 5.10924 6.5388 6.01255 -130506 -179896 -3373.44 -12222.7 4194.34 -11514 -7.41159 
6772 2 10.5675 3.86979 6.54178 6.018 -142744 -168726 3120.22 -26594.3 9107.61 -16430.9 -7.41196 
6773 2 11.2984 2.65466 6.54088 6.01273 -142509 -168233 -1650.7 -16922.6 396.608 -13682.7 -7.41165 
6774 2 10.6108 1.41482 6.54327 6.01899 -151079 -160271 1456.67 -30083.9 6201.28 -15352.2 -7.41179 
6775 2 11.3414 0.199495 6.54159 6.0142 -155014 -156187 346.045 -18812.6 -3164.27 -15598.9 -7.41177 
6903 2 13.3219 8.82424 6.52856 6.0101 -109536 -199757 -7463.02 -8416.56 7961.79 -8951.03 -7.41162 
6904 2 12.6319 7.58579 6.532 6.01438 -126782 -184853 6878.07 -25543.7 12722.4 -19723.7 -7.41254 
6905 2 13.3627 6.37062 6.53191 6.00853 -121627 -187933 -5898.4 -16822.6 4324.44 -11475.3 -7.41163 
6906 2 12.6736 5.13164 6.53505 6.01363 -136016 -175442 5233.59 -33264.6 11281.3 -18796.3 -7.41232 
6907 2 13.4044 3.91642 6.53432 6.00815 -134658 -175446 -3710.25 -23013.1 643.649 -13852.6 -7.41171 
6908 2 12.7161 2.67698 6.53702 6.01422 -145433 -165759 3061.83 -38355.3 9010.74 -17637 -7.4121 
6909 2 13.4467 1.46159 6.53559 6.0091 -148173 -162769 -1113.97 -26519.8 -2880.35 -16016.5 -7.41186 
6910 2 12.759 0.221783 6.53772 6.01621 -155087 -155904 596.152 -40595.9 6015.22 -16247.5 -7.4119 
7038 2 14.7398 8.8458 6.52493 6.01049 -118759 -192821 10039.9 -30369.5 13918.2 -21764.2 -7.41298 
7039 2 15.4704 7.6305 6.52492 6.00485 -112879 -195798 -9105.26 -21476 4227.39 -11036.6 -7.41163 
7040 2 14.7805 6.39202 6.52807 6.00927 -128770 -182543 8035.18 -39661 13128 -20760.7 -7.41273 
7041 2 15.5112 5.17667 6.52752 6.0039 -126387 -182838 -6480.64 -29162.8 663.689 -13527.7 -7.41173 
7042 2 14.8222 3.93769 6.53035 6.00936 -139144 -171863 5375 -46433.1 11505.4 -19540.2 -7.41247 
7043 2 15.5527 2.7222 6.52919 6.0042 -140441 -169535 -3313.44 -34358.8 -2814.19 -15845 -7.41191 
7044 2 14.8644 1.48279 6.53158 6.01086 -149725 -161064 2283.18 -50278.2 9092.35 -18109.9 -7.41221 
7045 2 15.5945 0.26706 6.52977 6.00589 -154650 -155968 153.054 -36540.2 -5997.37 -17945 -7.41213 
7173 2 17.579 8.88883 6.51806 6.0017 -104463 -202985 -12938.2 -25883.9 3970.27 -10332.6 -7.41159 
7174 2 16.8883 7.65086 6.5211 6.00514 -121521 -189492 11501.8 -45438.2 14645.5 -22329.6 -7.41319 
7175 2 17.6187 6.43536 6.52073 6.00012 -118037 -189894 -9923.26 -35119.4 527.466 -12859.3 -7.41171 
7176 2 16.929 5.19685 6.52357 6.00466 -132537 -178234 8393.48 -53812.6 13659.8 -21068.4 -7.41289 
7177 2 17.6594 3.98124 6.52268 5.99978 -132446 -176387 -6238.09 -41935.9 -2894.89 -15244.8 -7.41191 
7178 2 16.9704 2.74226 6.52519 6.00558 -143721 -166822 4718.08 -59418.8 11847.4 -19617.8 -7.41257 
7179 2 17.7005 1.52645 6.52371 6.00081 -147163 -162663 -2117.3 -45838.4 -6108.22 -17453.9 -7.41216 
7180 2 17.0122 0.287069 6.52579 6.00797 -154812 -155390 727.107 -61808.1 9296.73 -17989.4 -7.41227 
7308 2 18.9969 8.90816 6.51433 6.00139 -114711 -196168 15564.9 -50386.5 15828.7 -23492.8 -7.41369 
7310 2 19.0366 6.45445 6.51688 6.0003 -125910 -184598 12068.7 -60393.1 15458.5 -22216.1 -7.41336 
7312 2 19.0771 4.00017 6.51877 6.00056 -137428 -172746 7875.39 -67681.8 14248.3 -20766.7 -7.41299 
7314 2 19.1182 1.54527 6.51981 6.0023 -149046 -160962 3228.09 -71899.3 12239.8 -19162.5 -7.41263 
1368 1 19.281 8.28061 2.88531 6.00705 -192750 -114658 -14503.6 55027 578.091 -11373.7 -7.41158 
1369 1 19.9687 7.04067 2.88592 6.00652 -196687 -115140 14152.3 44645.4 14084.2 -23816.1 -7.41361 
1370 1 19.2412 5.82318 2.88277 6.01258 -182361 -125968 -10732.4 64010.2 -2945.21 -13514.4 -7.41175 
1371 1 19.929 4.58337 2.88373 6.0039 -183058 -128347 9793.51 51980.7 13219.1 -22287.6 -7.41323 
1372 1 19.2006 3.36639 2.88098 6.01003 -171511 -137620 -6348.41 70072.3 -6390.95 -15530.8 -7.41199 
1373 1 19.8886 2.12679 2.88235 6.00078 -168835 -141919 4950.1 56321.7 11552.8 -20569.1 -7.41285 
1374 1 19.1595 0.910242 2.88009 6.00547 -160367 -149322 -1604.65 72809.4 -9559.43 -17415.2 -7.41229 
1503 1 22.113 8.24075 2.89219 6.00421 -202699 -109317 18578.5 50639 15367.5 -24346.5 -7.41411 
1504 1 21.3862 7.02277 2.88907 6.00968 -187726 -119821 -14906.5 70796.5 -3208.05 -12568.8 -7.41167 
1505 1 22.0742 5.78311 2.88989 6.00109 -189732 -122160 13792.1 59541.5 15055.6 -22888 -7.4137 
1506 1 21.3465 4.56566 2.88709 6.00864 -176951 -131483 -10031.2 78473 -6608.24 -14593.8 -7.41194 
1507 1 22.0347 3.32618 2.88825 5.99891 -175970 -135252 8398.49 65637.5 13912.8 -21259.3 -7.41327 
1508 1 21.3062 2.10919 2.88589 6.00334 -165814 -143073 -4664.72 82933 -9810.83 -16505.2 -7.41226 
1509 1 21.9947 0.869944 2.88741 5.99521 -161538 -148650 2656.39 68242.2 11999.6 -19476.8 -7.41284 
1638 1 23.5304 8.22391 2.89498 6.00727 -192272 -114284 -19531.3 76501.4 -3454.51 -11463.2 -7.41155 
1639 1 24.2188 6.98443 2.89569 5.99862 -195293 -116760 18274.4 66350 16562.2 -23041.1 -7.41419 
1640 1 23.4917 5.76651 2.8929 6.00639 -181978 -125715 -14257.9 85761.1 -6790.9 -13457 -7.41183 
1641 1 24.1802 4.52717 2.89386 5.99609 -182272 -129236 12428 74066.5 15947.5 -21521.5 -7.41372 
1642 1 23.4523 3.30974 2.89144 6.00163 -171349 -137195 -8366.9 91999.9 -10006.5 -15346.7 -7.41218 
1643 1 24.1409 2.0706 2.89271 5.99311 -168601 -142154 6109.88 78498.6 14511.8 -19868.2 -7.41324 
1644 1 23.4123 0.853581 2.89076 5.99699 -160260 -148782 -2121.21 94590.9 -12909.3 -17137 -7.41258 
1773 1 26.3627 8.18723 2.90107 5.99663 -199914 -112349 23109.7 72224.3 17717 -22736.1 -7.41469 
1774 1 25.6363 6.96888 2.89831 6.00431 -186039 -120770 -18905.7 91907.2 -6910.76 -12171.9 -7.4117 
1775 1 26.325 5.7297 2.8991 5.99351 -187589 -124228 16917.7 81595.3 17628.2 -21343.1 -7.41419 
1776 1 25.5977 4.51184 2.89667 6.00022 -176009 -131776 -12598.6 99771.6 -10111.6 -14004.8 -7.41206 
1777 1 26.2866 3.27283 2.89771 5.99132 -174758 -136189 10136 87837.1 16685.7 -19830.6 -7.41366 
1778 1 25.5585 2.0554 2.8957 5.99502 -165587 -142972 -5811.8 104288 -13088.4 -15746 -7.41248 
1779 1 26.2477 0.816612 2.89702 5.98798 -161419 -148517 3024.77 90557.1 14964.4 -18214.1 -7.41315 
1908 1 27.7802 8.17265 2.90327 6.00263 -189300 -116843 -23840.8 96581.2 -6960.75 -10784.4 -7.41153 
1909 1 28.4693 6.93367 2.90393 5.99149 -191965 -120296 21732.6 87923.2 18935.3 -20725.3 -7.41467 
1910 1 27.7425 5.7154 2.9015 5.99884 -179772 -127340 -17231.4 106146 -10112.9 -12530.2 -7.4119 
1911 1 28.4317 4.47655 2.90234 5.98895 -180132 -131405 14604.6 95949.3 18494.3 -19364.6 -7.41411 
1912 1 27.7041 3.25872 2.90029 5.99341 -170105 -137853 -10024.3 112500 -13127.2 -14190.4 -7.41233 
1913 1 28.3935 2.02004 2.90136 5.98621 -167570 -142773 7028.78 100491 17223.4 -17913.4 -7.41355 
1914 1 27.6653 0.802595 2.89976 5.98899 -160155 -148336 -2482.31 115071 -15816.9 -15773.8 -7.41283 
7309 2 19.7271 7.69248 6.51414 5.99693 -110241 -196471 -13965.7 -40583.7 289.388 -11961.5 -7.41165 
7311 2 19.7668 5.23869 6.51625 5.99588 -124662 -182944 -9829.5 -49021.1 -3062.59 -14349.4 -7.41186 
7313 2 19.8072 2.78423 6.51762 5.99614 -139475 -169283 -5128.16 -54740.2 -6287.06 -16591.4 -7.41214 
7315 2 19.8479 0.329074 6.51811 5.99782 -154435 -155502 -114.187 -57193.8 -9185.06 -18668.7 -7.41248 
7443 2 21.8364 8.94806 6.50788 5.99435 -103121 -201988 -18505.6 -45436.8 -14.1163 -10909.8 -7.41154 
7444 2 21.1451 7.71051 6.51044 5.9964 -119713 -190399 16312.7 -65921.1 16888 -22965.3 -7.41385 
7445 2 21.875 6.49457 6.51007 5.99262 -117296 -188887 -14000.3 -55497.3 -3275.03 -13252.1 -7.41177 
7446 2 21.1846 5.25649 6.5125 5.99597 -131424 -178493 11681.5 -74966.8 16272.1 -21541.7 -7.41346 
7447 2 21.9145 4.04042 6.51169 5.99213 -132169 -175457 -8805.4 -62964.8 -6483.01 -15469.6 -7.41208 
7448 2 21.2249 2.80188 6.51388 5.99698 -143114 -166597 6465.34 -81024.7 14819.4 -19982.2 -7.41304 
7449 2 21.9545 1.58558 6.51256 5.99301 -146951 -162012 -3167 -67277.4 -9458.49 -17546.9 -7.41243 
7450 2 21.2655 0.346656 6.51444 5.99946 -154705 -154785 925.468 -83724.9 12614.4 -18301.8 -7.41263 
7578 2 23.2544 8.96507 6.50437 5.99311 -114182 -195397 21011.1 -70475.7 17937.1 -23287.8 -7.41437 
7579 2 23.984 7.74891 6.50425 5.99008 -110995 -193750 -18635.7 -61209.8 -3500.74 -12014.8 -7.41164 
7580 2 23.2929 6.51128 6.50652 5.99195 -125734 -183697 16033 -81106.4 17900 -21920.2 -7.41394 
7581 2 24.0226 5.29503 6.50603 5.98881 -125291 -180879 -13044.6 -70309 -6663.09 -14164.4 -7.41196 
7582 2 23.3323 4.05692 6.50815 5.99218 -137511 -171824 10347.9 -88943.8 17007.3 -20428.3 -7.41348 
7583 2 24.0618 2.8405 6.5072 5.98887 -139871 -167883 -6886.97 -76545.2 -9681.13 -16190.6 -7.41234 
7584 2 23.3722 1.60197 6.50909 5.99386 -149006 -160221 4207.44 -93526.3 15302.8 -18831.3 -7.41302 
7585 2 24.1014 0.385293 6.50765 5.99028 -154397 -154938 -415.881 -79313.6 -12364.2 -18090.7 -7.41277 
7713 2 26.0938 9.00182 6.49887 5.98827 -105544 -197550 -23605.6 -65931.1 -3718.65 -10682.3 -7.41148 
7714 2 25.402 7.76461 6.50093 5.98859 -121035 -187991 20804.9 -86038.1 19117.9 -21878.1 -7.41445 
7715 2 26.1314 6.54815 6.50074 5.98626 -119293 -185306 -17722.9 -76771.1 -6804.35 -12730.3 -7.41181 
7716 2 25.4404 5.31045 6.50272 5.988 -132409 -176638 14756.9 -95552.3 18780.4 -20477 -7.41396 
7717 2 26.1697 4.09387 6.50214 5.98545 -133355 -173044 -11157.5 -84708 -9827.84 -14667.9 -7.4122 
7718 2 25.4795 2.85574 6.50397 5.98884 -143697 -165225 8131.9 -102012 17593 -18981.3 -7.41345 
7719 2 26.2086 1.63896 6.50293 5.98598 -147439 -160627 -4158.2 -89414.2 -12614.5 -16494.4 -7.41265 
7720 2 25.519 0.400465 6.50452 5.99117 -154800 -153939 1187.12 -104948 15644.4 -17403.5 -7.41295 
7848 2 27.5117 9.01656 6.49579 5.986 -117142 -191413 25857.4 -89563.1 19917.3 -21403.7 -7.41497 
7849 2 28.2408 7.79987 6.49589 5.98463 -114483 -188556 -22708.9 -81946.9 -6894.53 -11212.6 -7.41163 
7850 2 27.5492 6.56256 6.49769 5.98458 -128101 -180435 19558.7 -100733 20124.8 -20112.4 -7.41445 
7851 2 28.2783 5.34579 6.49745 5.983 -127758 -177177 -15851.1 -91729.5 -9885.9 -13033.9 -7.41202 
7852 2 27.5875 4.10804 6.49916 5.98454 -138977 -169649 12567.2 -109066 19463.4 -18734.9 -7.41391 
7853 2 28.3165 2.89112 6.4985 5.98262 -141438 -165647 -8444.67 -98383.1 -12730.6 -14754.6 -7.41249 
7854 2 27.6263 1.653 6.50004 5.98599 -149700 -158965 5134.26 -113965 17986.4 -17286.7 -7.41336 
7855 2 28.355 0.435851 6.49892 5.98364 -154710 -154175 -736.524 -101379 -15243 -16378.6 -7.413 
2043 1 30.613 8.13895 2.9083 5.98997 -194827 -117513 26737.3 92773.5 19861.1 -19682.7 -7.41515 
2044 1 29.8868 6.92031 2.9059 5.99709 -182613 -123830 -22129.1 110924 -10010.4 -10971 -7.41171 
2045 1 30.5763 5.68163 2.90657 5.98687 -184190 -127704 19380.5 102575 19919.5 -18481.8 -7.41457 
2046 1 29.8492 4.46343 2.9045 5.99222 -173923 -133663 -14624 119042 -13024.5 -12523.9 -7.41216 
2047 1 30.5388 3.22489 2.90535 5.98459 -172841 -138051 11466 109060 19116.1 -17201.1 -7.41397 
2048 1 29.8111 2.00708 2.9037 5.98725 -164635 -143408 -6666.64 123552 -15805.8 -14003.9 -7.41266 
2049 1 30.5009 0.768724 2.90475 5.98188 -161036 -148441 3245.44 111765 17536.3 -15849.9 -7.41338 
2178 1 32.0305 8.12641 2.90986 5.99585 -184060 -121396 -27158.7 114041 -9804.52 -9369.88 -7.41151 
2179 1 32.7204 6.88794 2.91038 5.98532 -186767 -125146 24333.5 107763 20956.9 -17207.7 -7.41503 
2180 1 31.9938 5.6694 2.90831 5.9914 -176349 -130386 -19474.5 123959 -12782.1 -10794.8 -7.41195 
2181 1 32.6836 4.43102 2.90895 5.98269 -176899 -134415 16200.6 116096 20628.1 -16098.3 -7.4144 
2182 1 31.9564 3.21287 2.90727 5.98593 -168273 -139378 -11229.1 130392 -15616.4 -12150.9 -7.41246 
2183 1 32.6463 1.97462 2.90808 5.97997 -166296 -143763 7652.72 120821 19473.5 -14931 -7.41377 
2184 1 31.9185 0.756803 2.90684 5.98186 -159889 -148276 -2673.15 133054 -18125.3 -13447.7 -7.41302 
2313 1 34.864 8.09533 2.91377 5.98446 -187970 -124167 29336.8 111200 21611.7 -15580.8 -7.41549 
2314 1 34.1379 6.87649 2.91171 5.99066 -177434 -128427 -24449.5 126956 -12411.3 -9049.24 -7.41172 
2315 1 34.828 5.63829 2.91218 5.98123 -179414 -132048 21104.9 121357 21757.8 -14642.6 -7.41484 
2316 1 34.1012 4.41985 2.91046 5.98505 -170713 -136432 -16037 135432 -15257.3 -10263.5 -7.41223 
2317 1 34.7914 3.18173 2.91107 5.97826 -170309 -140266 12349.2 128115 21045.7 -13653.7 -7.41418 
2318 1 34.0639 1.96361 2.90977 5.98048 -163475 -144268 -7205.75 140024 -17874.3 -11423.9 -7.41279 
2319 1 34.7543 0.725638 2.91053 5.97624 -160650 -148485 3313.38 130852 19568.4 -12621.4 -7.41353 
2448 1 36.2815 8.08452 2.9147 5.98996 -177170 -127751 -29430.6 127990 -11925.8 -7331.75 -7.4115 
2449 1 36.9721 6.84652 2.91504 5.98048 -180345 -131175 26059.8 124585 22510 -12872.9 -7.41527 
2450 1 36.2456 5.62782 2.9133 5.98464 -171699 -134687 -20967.6 138198 -14748.1 -8389.38 -7.41199 
2451 1 36.936 4.38986 2.91372 5.97688 -172882 -138131 17214.4 133166 22249.4 -12060.6 -7.41459 
2452 1 36.2089 3.17148 2.91236 5.97966 -165830 -141540 -11980.2 144768 -17429.7 -9397.8 -7.41254 
2453 1 36.8994 1.93361 2.91291 5.97494 -164796 -144949 7981.3 138017 21173.6 -11212.3 -7.41391 
2454 1 36.1719 0.715489 2.91199 5.9761 -159589 -148168 -2707.41 147456 -19793.3 -10365.8 -7.41315 
7983 2 30.3509 9.05034 6.49151 5.98395 -110972 -190314 -27867.7 -85816.5 -6923.56 -9652.16 -7.41142 
7984 2 29.6587 7.81337 6.49309 5.98206 -124894 -183096 24614.8 -104336 21040 -19334.4 -7.41495 
7985 2 30.3875 6.59638 6.49317 5.98152 -123588 -179919 -20832.8 -97274.5 -9848.98 -11336 -7.41182 
7986 2 29.6961 5.35898 6.49472 5.98113 -135107 -173018 17376 -114405 20904.5 -18089.5 -7.41438 
7987 2 30.4249 4.1419 6.49444 5.98029 -136177 -169438 -13141.4 -105763 -12709.1 -12926.6 -7.41229 
7988 2 29.7342 2.90412 6.49588 5.98163 -145439 -163018 9583.04 -121264 19916.4 -16783.2 -7.41379 
7989 2 30.4628 1.68686 6.49517 5.98035 -148738 -158938 -5035.44 -110792 -15335.9 -14428 -7.41281 
7990 2 29.7726 0.448766 6.49643 5.98365 -155234 -153206 1486.03 -124443 18165.9 -15421.6 -7.41321 
8118 2 31.7689 9.06305 6.48896 5.9805 -122862 -184462 29790.9 -106222 21536.9 -18159.5 -7.41545 
8119 2 32.4973 7.84581 6.48934 5.98098 -120418 -181224 -25970.9 -101203 -9713.88 -9616.51 -7.4116 
8120 2 31.8054 6.60872 6.4907 5.9787 -132558 -175129 22422.9 -117940 21917.6 -17056.8 -7.41485 
8121 2 32.5339 5.39144 6.49077 5.97892 -132190 -171911 -18112.4 -111524 -12551.2 -11058.5 -7.41206 
8122 2 31.8427 4.15397 6.49207 5.97826 -141928 -166114 14393.3 -126667 21425.6 -15900.1 -7.41424 
8123 2 32.5712 2.93658 6.49175 5.97805 -143814 -162491 -9733.94 -118431 -15247.1 -12418.7 -7.41258 
8124 2 31.8805 1.69879 6.49293 5.97928 -151051 -157106 5947.56 -131782 20118.9 -14696.9 -7.41361 
8125 2 32.6087 0.481226 6.49216 5.97827 -155188 -153167 -1069.64 -121611 -17620.5 -13706.1 -7.41316 
8253 2 34.6076 9.09424 6.48596 5.98065 -118913 -181142 -31142.1 -103622 -9477.91 -7916.73 -7.41137 
8254 2 33.9152 7.85742 6.48711 5.97724 -131030 -176198 27575.2 -119685 22512.1 -15661.1 -7.41533 
8255 2 34.6434 6.63991 6.48751 5.97793 -129602 -173083 -23232.1 -115508 -12263.1 -9195.53 -7.41182 
8256 2 33.9517 5.40272 6.48865 5.97588 -139644 -168019 19429.3 -130172 22516.7 -14658 -7.41469 
8257 2 34.68 4.18517 6.48869 5.97632 -140009 -164903 -14699.6 -124363 -14987 -10401.5 -7.41234 
8258 2 33.9888 2.94765 6.48976 5.97589 -147947 -160125 10759.4 -137249 21671.9 -13615.7 -7.41404 
8259 2 34.717 1.72999 6.48938 5.97555 -150585 -156760 -5776.24 -129506 -17485.5 -11540.7 -7.41291 
8260 2 34.0264 0.492215 6.49031 5.97746 -155852 -152245 1804.03 -140526 20073.5 -12538.3 -7.4134 
8388 2 36.0255 9.10525 6.48396 5.97679 -130986 -175835 32714.8 -119699 22708.6 -13934.2 -7.4158 
8389 2 36.7533 7.88749 6.48465 5.9776 -128251 -172806 -28383.1 -117836 -11850.7 -7381.26 -7.41157 
8390 2 36.0612 6.65054 6.48562 5.9745 -138674 -168781 24565.2 -131801 23202.3 -13086.1 -7.41515 
8391 2 36.7892 5.43279 6.48599 5.97518 -137741 -165927 -19809.7 -128397 -14567.1 -8421.84 -7.41208 
8392 2 36.0977 4.19551 6.48693 5.97354 -145842 -161852 15789.3 -140717 22829.4 -12206.8 -7.41447 
8393 2 36.8257 2.97771 6.48692 5.97389 -147050 -159048 -10743.6 -135537 -17146.2 -9402.04 -7.41264 
8394 2 36.1347 1.74018 6.48776 5.97406 -153022 -155094 6622.71 -146053 21651.3 -11299.9 -7.4138 
8395 2 36.8625 0.522259 6.48731 5.97362 -156124 -151963 -1407.95 -138732 -19412 -10329.1 -7.41326 
8524 2 38.1711 7.8976 6.48297 5.97421 -138876 -168157 29688.3 -131467 23501.3 -11217.7 -7.41559 
8526 2 38.2069 5.44255 6.48445 5.97228 -145240 -162373 20918.5 -142188 23602 -10500.9 -7.41491 
8528 2 38.2434 2.98726 6.48552 5.97178 -151205 -156715 11655.6 -149413 22860.2 -9763.06 -7.41421 
8530 2 38.2802 0.53171 6.48607 5.97281 -156879 -151068 2124.66 -152665 21373.5 -9004.7 -7.41353 
2583 1 39.1158 8.0555 2.91754 5.98004 -179567 -131590 30961.7 125623 22899.5 -10827.7 -7.4157 
2584 1 38.3896 6.83659 2.91578 5.98467 -171058 -134122 -25907.4 138651 -14102.2 -6568.78 -7.41174 
2585 1 39.0804 5.5988 2.91604 5.97614 -173799 -137116 22135.5 136008 23089.8 -10187 -7.41501 
2586 1 38.3536 4.38021 2.91463 5.97935 -166797 -139908 -16877.1 147202 -16811.4 -7413.97 -7.41228 
2587 1 39.0443 3.14245 2.91498 5.97358 -167264 -142737 12820.5 142959 22432 -9518.09 -7.4143 
2588 1 38.317 1.92412 2.91399 5.97536 -162042 -145438 -7457.13 151998 -19296.5 -8222.93 -7.41289 
2589 1 39.0078 0.686447 2.91448 5.97244 -160375 -148493 3242.73 145788 21024 -8822.26 -7.41362 
2718 1 40.5334 8.04595 2.91792 5.98479 -168838 -134904 -30758 137043 -13333.3 -4835.2 -7.41149 
2719 1 41.2245 6.80836 2.91806 5.97573 -172960 -137525 27013.8 136868 23579.1 -8071.03 -7.41541 
2720 1 40.498 5.5896 2.91659 5.97946 -166108 -139507 -21789.6 147500 -16034.4 -5506.91 -7.41202 
2721 1 41.1889 4.35198 2.91678 5.97283 -168102 -141905 17721 145693 23350.7 -7573.38 -7.4147 
2722 1 40.4619 3.13347 2.9157 5.97509 -162885 -143904 -12332.7 154250 -18600.9 -6149.61 -7.4126 
2723 1 41.1528 1.89588 2.916 5.97128 -162810 -146268 8065.15 150658 22319.4 -7057.52 -7.41399 
2724 1 40.4254 0.677567 2.91536 5.97212 -159385 -148344 -2610.07 157064 -20857.5 -6768.42 -7.41324 
2853 1 43.3684 8.01833 2.91977 5.97592 -170416 -139639 31755.5 135534 23728.8 -5742.85 -7.41581 
2854 1 42.6421 6.79945 2.91827 5.97957 -163772 -140581 -26624.7 145486 -15117.5 -3710.65 -7.41175 
2855 1 43.3334 5.562 2.91831 5.97247 -167393 -142471 22589.4 146176 23934.9 -5414.14 -7.41509 
2856 1 42.6065 4.34337 2.91716 5.97527 -162092 -143777 -17231.7 154276 -17727.5 -4176.46 -7.41232 
2857 1 43.2976 3.10588 2.91728 5.97063 -163911 -145469 12954 153266 23302.8 -5069.91 -7.41437 
2858 1 42.5704 1.88743 2.91654 5.97191 -160162 -146904 -7473.18 159205 -20121.2 -4626.79 -7.41294 
2859 1 43.2615 0.649964 2.91677 5.97015 -159652 -148585 3069.7 156329 21930 -4712.82 -7.41366 
2988 1 44.786 8.00955 2.91965 5.97995 -159684 -142980 -31290 141227 -14067.3 -2052.32 -7.4115 
2989 1 45.4777 6.77228 2.91958 5.97278 -164837 -144543 27333.2 144299 24192.2 -3062.19 -7.41548 
2990 1 44.751 5.55358 2.91836 5.9754 -159808 -145090 -22062.2 151810 -16692.2 -2334.46 -7.41204 
2991 1 45.4423 4.31622 2.91832 5.97037 -163060 -146186 17821 153369 23971.4 -2887.8 -7.41475 
2992 1 44.7152 3.09769 2.9175 5.97218 -159579 -146859 -12365.5 158830 -19185.2 -2606.65 -7.41264 
2993 1 45.4064 1.86029 2.91755 5.96964 -160815 -147836 7953.86 158500 22957.2 -2703.97 -7.41402 
2994 1 44.6791 0.641874 2.91716 5.96992 -158759 -148605 -2416.03 161747 -21373.9 -2873.45 -7.4133 
3123 1 47.6219 7.9826 2.92058 5.97351 -160645 -147978 31863.4 140316 24133.1 -541.643 -7.41584 
3124 1 46.8953 6.76388 2.91931 5.97595 -155622 -147566 -26733.9 147037 -15500.6 -644.212 -7.41177 
3125 1 47.5869 5.52666 2.91914 5.97074 -160514 -148130 22573.3 151076 24331.7 -529.656 -7.41511 