ITEM: TIMESTEP
0
ITEM: NUMBER OF ATOMS
12152
ITEM: BOX BOUNDS pp pp pp
0.0000000000000000e+00 9.5721004899999997e+01
0.0000000000000000e+00 1.6579364400000000e+02
0.0000000000000000e+00 1.5000000000000000e+01
ITEM: ATOMS id type x y z c_csym c_2[1] c_2[2] c_2[3] c_2[4] c_2[5] c_2[6] c_3 
152 1 0.819 8.586 3 6.02496 -157406 -144732 -151539 -3887.96 20411.9 -2545.28 -7.40759 
153 1 0.095 7.367 3 6.01967 -135175 -163852 -151547 -7873.08 22585.4 -263.141 -7.40791 
154 1 0.788 6.13 3 6.02431 -151663 -163659 -154598 -10840 16014.2 -2573.64 -7.40787 
155 1 0.063 4.912 3 6.02437 -137350 -175946 -155557 -8054.06 15090.8 -199.154 -7.40803 
156 1 0.756 3.675 3 6.02108 -148184 -151701 -157055 -7272.49 10198.2 -2329.32 -7.40738 
157 1 0.032 2.456 3 6.02216 -142622 -156815 -157820 -4614.68 7651.22 -66.2273 -7.40742 
158 1 0.725 1.219 3 6.02418 -138839 -134713 -158317 10214.5 3664.12 -2208.21 -7.40746 
159 1 0 0 3 6.02705 -136328 -150203 -158541 18357.4 -21.7066 48.3725 -7.40771 
288 1 2.237 8.568 3 6.02464 -131299 -144090 -148876 14273.9 25602.2 -4609.03 -7.40802 
289 1 2.93 7.331 3 6.02546 -154377 -145864 -151951 -3893.67 18315.2 -9578.8 -7.40781 
290 1 2.206 6.112 3 6.02134 -139844 -159268 -153474 1422.22 18614.8 -5238.44 -7.40784 
291 1 2.899 4.875 3 6.02464 -145407 -130838 -154842 6729.1 13310.4 -9360.05 -7.40742 
292 1 2.174 3.656 3 6.0239 -132766 -141554 -156466 8713.54 10992.4 -5720.32 -7.40743 
293 1 2.867 2.419 3 6.02224 -155976 -184308 -156902 -25346.9 7191.4 -8919.84 -7.40778 
294 1 2.143 1.201 3 6.02154 -148149 -166391 -157919 -30601.3 3529.07 -6141.88 -7.40742 
423 1 5.073 8.532 3 6.0239 -145988 -129750 -147652 1742.11 20392.7 -16386.8 -7.40796 
424 1 4.348 7.313 3 6.02464 -133625 -143286 -150526 14822.4 21252.7 -9330.04 -7.40768 
425 1 5.041 6.076 3 6.02134 -152218 -147317 -151163 -6013.26 16074.7 -16041.5 -7.40798 
426 1 4.317 4.857 3 6.02546 -141497 -158427 -154040 3897.62 14031.8 -10504.4 -7.40768 
427 1 5.01 3.62 3 6.02464 -142289 -132195 -153694 6478.76 10724.6 -15599.1 -7.40773 
428 1 4.285 2.401 3 6.02471 -134739 -138515 -156044 16112.3 6502.38 -11496.5 -7.40767 
429 1 4.978 1.164 3 6.02331 -149756 -165174 -155393 -13163.5 4273.96 -14863.9 -7.40763 
558 1 6.491 8.513 3 6.01969 -137077 -164209 -146924 1151.56 23250.2 -12559.2 -7.40798 
559 1 7.184 7.276 3 6.02431 -152880 -164319 -145675 -16216.6 18641.4 -22494.4 -7.40841 
560 1 6.459 6.058 3 6.02431 -139192 -176554 -151045 -2543.53 16211.6 -14297.7 -7.40808 
561 1 7.152 4.821 3 6.01969 -149450 -152134 -149037 -13103.7 13953.5 -21911 -7.40785 
562 1 6.428 3.602 3 6.02362 -144200 -157792 -153202 4201.49 9087.87 -16012.6 -7.40749 
563 1 7.121 2.365 3 6.02418 -139556 -134631 -151486 4108.43 8253.05 -21047.8 -7.40794 
564 1 6.396 1.146 3 6.02468 -137976 -149466 -154037 23156.5 1718.17 -17358.8 -7.40798 
693 1 9.326 8.477 3 6.02546 -155661 -147524 -138746 -8704.15 20691.6 -28290.7 -7.4086 
694 1 8.602 7.258 3 6.02134 -139047 -160346 -147261 8306.33 17822.6 -17128.1 -7.40821 
695 1 9.295 6.021 3 6.02464 -146707 -132137 -142592 1473.44 16934.5 -27764.5 -7.40815 
696 1 8.57 4.802 3 6.0239 -131789 -143093 -149759 15524.6 10907.2 -19387.7 -7.40784 
697 1 9.263 3.565 3 6.0231 -156240 -186818 -146088 -31193.6 11989.9 -26728.3 -7.40835 
698 1 8.539 2.347 3 6.02311 -151045 -189875 -150887 -13627.8 3861.01 -21287.7 -7.40814 
699 1 9.232 1.11 3 6.02182 -132196 -118519 -148450 7607.51 6148.59 -25417.8 -7.40762 
6096 2 0.599 8.604 6.4 6.02334 -120248 -132545 -149023 6928.42 25923.9 -1093.66 -7.40769 
6097 2 0.63 6.149 6.4 6.02313 -136962 -180357 -153796 9946.19 18844.6 -1499.2 -7.4077 
6098 2 0.662 3.693 6.4 6.02461 -127278 -125617 -156802 3602.95 11240.9 -1739.96 -7.40711 
6099 2 0.693 1.237 6.4 6.02628 -133432 -140926 -158339 -10216.1 3775.75 -1992.69 -7.40735 
6100 2 0 0 6.4 6.02658 -138454 -150517 -158590 -3141.37 21.5732 -7.85133 -7.40734 
6228 2 2.017 8.623 6.4 6.01968 -151595 -147215 -150926 6725.85 20551.8 -7003.66 -7.40796 
6229 2 2.741 7.404 6.4 6.02495 -141169 -161518 -151058 5997.23 21998.5 -5925.69 -7.40761 
6230 2 2.048 6.167 6.4 6.02385 -142351 -129028 -154022 -14636.7 16152.5 -6895.56 -7.40805 
6231 2 2.773 4.948 6.4 6.02464 -133495 -140673 -154843 -8360.19 14715.5 -6879.18 -7.40766 
6232 2 2.08 3.711 6.4 6.02511 -147967 -149810 -156505 931.316 10420.2 -6772.22 -7.40776 
6233 2 2.804 2.492 6.4 6.02273 -142734 -155744 -156993 4372.71 7166.31 -7715.19 -7.40762 
6234 2 2.111 1.255 6.4 6.02555 -138473 -135882 -157811 -13400.3 3891.4 -6357.42 -7.4074 
6235 2 2.836 0.036 6.4 6.02352 -140629 -148745 -157655 -9851.64 -229.743 -8380.04 -7.4074 
6363 2 4.852 8.659 6.4 6.02546 -138712 -162308 -147655 6517.31 24444 -9397.1 -7.40807 
6364 2 4.159 7.422 6.4 6.02464 -146893 -127947 -150513 -14812 18733.9 -13702.1 -7.40792 
6365 2 4.884 6.203 6.4 6.02417 -131775 -141691 -151999 -5831.65 17407.2 -11093.6 -7.40796 
6366 2 4.191 4.966 6.4 6.02362 -153462 -148796 -153479 -836.924 13770.3 -13445.7 -7.40747 
6367 2 4.915 3.747 6.4 6.01968 -140167 -160026 -154676 11809.3 10185.4 -12487.4 -7.40752 
6368 2 4.222 2.51 6.4 6.02431 -147552 -167770 -155599 5758.51 7730.27 -13018.9 -7.40782 
6369 2 4.947 1.292 6.4 6.02432 -144055 -170470 -155723 15359.5 2679.09 -13890.5 -7.40788 
6370 2 4.254 0.055 6.4 6.01897 -140595 -133324 -156382 -8862.61 837.751 -12408.8 -7.40723 
6498 2 6.27 8.677 6.4 6.02464 -150007 -127928 -145356 -14477.6 21023.9 -20218.5 -7.40798 
6499 2 6.995 7.458 6.4 6.0239 -129520 -145738 -148499 1527.54 19412.5 -14291.9 -7.40792 
6500 2 6.302 6.221 6.4 6.02311 -159736 -182707 -148954 17118.4 16812.6 -19867.2 -7.40818 
6501 2 7.026 5.003 6.4 6.0231 -147352 -194086 -151492 30173.1 12403.4 -16382.8 -7.40803 
6502 2 6.333 3.766 6.4 6.0239 -140773 -134554 -151542 -12092.6 11521.2 -19354.1 -7.40773 
6503 2 7.058 2.547 6.4 6.02464 -137028 -139318 -152962 -2113.59 5266.81 -18286.3 -7.40753 
6504 2 6.365 1.31 6.4 6.02134 -146428 -153063 -153447 -5017.13 5143.49 -18546.3 -7.4078 
6505 2 7.089 0.091 6.4 6.02446 -146472 -166915 -152910 3544.62 -1748.27 -19800.7 -7.40802 
6633 2 9.106 8.714 6.4 6.02431 -136964 -179265 -144701 19678 20598.4 -16445.7 -7.40847 
6634 2 8.413 7.477 6.4 6.01968 -152905 -149907 -142577 -391.246 19488.2 -25900.8 -7.40824 
6635 2 9.137 6.258 6.4 6.02362 -141504 -160872 -147831 12678.7 14096.5 -19114.8 -7.40781 
6636 2 8.444 5.021 6.4 6.02417 -143599 -131392 -146047 -18719.8 14990.2 -25262.8 -7.40832 
6637 2 9.169 3.802 6.4 6.02464 -134135 -140454 -149459 -1853.05 7107.42 -21651.3 -7.40798 
6638 2 8.476 2.565 6.4 6.02546 -149136 -152010 -148828 -6949.92 9421.07 -24198.2 -7.40799 
6639 2 9.2 1.346 6.4 6.02287 -143047 -156751 -149735 10612.2 400.838 -23622.1 -7.40803 
6640 2 8.507 0.109 6.4 6.0246 -141142 -148781 -150373 -13158.1 3018.18 -22984.6 -7.40796 
828 1 10.744 8.459 3 6.02464 -132808 -144102 -143565 21191.2 18618.4 -18746.4 -7.40809 
829 1 11.437 7.222 3 6.02134 -153565 -149507 -134935 -10623.2 19445.1 -32731.8 -7.40895 
830 1 10.713 6.003 3 6.02546 -140507 -159824 -146052 10246.1 12184.8 -21538.8 -7.40817 
831 1 11.406 4.766 3 6.02464 -143547 -133943 -139030 1492.09 15397.5 -31799.9 -7.40861 
832 1 10.681 3.547 3 6.02417 -134140 -139602 -147147 22298.1 5337.69 -24034.2 -7.40825 
833 1 11.374 2.31 3 6.02362 -149445 -155251 -142405 -13529.2 10353.6 -30417.7 -7.40809 
834 1 10.65 1.091 3 6.0209 -147482 -169152 -146878 10961.2 -1323.38 -26227.4 -7.40801 
963 1 13.58 8.422 3 6.02431 -154281 -167396 -125626 -20097.9 21603.3 -37057 -7.40961 
964 1 12.855 7.204 3 6.02431 -138186 -177669 -142376 3161.13 12723.3 -22659.4 -7.40861 
965 1 13.548 5.967 3 6.01969 -150739 -154676 -130738 -17360.9 18379.4 -36012.1 -7.40896 
966 1 12.824 4.748 3 6.02362 -143085 -159611 -143493 9857.88 6289.46 -25601.8 -7.40807 
967 1 13.517 3.511 3 6.02417 -141319 -135797 -134817 -328.239 14241.8 -34758.3 -7.40898 
968 1 12.792 2.292 3 6.02467 -135470 -140393 -142904 23923.4 -180.243 -28322.5 -7.40834 
969 1 13.485 1.055 3 6.02547 -149327 -168414 -138476 -20125.5 9054.53 -32842.5 -7.40864 
1098 1 14.998 8.404 3 6.02134 -138074 -161118 -138837 13212.4 12755.1 -22811.2 -7.40873 
1099 1 15.691 7.167 3 6.02464 -148080 -135498 -120858 -1991.06 21051.8 -39558.9 -7.40945 
1100 1 14.966 5.948 3 6.0239 -130667 -144660 -139633 20436.2 6550.4 -26240.2 -7.40845 
1101 1 15.659 4.711 3 6.02067 -157543 -189586 -125997 -34918.1 17664.1 -38214 -7.40956 
1102 1 14.935 3.493 3 6.0231 -150385 -194298 -139099 -6733.05 527.659 -29278.5 -7.40853 
1103 1 15.628 2.256 3 6.02419 -137722 -141235 -130701 -1676.62 13321.9 -36404.2 -7.40907 
1104 1 14.903 1.037 3 6.02468 -138009 -151777 -137223 29782.2 -5566.26 -31949.5 -7.40899 
1233 1 17.833 8.368 3 6.02512 -153368 -154533 -110008 -14856.1 23163.1 -42254.2 -7.41055 
1234 1 17.109 7.149 3 6.02628 -139406 -161032 -136460 14331.6 6529.92 -25850.7 -7.40874 
1235 1 17.802 5.912 3 6.02656 -142534 -138040 -115843 279.744 20686.2 -40964.1 -7.41021 
1236 1 17.077 4.693 3 6.0242 -131408 -144117 -135459 26581.7 630.518 -29242.9 -7.40883 
1237 1 17.77 3.456 3 6.0231 -157433 -192278 -121663 -34248.1 17172.2 -39129.5 -7.40957 
1238 1 17.046 2.238 3 6.02067 -150939 -192086 -133436 -7931.27 -5088.85 -32291.1 -7.40919 
1239 1 17.739 1.001 3 6.02182 -133160 -120099 -126676 2756.47 12771 -37003.3 -7.40905 
6768 2 10.524 8.732 6.4 6.02134 -155683 -147255 -134981 -6580.12 21674.5 -31087.7 -7.40895 
6769 2 11.248 7.513 6.4 6.02546 -138868 -161534 -144111 12670.8 15058.1 -20715.1 -7.40828 
6770 2 10.555 6.276 6.4 6.02464 -145836 -131728 -138988 -20136.9 18122.9 -30413 -7.40861 
6771 2 11.28 5.057 6.4 6.02417 -132209 -141430 -145824 194.049 8493.28 -23715.6 -7.40833 
6772 2 10.587 3.82 6.4 6.02362 -152267 -152214 -142563 -6484.9 13304.4 -29439.1 -7.40813 
6773 2 11.311 2.601 6.4 6.01969 -140898 -160285 -146020 17648.1 1917.9 -26336.9 -7.40804 
6774 2 10.618 1.364 6.4 6.02433 -147293 -169199 -145195 -315.859 7742.22 -28005.4 -7.40851 
6775 2 11.343 0.146 6.4 6.02372 -140787 -149585 -144828 31340.6 -4528.49 -28599.7 -7.40829 
6903 2 13.359 8.768 6.4 6.02299 -137965 -162408 -140476 14239.4 15421.1 -21254.6 -7.4085 
6904 2 12.666 7.531 6.4 6.02464 -149005 -132468 -130592 -19274.7 20772 -34882.6 -7.40887 
6905 2 13.391 6.312 6.4 6.0239 -129158 -144967 -142112 6664.4 9210.19 -24733.6 -7.40842 
6906 2 12.698 5.075 6.4 6.0231 -158575 -186845 -134860 12034.6 16878.9 -33853.5 -7.40902 
6907 2 13.422 3.857 6.4 6.02311 -147900 -194318 -142289 35393.8 2938.55 -27809.1 -7.40858 
6908 2 12.729 2.62 6.4 6.0239 -139509 -138212 -138371 -17398 12057.1 -32481.1 -7.40853 
6909 2 13.454 1.401 6.4 6.02467 -137358 -141070 -140889 2852.12 -3342.51 -30650 -7.40821 
6910 2 12.761 0.164 6.4 6.02222 -148903 -168153 -141295 -3504.74 6376.35 -30578.3 -7.40848 
7038 2 14.777 8.786 6.4 6.02461 -149087 -135603 -120706 -19661 22958 -38630.6 -7.40935 
7039 2 15.502 7.567 6.4 6.02236 -135840 -180071 -138721 -8941.43 9460.38 -24748.4 -7.40882 
7040 2 14.809 6.331 6.4 6.01968 -158873 -188535 -125584 -22010.2 19993.4 -37650.7 -7.40958 
7041 2 15.533 5.112 6.4 6.0231 -140484 -163484 -138542 17413.9 3382.72 -28274.1 -7.40825 
7042 2 14.84 3.875 6.4 6.02417 -142361 -135693 -130315 -23366.7 16069.5 -36125.4 -7.40925 
7043 2 15.565 2.656 6.4 6.02464 -134803 -141250 -137209 2478.12 -2522.73 -31413.1 -7.40872 
7044 2 14.872 1.419 6.4 6.02546 -147266 -156555 -134230 -11626.9 11061.6 -34281 -7.40883 
7045 2 15.596 0.2 6.4 6.02446 -147505 -170691 -134531 7891.66 -8219.84 -34109 -7.40888 
7173 2 17.613 8.823 6.4 6.02431 -136192 -179422 -135717 25283.1 9184.51 -24005.3 -7.40901 
7174 2 16.92 7.586 6.4 6.01968 -152718 -155137 -115280 -5536.49 22633.4 -40571.2 -7.41 
7175 2 17.644 6.367 6.4 6.02413 -140764 -161997 -135425 18189.4 3554.72 -27720.5 -7.40856 
7176 2 16.951 5.13 6.4 6.02413 -144564 -136636 -120716 -24103.5 19534.3 -39152.6 -7.40972 
7177 2 17.676 3.911 6.4 6.02464 -133457 -142572 -133622 3543.74 -2256 -31275 -7.40893 
7178 2 16.983 2.674 6.4 6.02546 -149285 -156030 -125903 -12353.1 15460.5 -37232.5 -7.40937 
7179 2 17.707 1.455 6.4 6.02287 -142458 -159845 -130819 15879.7 -7674.25 -34249.7 -7.40916 
7180 2 17.014 0.218 6.4 6.0246 -141164 -151904 -129964 -18743.6 10540.6 -35003.2 -7.40919 
7308 2 19.031 8.841 6.4 6.02134 -156173 -153840 -104015 -10581.7 24733.4 -42794.3 -7.41082 
7310 2 19.062 6.385 6.4 6.02464 -146150 -137518 -110039 -24329.2 22556.2 -41408.9 -7.41036 
7312 2 19.094 3.929 6.4 6.02362 -152411 -157148 -116093 -10838.2 19298.8 -39567.3 -7.40972 
7314 2 19.125 1.473 6.4 6.02433 -147302 -173216 -121509 -4786.67 15255.8 -37337.9 -7.40993 
1368 1 19.251 8.35 3 6.02464 -123538 -130231 -133749 13339.2 5965.38 -24832.8 -7.4085 
1369 1 19.945 7.113 3 6.02413 -184448 -123485 -104777 -14763.5 23243.1 -42955.1 -7.41098 
1370 1 19.22 5.894 3 6.02931 -130479 -146721 -132457 28055.1 467.811 -28401.7 -7.40879 
1371 1 19.913 4.657 3 6.02877 -140781 -142166 -111400 -313.311 20576.3 -41216.6 -7.41027 
1372 1 19.188 3.438 3 6.02417 -133911 -141665 -129925 26908.7 -5137.55 -31726.6 -7.40928 
1373 1 19.881 2.201 3 6.02217 -146695 -160566 -117517 -19255.4 16993 -39090.4 -7.4098 
1374 1 19.157 0.982 3 6.02337 -147364 -172183 -126275 15499.2 -10408.7 -34715.5 -7.40925 
1503 1 22.087 8.313 3 6.02335 -152287 -178677 -92650.7 -22169 25378.7 -44192.3 -7.41138 
1504 1 21.362 7.095 3 6.02292 -177071 -163337 -130034 -5322.85 -34.2736 -27000 -7.40953 
1505 1 22.056 5.858 3 6.02221 -182003 -128059 -100277 -19509.2 23524.2 -42548.5 -7.41101 
1506 1 21.331 4.639 3 6.02699 -133049 -147363 -127288 26481.1 -5419.41 -30435.6 -7.40885 
1507 1 22.024 3.402 3 6.02498 -138296 -145826 -107213 -1553.12 20761.9 -40556.6 -7.41044 
1508 1 21.299 2.183 3 6.02465 -126348 -129378 -122810 14766.1 -10569.4 -33680.9 -7.40936 
1509 1 21.993 0.946 3 6.02451 -180401 -140757 -113912 -23709.6 17039.3 -38140.1 -7.41021 
1638 1 23.505 8.295 3 6.02359 -128030 -147781 -128620 28679.5 -828.679 -25068.4 -7.40915 
1639 1 24.198 7.058 3 6.02699 -145922 -146692 -87916.8 -3107.19 26071.7 -43180.6 -7.41123 
1640 1 23.473 5.839 3 6.02221 -169579 -131238 -124780 10765.9 -6005.31 -28692.3 -7.40952 
1641 1 24.167 4.602 3 6.02292 -188648 -162728 -95999.6 -36041.4 23976.7 -41331.2 -7.41158 
1642 1 23.442 3.384 3 6.02335 -138779 -182328 -120388 6849.6 -10898.2 -31969 -7.40972 
1643 1 24.135 2.147 3 6.0236 -136829 -148277 -103994 -7843.29 21002.9 -39036.6 -7.41046 
1644 1 23.41 0.928 3 6.02386 -171633 -107147 -114524 1167.13 -15583.3 -35044.3 -7.40996 
1773 1 26.341 8.259 3 6.02413 -186397 -128599 -75236.9 -13412 28061.6 -43146.1 -7.41277 
1774 1 25.616 7.04 3 6.03041 -129411 -148702 -123656 28573.6 -6628.7 -26429.4 -7.40932 
1775 1 26.309 5.803 3 6.03041 -142595 -148480 -84109.3 -1487.76 26759 -41396.5 -7.4117 
1776 1 25.584 4.584 3 6.02413 -171827 -129152 -118526 15465.9 -11439.1 -29798.9 -7.41015 
1777 1 26.278 3.347 3 6.02464 -182197 -130279 -92971.5 -16543.5 24572.3 -39329.5 -7.41133 
1778 1 25.553 2.128 3 6.02504 -132574 -149125 -112241 22409.7 -16057.1 -32896.5 -7.40996 
1779 1 26.246 0.891 3 6.02584 -137270 -161139 -101281 -11460.2 21403.3 -36875 -7.41094 
1908 1 27.758 8.241 3 6.02292 -176218 -165275 -123248 -5673.06 -7328.58 -23935.5 -7.40994 
1909 1 28.452 7.004 3 6.02221 -183386 -133713 -71678 -18420.2 28992.2 -40820.9 -7.41274 
1910 1 27.727 5.785 3 6.02699 -131863 -150023 -117795 26170 -11999.7 -27183.6 -7.40943 
1911 1 28.42 4.548 3 6.02359 -140131 -150197 -81368.1 -1492.78 27608.7 -38829.2 -7.412 
1912 1 27.695 3.329 3 6.02464 -173584 -130573 -110972 14963.5 -16566.5 -30357 -7.41048 
1913 1 28.389 2.092 3 6.02456 -178373 -132559 -90625.4 -14601.7 25123.5 -36716.1 -7.41167 
1914 1 27.664 0.873 3 6.02835 -137182 -162537 -103345 33851.9 -20667.4 -33207.2 -7.41057 
7309 2 19.755 7.622 6.4 6.02546 -138153 -162335 -132736 17094.1 3390.07 -26509.3 -7.40896 
7311 2 19.787 5.166 6.4 6.02417 -131504 -143255 -130762 4498.77 -2202.77 -30239.4 -7.40923 
7313 2 19.818 2.71 6.4 6.01968 -140252 -163122 -127484 21850.9 -7550.36 -33571.1 -7.40915 
7315 2 19.85 0.255 6.4 6.02372 -136406 -156528 -122982 33562.9 -12614.3 -36530.5 -7.40969 
7443 2 21.866 8.877 6.4 6.02134 -134329 -163069 -130949 19433.2 2793.77 -24764.3 -7.40941 
7444 2 21.173 7.64 6.4 6.02464 -149354 -139196 -98644.2 -22492.9 25080 -42963.2 -7.4108 
7445 2 21.898 6.421 6.4 6.02359 -126745 -147533 -128424 8363.48 -2424 -28592.9 -7.40934 
7446 2 21.205 5.184 6.4 6.02311 -158728 -192664 -105260 8737.12 22680.2 -41196.2 -7.41081 
7447 2 21.929 3.966 6.4 6.02166 -144945 -197395 -124806 40192.8 -7658.62 -32093.8 -7.40984 
7448 2 21.236 2.729 6.4 6.0239 -139496 -143114 -111697 -20744.3 19454.7 -39062.7 -7.41013 
7449 2 21.961 1.51 6.4 6.02653 -134278 -147160 -119734 3811.59 -12590.1 -35341.5 -7.40948 
7450 2 21.268 0.273 6.4 6.02466 -139059 -157867 -117720 -20045.4 15309.5 -36556.1 -7.40971 
7578 2 23.284 8.895 6.4 6.02431 -146739 -161250 -85743.3 9997.43 27099.7 -43873 -7.41184 
7579 2 24.009 7.677 6.4 6.0248 -133878 -184582 -126999 24642.9 -2988.5 -26514.7 -7.40932 
7580 2 23.316 6.44 6.4 6.02246 -142214 -147330 -93451.7 -20277.8 25601.4 -42168.9 -7.41101 
7581 2 24.041 5.221 6.4 6.02464 -172296 -130815 -122698 19498.2 -8040.85 -30162.7 -7.40953 
7582 2 23.347 3.984 6.4 6.02413 -133465 -127536 -100908 -13031.9 23146.5 -40151.3 -7.41084 
7583 2 24.072 2.765 6.4 6.03069 -131573 -149088 -117537 2672.78 -12843.2 -33419.5 -7.40969 
7584 2 23.379 1.528 6.4 6.02784 -137413 -147209 -108234 -27036.7 19670.2 -37728 -7.41021 
7585 2 24.104 0.309 6.4 6.02428 -178448 -141914 -110927 9152.59 -17206.5 -36472.4 -7.41052 
7713 2 26.12 8.932 6.4 6.02699 -129135 -150153 -126278 6025.24 -3502.29 -24110.8 -7.40892 
7714 2 25.427 7.695 6.4 6.02359 -145099 -146202 -80857.3 -24770.8 27980.3 -42453.1 -7.41203 
7715 2 26.152 6.476 6.4 6.02464 -170167 -130662 -121834 16536.2 -8456.74 -27765.5 -7.40983 
7716 2 25.458 5.239 6.4 6.02464 -183804 -128083 -89280.7 -13285.7 26236.4 -40567.4 -7.41179 
7717 2 26.183 4.02 6.4 6.02359 -130282 -149255 -115892 3834.38 -13136 -31075.5 -7.40991 
7718 2 25.49 2.783 6.4 6.02699 -141030 -148057 -97407.8 -24814.1 23638.6 -38308.4 -7.41066 
7719 2 26.215 1.564 6.4 6.02271 -173577 -131197 -109196 21153.4 -17599.1 -34170.9 -7.41055 
7720 2 25.521 0.327 6.4 6.02451 -178636 -140893 -105291 -5985.77 20127.5 -35765.4 -7.4111 
7848 2 27.538 8.95 6.4 6.03041 -147374 -148542 -68048.8 -24167.4 29798.9 -42034.4 -7.41268 
7849 2 28.263 7.731 6.4 6.02413 -168691 -131084 -121585 16344.8 -8874.05 -25037.1 -7.40997 
7850 2 27.569 6.494 6.4 6.02464 -187003 -130276 -76814.2 -10675.1 28872.2 -40294.7 -7.41231 
7851 2 28.294 5.275 6.4 6.0236 -127819 -153064 -115559 8518.56 -13507.4 -28384.6 -7.40969 
7852 2 27.601 4.038 6.4 6.02335 -147213 -184067 -86141.4 -4524.85 26966.6 -38224 -7.41178 
7853 2 28.326 2.82 6.4 6.02292 -179607 -166621 -107922 36820.8 -17931.3 -31447.5 -7.41086 
7854 2 27.632 1.583 6.4 6.02221 -177921 -131238 -94643.6 -8856.21 24249.9 -35855.8 -7.41142 
7855 2 28.357 0.364 6.4 6.0251 -130003 -129951 -99861.1 16403.7 -21901 -34197.8 -7.41045 
2043 1 30.594 8.204 3 6.02699 -147333 -152946 -58602.3 -1279.45 30825.9 -39316.2 -7.41301 
2044 1 29.869 6.985 3 6.02221 -168062 -134448 -117847 8534.41 -12649.2 -24331.8 -7.40993 
2045 1 30.563 5.748 3 6.02431 -141786 -169683 -68939.7 -34685.7 30151.8 -37678.9 -7.41286 
2046 1 29.838 4.53 3 6.0248 -136887 -186288 -110470 6721.26 -17049.3 -27414.9 -7.41031 
2047 1 30.531 3.293 3 6.02245 -137098 -154875 -79505.3 -6119.94 28271.7 -35799.8 -7.41186 
2048 1 29.806 2.074 3 6.02466 -175255 -133884 -102311 11263.8 -21160.5 -30262.3 -7.41071 
2049 1 30.5 0.837 3 6.02471 -131598 -147104 -89654.1 -21767.1 25713.8 -33583.5 -7.41144 
2178 1 32.012 8.186 3 6.02656 -128301 -148079 -118792 27651.5 -13147.4 -21207.1 -7.41004 
2179 1 32.705 6.949 3 6.02628 -153637 -168768 -56608.5 -12022.5 32072.1 -35701 -7.41357 
2180 1 31.981 5.73 3 6.02134 -136926 -166099 -111050 11131.6 -17495.3 -24134.5 -7.41061 
2181 1 32.674 4.493 3 6.02464 -144182 -151103 -67597.7 -1889.67 30979 -34101 -7.41268 
2182 1 31.949 3.274 3 6.02359 -129819 -151495 -102338 21673.7 -21609.4 -26882.9 -7.4109 
2183 1 32.642 2.037 3 6.02279 -154400 -201748 -78964 -34411.6 28963.5 -32185.9 -7.41248 
2184 1 31.918 0.819 3 6.02009 -145201 -178979 -92874.4 -21380.2 -25248.6 -29466.7 -7.4116 
2313 1 34.848 8.15 3 6.0239 -145554 -155369 -43998.6 -3288.78 33381.3 -32985.9 -7.41424 
2314 1 34.123 6.931 3 6.02464 -132989 -149367 -112569 22748.5 -17853.4 -20711.6 -7.40996 
2315 1 34.816 5.694 3 6.02134 -151171 -170270 -56042.4 -11346.9 33044.8 -31584.3 -7.41373 
2316 1 34.092 4.475 3 6.02546 -140841 -167556 -103587 11652.7 -21893.8 -23261.2 -7.41072 
2317 1 34.785 3.238 3 6.02464 -140823 -152372 -67748.2 890.403 31714.9 -29992.3 -7.41292 
2318 1 34.06 2.019 3 6.02471 -134139 -150728 -93447 23684.3 -25683.9 -25737.6 -7.41144 
2319 1 34.753 0.782 3 6.02331 -148084 -182325 -79490 -18988.4 29426.5 -28206.4 -7.4122 
2448 1 36.266 8.131 3 6.01969 -136546 -169905 -114982 5320.56 -18019 -17014.2 -7.40991 
2449 1 36.959 6.894 3 6.02431 -152060 -189683 -44022.5 -18300.4 34565.2 -28169.9 -7.41456 
2450 1 36.234 5.676 3 6.02431 -138554 -185388 -105602 1532.62 -22060.6 -19473.4 -7.41081 
2451 1 36.927 4.439 3 6.01968 -148118 -174655 -56601.9 -15305.4 33852 -27022.4 -7.41345 
2452 1 36.203 3.22 3 6.02362 -143531 -169723 -94996.1 8172.11 -25820.5 -21665.5 -7.41099 
2453 1 36.896 1.983 3 6.02418 -137988 -154274 -69017.2 1834.23 32185.3 -25580.9 -7.41292 
2454 1 36.171 0.764 3 6.02468 -137308 -164499 -83846.4 27066.7 -29195.1 -23746.9 -7.41221 
7983 2 30.374 8.986 6.4 6.02221 -166740 -134502 -122558 20711 -9387.55 -22198.1 -7.40966 
7984 2 29.68 7.749 6.4 6.02292 -193303 -166769 -63945.5 9874.7 30872.6 -39317.5 -7.41352 
7985 2 30.405 6.531 6.4 6.02335 -135242 -186480 -115680 23933.8 -13940.3 -25335.5 -7.41 
7986 2 29.712 5.294 6.4 6.0236 -140451 -153470 -73870.4 -19561.6 29882.7 -37397.5 -7.4122 
7987 2 30.437 4.075 6.4 6.02464 -173650 -133369 -108043 16608.2 -18317.4 -28352.2 -7.41041 
7988 2 29.743 2.838 6.4 6.02413 -179761 -131699 -83762.7 -12769.2 27688.8 -35274.8 -7.41225 
7989 2 30.468 1.619 6.4 6.02783 -132689 -153091 -99154.8 1767.01 -22223.5 -31103.8 -7.41075 
7990 2 29.775 0.382 6.4 6.02835 -138749 -164546 -93351.5 -20078.2 24794.5 -32905.2 -7.41106 
8118 2 31.791 9.005 6.4 6.02221 -186018 -137125 -50541.9 -3949.56 32408.3 -37499.7 -7.41402 
8119 2 32.516 7.786 6.4 6.02699 -129823 -152776 -117107 3459.71 -14260.9 -22159.5 -7.40946 
8120 2 31.823 6.549 6.4 6.02498 -142677 -153399 -61325.9 -24470 32093.1 -35856.2 -7.41322 
8121 2 32.548 5.33 6.4 6.02464 -122869 -135217 -108940 14473.8 -18580.2 -25022.3 -7.41024 
8122 2 31.854 4.093 6.4 6.02464 -181414 -134593 -71892.4 -10681.7 30670.6 -34002.5 -7.41285 
8123 2 32.579 2.874 6.4 6.02366 -131225 -153078 -99674.6 1117.69 -22585.5 -27643.7 -7.41089 
8124 2 31.886 1.637 6.4 6.0265 -138171 -152890 -82849.4 -24446.1 28410.9 -31858.6 -7.41171 
8125 2 32.611 0.418 6.4 6.02352 -138889 -163310 -89616.8 -334.653 -26068.5 -30019.1 -7.41149 
8253 2 34.627 9.041 6.4 6.02628 -137416 -167053 -119451 13613.6 -14437.2 -18746.6 -7.40976 
8254 2 33.934 7.804 6.4 6.02656 -145199 -152140 -48609.9 -23325.1 33673.1 -33531.2 -7.4143 
8255 2 34.659 6.585 6.4 6.02417 -130280 -149573 -110734 926.73 -18719.4 -21555 -7.41044 
8256 2 33.966 5.348 6.4 6.02217 -151289 -170223 -60092.7 -6173.44 33025.7 -31896.7 -7.41332 
8257 2 34.69 4.129 6.4 6.02107 -138524 -171028 -101322 18256.7 -22700.5 -23970.2 -7.41073 
8258 2 33.997 2.892 6.4 6.02434 -144948 -186497 -71386.2 -3212.88 31367.6 -30082.9 -7.41311 
8259 2 34.722 1.674 6.4 6.02432 -142339 -184618 -90517.1 21444.2 -26394.8 -26211.3 -7.41181 
8260 2 34.029 0.437 6.4 6.01897 -140108 -148543 -82713.2 -16256.7 28928.5 -27921.9 -7.41168 
8388 2 36.045 9.059 6.4 6.02464 -150848 -154283 -35905.6 -18301.5 34636.1 -30348.1 -7.41461 
8389 2 36.77 7.84 6.4 6.0239 -128381 -152897 -113574 4615.32 -18746.5 -17861.2 -7.41002 
8390 2 36.077 6.603 6.4 6.02311 -159923 -206399 -48012.1 13212.4 34700.8 -29030.2 -7.41428 
8391 2 36.801 5.385 6.4 6.02311 -145979 -204444 -103665 32941.7 -22727 -20047.4 -7.4109 
8392 2 36.108 4.148 6.4 6.0239 -140509 -155499 -59983.7 -15981.6 33802.7 -27398.1 -7.41327 
8393 2 36.833 2.929 6.4 6.02464 -135480 -152833 -92769 445.826 -26449.4 -22139.2 -7.41115 
8394 2 36.14 1.692 6.4 6.02134 -145897 -171062 -72062.8 -8918.84 31846.5 -25681.5 -7.41271 
8395 2 36.864 0.473 6.4 6.02446 -144826 -183496 -81236.8 5934.14 -29651.9 -23967 -7.41234 
8524 2 38.188 7.859 6.4 6.01968 -153193 -175956 -35903 -1198.39 35806.6 -25199.3 -7.41471 
8526 2 38.219 5.403 6.4 6.02417 -143370 -154772 -48440.6 -19380.6 35505.3 -23997.4 -7.41422 
8528 2 38.251 2.947 6.4 6.02546 -148549 -172525 -61529.1 -7444.92 34252.8 -22596.5 -7.41326 
8530 2 38.282 0.491 6.4 6.0246 -140427 -166340 -73775.6 -13555.8 32070.3 -21003.6 -7.41258 
2583 1 39.101 8.095 3 6.02546 -155106 -174702 -32581 -7783.27 35482.8 -24007.5 -7.41504 
2584 1 38.377 6.876 3 6.02134 -138537 -168748 -108436 8552.95 -21992.7 -15413.7 -7.41055 
2585 1 39.07 5.639 3 6.02464 -145565 -156688 -45307.4 2537.9 35434.8 -23155 -7.41404 
2586 1 38.345 4.42 3 6.0239 -131144 -154609 -97510.3 15723.9 -25824.3 -17384.1 -7.41099 
2587 1 39.038 3.183 3 6.0231 -154779 -208527 -58633.6 -30018.2 34353.6 -22069.2 -7.41363 
2588 1 38.314 1.965 3 6.02311 -150307 -204417 -86168.7 -13335.7 -29172 -19303.8 -7.41204 
2589 1 39.007 0.728 3 6.02182 -132070 -134864 -71481.9 9039.69 32371.8 -20933.3 -7.41238 
2718 1 40.519 8.077 3 6.02464 -132499 -151973 -112071 17682.2 -21683.2 -11436.4 -7.40999 
2719 1 41.212 6.84 3 6.02134 -152641 -175480 -34892.8 -6598.98 36416.5 -18540.8 -7.41502 
2720 1 40.488 5.621 3 6.02546 -139996 -170712 -101154 6731.12 -25433.4 -13056.1 -7.41087 
2721 1 41.181 4.384 3 6.02464 -142231 -157277 -48370.8 5832.92 35957.5 -17835.2 -7.4141 
2722 1 40.456 3.165 3 6.02417 -133442 -153517 -89420.6 18857.3 -28993 -14609.8 -7.41173 
2723 1 41.149 1.928 3 6.02362 -147958 -175787 -61940.9 -8932.73 34543.2 -16914.8 -7.41295 
2724 1 40.425 0.709 3 6.02337 -146683 -186007 -76926 7658.98 -31996.2 -16103.8 -7.41223 
2853 1 43.355 8.04 3 6.02431 -153636 -194192 -24941.5 -13356.8 36801.5 -13172.1 -7.41573 
2854 1 42.63 6.822 3 6.02431 -137880 -187836 -105346 -4022.91 -24785.6 -8741.86 -7.41084 
2855 1 43.323 5.585 3 6.01968 -149596 -179004 -39021.2 -10126.3 37020.4 -12792.9 -7.41452 
2856 1 42.599 4.366 3 6.02362 -142517 -172674 -93769.6 2752.96 -28366.1 -9950.28 -7.41106 
2857 1 43.292 3.129 3 6.02417 -139919 -157514 -52538.5 7358.77 36139.9 -12309.7 -7.41397 
2858 1 42.567 1.91 3 6.02467 -134713 -156327 -80864.3 17022.9 -31583.8 -11028.3 -7.41208 
2859 1 43.26 0.673 3 6.02547 -147969 -187442 -66506 -12086.1 34325 -11685.2 -7.41299 
2988 1 44.773 8.022 3 6.02134 -138009 -170401 -110378 2373 -23755.5 -4597.75 -7.41043 
2989 1 45.466 6.785 3 6.02464 -147141 -160134 -30040.8 7846.24 37514.2 -7112.86 -7.41497 
2990 1 44.741 5.566 3 6.0239 -130301 -156691 -98484.4 9728.37 -27437.4 -5272.65 -7.41093 
2991 1 45.434 4.329 3 6.0231 -156282 -211838 -44069.1 -24431.8 37148.1 -6965.61 -7.41452 
2992 1 44.71 3.111 3 6.02311 -148222 -208490 -85876.7 -18991.2 -30710.4 -6095.88 -7.41197 
2993 1 45.403 1.874 3 6.02389 -136589 -161309 -58137.5 3987.57 35866.2 -6856.65 -7.41333 
2994 1 44.678 0.655 3 6.02468 -138787 -169624 -72705.4 17945.4 -33623.9 -6816.48 -7.41264 
3123 1 47.608 7.986 3 6.02299 -154980 -178189 -22635.3 -1131.63 37503 -1112.99 -7.41565 
3124 1 46.884 6.767 3 6.02546 -139263 -171865 -104045 241.921 -26010.5 -1038.33 -7.41069 
3125 1 47.577 5.53 3 6.02464 -143819 -159541 -36361.4 11424.2 37679.7 -1235.08 -7.41483 
3126 1 46.852 4.311 3 6.02417 -132424 -154971 -91500.2 12615.5 -29517.6 -1328.27 -7.4116 
3127 1 47.545 3.074 3 6.02362 -149960 -177098 -50691.7 -2981.07 36866.4 -1365.02 -7.41368 
3128 1 46.821 1.855 3 6.02019 -141871 -175299 -78593.1 -5195.68 -32585.3 -1641.48 -7.41218 
3129 1 47.514 0.618 3 6.02461 -140333 -170140 -64549.9 895.156 35116.6 -1471.1 -7.41314 
8523 2 38.881 9.096 6.4 6.02431 -136300 -185645 -116920 18986.8 -18584.8 -14190.1 -7.41013 
8525 2 38.912 6.64 6.4 6.02362 -140522 -170394 -107031 11745.4 -22539.9 -16071.1 -7.41026 
8527 2 38.944 4.184 6.4 6.02464 -132856 -153109 -95794.1 -2959.46 -26323 -17879.2 -7.41122 
8529 2 38.975 1.728 6.4 6.02287 -141575 -172527 -84207.5 9437.38 -29611.3 -19419.2 -7.41197 
8658 2 40.299 9.114 6.4 6.02134 -156149 -175085 -24577.2 -4609.58 36176.6 -20727.1 -7.41566 
8659 2 41.023 7.895 6.4 6.02546 -138360 -170111 -111045 8066.88 -22048 -12140.7 -7.41027 
8660 2 40.33 6.658 6.4 6.02464 -145655 -157023 -37466.8 -17784.9 36611.4 -19806.1 -7.41476 
8661 2 41.055 5.439 6.4 6.02417 -131332 -153101 -99872.7 -4544.46 -25848.4 -13571.5 -7.41109 
8662 2 40.362 4.202 6.4 6.02362 -151687 -174780 -50710 -3777.14 35977.1 -18693.2 -7.41368 
8663 2 41.086 2.983 6.4 6.01968 -139696 -174948 -87886.7 12860.9 -29284.3 -14894.1 -7.41154 
8664 2 40.393 1.746 6.4 6.02433 -146511 -188976 -63909 2684.66 34389.6 -17459.4 -7.41342 
8665 2 41.118 0.528 6.4 6.02372 -139371 -167246 -75119.6 26557.7 -32276.6 -15955.8 -7.41249 
8793 2 43.134 9.15 6.4 6.02134 -137292 -169552 -115791 6186.43 -21278 -8214.44 -7.41011 
8794 2 42.441 7.913 6.4 6.02464 -148945 -159099 -27056.6 -14181.7 37075.7 -14876.3 -7.41516 
8795 2 43.166 6.694 6.4 6.0239 -129377 -155883 -104614 -1435.18 -25069.3 -9318.63 -7.41056 
8796 2 42.473 5.457 6.4 6.0231 -158016 -210910 -40693.9 17666.6 37084.2 -14073.7 -7.41473 
8797 2 43.197 4.239 6.4 6.02311 -147099 -207723 -92616.6 27015.3 -28581.1 -10230 -7.41157 
8798 2 42.504 3.002 6.4 6.0239 -138702 -159658 -54099.2 -11225.7 36110.3 -13088.5 -7.41362 
8799 2 43.229 1.783 6.4 6.02467 -136196 -157326 -79635.5 -5409.45 -31794.4 -11053.3 -7.4119 
8800 2 42.536 0.546 6.4 6.02222 -148030 -186856 -67889.6 3080.89 34198.3 -12134.6 -7.41291 
8928 2 44.552 9.168 6.4 6.0243 -156913 -195308 -17514.6 5299 36908.3 -9290.8 -7.41594 
8929 2 45.277 7.95 6.4 6.02261 -137158 -187986 -109789 12415.5 -23921 -5218.36 -7.41056 
8930 2 44.584 6.713 6.4 6.01968 -151319 -179628 -31114.7 3469.33 37593.9 -8654.88 -7.415 