(written by TR)

12152	atoms
2	atom types
0	95.7210049	xlo xhi
0	165.793644	ylo yhi
0	15.0	zlo zhi


Masses

1	12
2	12

Atoms

1 1 1 0 0.693 164.557 3.000 0 0 0
2 1 1 0 0.662 162.101 3.000 0 0 0
3 1 1 0 0.630 159.645 3.000 0 0 0
4 1 1 0 0.599 157.189 3.000 0 0 0
5 1 1 0 0.567 154.733 3.000 0 0 0
6 1 1 0 0.536 152.278 3.000 0 0 0
7 1 1 0 0.504 149.822 3.000 0 0 0
8 1 1 0 0.473 147.366 3.000 0 0 0
9 1 1 0 0.441 144.910 3.000 0 0 0
10 1 1 0 0.410 142.454 3.000 0 0 0
11 1 1 0 0.378 139.999 3.000 0 0 0
12 1 1 0 0.347 137.543 3.000 0 0 0
13 1 1 0 0.315 135.087 3.000 0 0 0
14 1 1 0 0.284 132.631 3.000 0 0 0
15 1 1 0 0.252 130.175 3.000 0 0 0
16 1 1 0 0.221 127.720 3.000 0 0 0
17 1 1 0 0.189 125.264 3.000 0 0 0
18 1 1 0 0.158 122.808 3.000 0 0 0
19 1 1 0 0.126 120.352 3.000 0 0 0
20 1 1 0 0.095 117.896 3.000 0 0 0
21 1 1 0 0.063 115.441 3.000 0 0 0
22 1 1 0 0.032 112.985 3.000 0 0 0
23 1 1 0 0.000 110.529 3.000 0 0 0
24 1 1 0 2.836 165.757 3.000 0 0 0
25 1 1 0 2.111 164.538 3.000 0 0 0
26 1 1 0 2.804 163.301 3.000 0 0 0
27 1 1 0 2.080 162.083 3.000 0 0 0
28 1 1 0 2.773 160.846 3.000 0 0 0
29 1 1 0 2.048 159.627 3.000 0 0 0
30 1 1 0 2.741 158.390 3.000 0 0 0
31 1 1 0 2.017 157.171 3.000 0 0 0
32 1 1 0 2.710 155.934 3.000 0 0 0
33 1 1 0 1.985 154.715 3.000 0 0 0
34 1 1 0 2.678 153.478 3.000 0 0 0
35 1 1 0 1.953 152.259 3.000 0 0 0
36 1 1 0 2.647 151.022 3.000 0 0 0
37 1 1 0 1.922 149.804 3.000 0 0 0
38 1 1 0 2.615 148.567 3.000 0 0 0
39 1 1 0 1.890 147.348 3.000 0 0 0
40 1 1 0 2.584 146.111 3.000 0 0 0
41 1 1 0 1.859 144.892 3.000 0 0 0
42 1 1 0 2.552 143.655 3.000 0 0 0
43 1 1 0 1.827 142.436 3.000 0 0 0
44 1 1 0 2.521 141.199 3.000 0 0 0
45 1 1 0 1.796 139.980 3.000 0 0 0
46 1 1 0 2.489 138.743 3.000 0 0 0
47 1 1 0 1.764 137.525 3.000 0 0 0
48 1 1 0 2.458 136.288 3.000 0 0 0
49 1 1 0 1.733 135.069 3.000 0 0 0
50 1 1 0 2.426 133.832 3.000 0 0 0
51 1 1 0 1.701 132.613 3.000 0 0 0
52 1 1 0 2.395 131.376 3.000 0 0 0
53 1 1 0 1.670 130.157 3.000 0 0 0
54 1 1 0 2.363 128.920 3.000 0 0 0
55 1 1 0 1.638 127.701 3.000 0 0 0
56 1 1 0 2.332 126.464 3.000 0 0 0
57 1 1 0 1.607 125.246 3.000 0 0 0
58 1 1 0 2.300 124.009 3.000 0 0 0
59 1 1 0 1.575 122.790 3.000 0 0 0
60 1 1 0 2.269 121.553 3.000 0 0 0
61 1 1 0 1.544 120.334 3.000 0 0 0
62 1 1 0 2.237 119.097 3.000 0 0 0
63 1 1 0 1.512 117.878 3.000 0 0 0
64 1 1 0 2.206 116.641 3.000 0 0 0
65 1 1 0 1.481 115.423 3.000 0 0 0
66 1 1 0 2.174 114.186 3.000 0 0 0
67 1 1 0 1.449 112.967 3.000 0 0 0
68 1 1 0 2.143 111.730 3.000 0 0 0
69 1 1 0 1.418 110.511 3.000 0 0 0
70 1 1 0 2.111 109.274 3.000 0 0 0
71 1 1 0 1.386 108.055 3.000 0 0 0
72 1 1 0 2.080 106.818 3.000 0 0 0
73 1 1 0 1.355 105.599 3.000 0 0 0
74 1 1 0 2.048 104.362 3.000 0 0 0
75 1 1 0 1.323 103.144 3.000 0 0 0
76 1 1 0 2.017 101.907 3.000 0 0 0
77 1 1 0 1.292 100.688 3.000 0 0 0
78 1 1 0 1.985 99.451 3.000 0 0 0
79 1 1 0 1.260 98.232 3.000 0 0 0
80 1 1 0 1.953 96.995 3.000 0 0 0
81 1 1 0 1.229 95.776 3.000 0 0 0
82 1 1 0 1.922 94.539 3.000 0 0 0
83 1 1 0 1.197 93.320 3.000 0 0 0
84 1 1 0 1.890 92.083 3.000 0 0 0
85 1 1 0 1.166 90.865 3.000 0 0 0
86 1 1 0 1.859 89.628 3.000 0 0 0
87 1 1 0 1.134 88.409 3.000 0 0 0
88 1 1 0 1.827 87.172 3.000 0 0 0
89 1 1 0 1.103 85.953 3.000 0 0 0
90 1 1 0 1.796 84.716 3.000 0 0 0
91 1 1 0 1.071 83.497 3.000 0 0 0
92 1 1 0 1.764 82.260 3.000 0 0 0
93 1 1 0 1.040 81.041 3.000 0 0 0
94 1 1 0 1.733 79.804 3.000 0 0 0
95 1 1 0 1.008 78.586 3.000 0 0 0
96 1 1 0 1.701 77.349 3.000 0 0 0
97 1 1 0 0.977 76.130 3.000 0 0 0
98 1 1 0 1.670 74.893 3.000 0 0 0
99 1 1 0 0.945 73.674 3.000 0 0 0
100 1 1 0 1.638 72.437 3.000 0 0 0
101 1 1 0 0.914 71.218 3.000 0 0 0
102 1 1 0 1.607 69.981 3.000 0 0 0
103 1 1 0 0.882 68.762 3.000 0 0 0
104 1 1 0 1.575 67.525 3.000 0 0 0
105 1 1 0 0.851 66.307 3.000 0 0 0
106 1 1 0 1.544 65.070 3.000 0 0 0
107 1 1 0 0.819 63.851 3.000 0 0 0
108 1 1 0 1.512 62.614 3.000 0 0 0
109 1 1 0 0.788 61.395 3.000 0 0 0
110 1 1 0 1.481 60.158 3.000 0 0 0
111 1 1 0 0.756 58.939 3.000 0 0 0
112 1 1 0 1.449 57.702 3.000 0 0 0
113 1 1 0 0.725 56.483 3.000 0 0 0
114 1 1 0 1.418 55.246 3.000 0 0 0
115 1 1 0 0.693 54.028 3.000 0 0 0
116 1 1 0 1.386 52.791 3.000 0 0 0
117 1 1 0 0.662 51.572 3.000 0 0 0
118 1 1 0 1.355 50.335 3.000 0 0 0
119 1 1 0 0.630 49.116 3.000 0 0 0
120 1 1 0 1.323 47.879 3.000 0 0 0
121 1 1 0 0.599 46.660 3.000 0 0 0
122 1 1 0 1.292 45.423 3.000 0 0 0
123 1 1 0 0.567 44.204 3.000 0 0 0
124 1 1 0 1.260 42.967 3.000 0 0 0
125 1 1 0 0.536 41.749 3.000 0 0 0
126 1 1 0 1.229 40.512 3.000 0 0 0
127 1 1 0 0.504 39.293 3.000 0 0 0
128 1 1 0 1.197 38.056 3.000 0 0 0
129 1 1 0 0.473 36.837 3.000 0 0 0
130 1 1 0 1.166 35.600 3.000 0 0 0
131 1 1 0 0.441 34.381 3.000 0 0 0
132 1 1 0 1.134 33.144 3.000 0 0 0
133 1 1 0 0.410 31.925 3.000 0 0 0
134 1 1 0 1.103 30.688 3.000 0 0 0
135 1 1 0 0.378 29.470 3.000 0 0 0
136 1 1 0 1.071 28.233 3.000 0 0 0
137 1 1 0 0.347 27.014 3.000 0 0 0
138 1 1 0 1.040 25.777 3.000 0 0 0
139 1 1 0 0.315 24.558 3.000 0 0 0
140 1 1 0 1.008 23.321 3.000 0 0 0
141 1 1 0 0.284 22.102 3.000 0 0 0
142 1 1 0 0.977 20.865 3.000 0 0 0
143 1 1 0 0.252 19.646 3.000 0 0 0
144 1 1 0 0.945 18.409 3.000 0 0 0
145 1 1 0 0.221 17.191 3.000 0 0 0
146 1 1 0 0.914 15.954 3.000 0 0 0
147 1 1 0 0.189 14.735 3.000 0 0 0
148 1 1 0 0.882 13.498 3.000 0 0 0
149 1 1 0 0.158 12.279 3.000 0 0 0
150 1 1 0 0.851 11.042 3.000 0 0 0
151 1 1 0 0.126 9.823 3.000 0 0 0
152 1 1 0 0.819 8.586 3.000 0 0 0
153 1 1 0 0.095 7.367 3.000 0 0 0
154 1 1 0 0.788 6.130 3.000 0 0 0
155 1 1 0 0.063 4.912 3.000 0 0 0
156 1 1 0 0.756 3.675 3.000 0 0 0
157 1 1 0 0.032 2.456 3.000 0 0 0
158 1 1 0 0.725 1.219 3.000 0 0 0
159 1 1 0 0.000 0.000 3.000 0 0 0
160 1 1 0 4.254 165.739 3.000 0 0 0
161 1 1 0 4.947 164.502 3.000 0 0 0
162 1 1 0 4.222 163.283 3.000 0 0 0
163 1 1 0 4.915 162.046 3.000 0 0 0
164 1 1 0 4.191 160.827 3.000 0 0 0
165 1 1 0 4.884 159.590 3.000 0 0 0
166 1 1 0 4.159 158.372 3.000 0 0 0
167 1 1 0 4.852 157.135 3.000 0 0 0
168 1 1 0 4.128 155.916 3.000 0 0 0
169 1 1 0 4.821 154.679 3.000 0 0 0
170 1 1 0 4.096 153.460 3.000 0 0 0
171 1 1 0 4.789 152.223 3.000 0 0 0
172 1 1 0 4.065 151.004 3.000 0 0 0
173 1 1 0 4.758 149.767 3.000 0 0 0
174 1 1 0 4.033 148.548 3.000 0 0 0
175 1 1 0 4.726 147.311 3.000 0 0 0
176 1 1 0 4.002 146.093 3.000 0 0 0
177 1 1 0 4.695 144.856 3.000 0 0 0
178 1 1 0 3.970 143.637 3.000 0 0 0
179 1 1 0 4.663 142.400 3.000 0 0 0
180 1 1 0 3.938 141.181 3.000 0 0 0
181 1 1 0 4.632 139.944 3.000 0 0 0
182 1 1 0 3.907 138.725 3.000 0 0 0
183 1 1 0 4.600 137.488 3.000 0 0 0
184 1 1 0 3.875 136.269 3.000 0 0 0
185 1 1 0 4.569 135.033 3.000 0 0 0
186 1 1 0 3.844 133.814 3.000 0 0 0
187 1 1 0 4.537 132.577 3.000 0 0 0
188 1 1 0 3.812 131.358 3.000 0 0 0
189 1 1 0 4.506 130.121 3.000 0 0 0
190 1 1 0 3.781 128.902 3.000 0 0 0
191 1 1 0 4.474 127.665 3.000 0 0 0
192 1 1 0 3.749 126.446 3.000 0 0 0
193 1 1 0 4.443 125.209 3.000 0 0 0
194 1 1 0 3.718 123.991 3.000 0 0 0
195 1 1 0 4.411 122.754 3.000 0 0 0
196 1 1 0 3.686 121.535 3.000 0 0 0
197 1 1 0 4.380 120.298 3.000 0 0 0
198 1 1 0 3.655 119.079 3.000 0 0 0
199 1 1 0 4.348 117.842 3.000 0 0 0
200 1 1 0 3.623 116.623 3.000 0 0 0
201 1 1 0 4.317 115.386 3.000 0 0 0
202 1 1 0 3.592 114.167 3.000 0 0 0
203 1 1 0 4.285 112.930 3.000 0 0 0
204 1 1 0 3.560 111.712 3.000 0 0 0
205 1 1 0 4.254 110.475 3.000 0 0 0
206 1 1 0 3.529 109.256 3.000 0 0 0
207 1 1 0 4.222 108.019 3.000 0 0 0
208 1 1 0 3.497 106.800 3.000 0 0 0
209 1 1 0 4.191 105.563 3.000 0 0 0
210 1 1 0 3.466 104.344 3.000 0 0 0
211 1 1 0 4.159 103.107 3.000 0 0 0
212 1 1 0 3.434 101.888 3.000 0 0 0
213 1 1 0 4.128 100.651 3.000 0 0 0
214 1 1 0 3.403 99.433 3.000 0 0 0
215 1 1 0 4.096 98.196 3.000 0 0 0
216 1 1 0 3.371 96.977 3.000 0 0 0
217 1 1 0 4.065 95.740 3.000 0 0 0
218 1 1 0 3.340 94.521 3.000 0 0 0
219 1 1 0 4.033 93.284 3.000 0 0 0
220 1 1 0 3.308 92.065 3.000 0 0 0
221 1 1 0 4.002 90.828 3.000 0 0 0
222 1 1 0 3.277 89.609 3.000 0 0 0
223 1 1 0 3.970 88.372 3.000 0 0 0
224 1 1 0 3.245 87.154 3.000 0 0 0
225 1 1 0 3.938 85.917 3.000 0 0 0
226 1 1 0 3.214 84.698 3.000 0 0 0
227 1 1 0 3.907 83.461 3.000 0 0 0
228 1 1 0 3.182 82.242 3.000 0 0 0
229 1 1 0 3.875 81.005 3.000 0 0 0
230 1 1 0 3.151 79.786 3.000 0 0 0
231 1 1 0 3.844 78.549 3.000 0 0 0
232 1 1 0 3.119 77.330 3.000 0 0 0
233 1 1 0 3.812 76.093 3.000 0 0 0
234 1 1 0 3.088 74.875 3.000 0 0 0
235 1 1 0 3.781 73.638 3.000 0 0 0
236 1 1 0 3.056 72.419 3.000 0 0 0
237 1 1 0 3.749 71.182 3.000 0 0 0
238 1 1 0 3.025 69.963 3.000 0 0 0
239 1 1 0 3.718 68.726 3.000 0 0 0
240 1 1 0 2.993 67.507 3.000 0 0 0
241 1 1 0 3.686 66.270 3.000 0 0 0
242 1 1 0 2.962 65.051 3.000 0 0 0
243 1 1 0 3.655 63.814 3.000 0 0 0
244 1 1 0 2.930 62.596 3.000 0 0 0
245 1 1 0 3.623 61.359 3.000 0 0 0
246 1 1 0 2.899 60.140 3.000 0 0 0
247 1 1 0 3.592 58.903 3.000 0 0 0
248 1 1 0 2.867 57.684 3.000 0 0 0
249 1 1 0 3.560 56.447 3.000 0 0 0
250 1 1 0 2.836 55.228 3.000 0 0 0
251 1 1 0 3.529 53.991 3.000 0 0 0
252 1 1 0 2.804 52.772 3.000 0 0 0
253 1 1 0 3.497 51.535 3.000 0 0 0
254 1 1 0 2.773 50.317 3.000 0 0 0
255 1 1 0 3.466 49.080 3.000 0 0 0
256 1 1 0 2.741 47.861 3.000 0 0 0
257 1 1 0 3.434 46.624 3.000 0 0 0
258 1 1 0 2.710 45.405 3.000 0 0 0
259 1 1 0 3.403 44.168 3.000 0 0 0
260 1 1 0 2.678 42.949 3.000 0 0 0
261 1 1 0 3.371 41.712 3.000 0 0 0
262 1 1 0 2.647 40.493 3.000 0 0 0
263 1 1 0 3.340 39.256 3.000 0 0 0
264 1 1 0 2.615 38.038 3.000 0 0 0
265 1 1 0 3.308 36.801 3.000 0 0 0
266 1 1 0 2.584 35.582 3.000 0 0 0
267 1 1 0 3.277 34.345 3.000 0 0 0
268 1 1 0 2.552 33.126 3.000 0 0 0
269 1 1 0 3.245 31.889 3.000 0 0 0
270 1 1 0 2.521 30.670 3.000 0 0 0
271 1 1 0 3.214 29.433 3.000 0 0 0
272 1 1 0 2.489 28.214 3.000 0 0 0
273 1 1 0 3.182 26.977 3.000 0 0 0
274 1 1 0 2.458 25.759 3.000 0 0 0
275 1 1 0 3.151 24.522 3.000 0 0 0
276 1 1 0 2.426 23.303 3.000 0 0 0
277 1 1 0 3.119 22.066 3.000 0 0 0
278 1 1 0 2.395 20.847 3.000 0 0 0
279 1 1 0 3.088 19.610 3.000 0 0 0
280 1 1 0 2.363 18.391 3.000 0 0 0
281 1 1 0 3.056 17.154 3.000 0 0 0
282 1 1 0 2.332 15.935 3.000 0 0 0
283 1 1 0 3.025 14.698 3.000 0 0 0
284 1 1 0 2.300 13.480 3.000 0 0 0
285 1 1 0 2.993 12.243 3.000 0 0 0
286 1 1 0 2.269 11.024 3.000 0 0 0
287 1 1 0 2.962 9.787 3.000 0 0 0
288 1 1 0 2.237 8.568 3.000 0 0 0
289 1 1 0 2.930 7.331 3.000 0 0 0
290 1 1 0 2.206 6.112 3.000 0 0 0
291 1 1 0 2.899 4.875 3.000 0 0 0
292 1 1 0 2.174 3.656 3.000 0 0 0
293 1 1 0 2.867 2.419 3.000 0 0 0
294 1 1 0 2.143 1.201 3.000 0 0 0
295 1 1 0 7.089 165.703 3.000 0 0 0
296 1 1 0 6.365 164.484 3.000 0 0 0
297 1 1 0 7.058 163.247 3.000 0 0 0
298 1 1 0 6.333 162.028 3.000 0 0 0
299 1 1 0 7.026 160.791 3.000 0 0 0
300 1 1 0 6.302 159.572 3.000 0 0 0
301 1 1 0 6.995 158.335 3.000 0 0 0
302 1 1 0 6.270 157.116 3.000 0 0 0
303 1 1 0 6.963 155.879 3.000 0 0 0
304 1 1 0 6.239 154.661 3.000 0 0 0
305 1 1 0 6.932 153.424 3.000 0 0 0
306 1 1 0 6.207 152.205 3.000 0 0 0
307 1 1 0 6.900 150.968 3.000 0 0 0
308 1 1 0 6.176 149.749 3.000 0 0 0
309 1 1 0 6.869 148.512 3.000 0 0 0
310 1 1 0 6.144 147.293 3.000 0 0 0
311 1 1 0 6.837 146.056 3.000 0 0 0
312 1 1 0 6.113 144.838 3.000 0 0 0
313 1 1 0 6.806 143.601 3.000 0 0 0
314 1 1 0 6.081 142.382 3.000 0 0 0
315 1 1 0 6.774 141.145 3.000 0 0 0
316 1 1 0 6.050 139.926 3.000 0 0 0
317 1 1 0 6.743 138.689 3.000 0 0 0
318 1 1 0 6.018 137.470 3.000 0 0 0
319 1 1 0 6.711 136.233 3.000 0 0 0
320 1 1 0 5.987 135.014 3.000 0 0 0
321 1 1 0 6.680 133.777 3.000 0 0 0
322 1 1 0 5.955 132.559 3.000 0 0 0
323 1 1 0 6.648 131.322 3.000 0 0 0
324 1 1 0 5.923 130.103 3.000 0 0 0
325 1 1 0 6.617 128.866 3.000 0 0 0
326 1 1 0 5.892 127.647 3.000 0 0 0
327 1 1 0 6.585 126.410 3.000 0 0 0
328 1 1 0 5.860 125.191 3.000 0 0 0
329 1 1 0 6.554 123.954 3.000 0 0 0
330 1 1 0 5.829 122.735 3.000 0 0 0
331 1 1 0 6.522 121.498 3.000 0 0 0
332 1 1 0 5.797 120.280 3.000 0 0 0
333 1 1 0 6.491 119.043 3.000 0 0 0
334 1 1 0 5.766 117.824 3.000 0 0 0
335 1 1 0 6.459 116.587 3.000 0 0 0
336 1 1 0 5.734 115.368 3.000 0 0 0
337 1 1 0 6.428 114.131 3.000 0 0 0
338 1 1 0 5.703 112.912 3.000 0 0 0
339 1 1 0 6.396 111.675 3.000 0 0 0
340 1 1 0 5.671 110.456 3.000 0 0 0
341 1 1 0 6.365 109.219 3.000 0 0 0
342 1 1 0 5.640 108.001 3.000 0 0 0
343 1 1 0 6.333 106.764 3.000 0 0 0
344 1 1 0 5.608 105.545 3.000 0 0 0
345 1 1 0 6.302 104.308 3.000 0 0 0
346 1 1 0 5.577 103.089 3.000 0 0 0
347 1 1 0 6.270 101.852 3.000 0 0 0
348 1 1 0 5.545 100.633 3.000 0 0 0
349 1 1 0 6.239 99.396 3.000 0 0 0
350 1 1 0 5.514 98.177 3.000 0 0 0
351 1 1 0 6.207 96.940 3.000 0 0 0
352 1 1 0 5.482 95.722 3.000 0 0 0
353 1 1 0 6.176 94.485 3.000 0 0 0
354 1 1 0 5.451 93.266 3.000 0 0 0
355 1 1 0 6.144 92.029 3.000 0 0 0
356 1 1 0 5.419 90.810 3.000 0 0 0
357 1 1 0 6.113 89.573 3.000 0 0 0
358 1 1 0 5.388 88.354 3.000 0 0 0
359 1 1 0 6.081 87.117 3.000 0 0 0
360 1 1 0 5.356 85.898 3.000 0 0 0
361 1 1 0 6.050 84.661 3.000 0 0 0
362 1 1 0 5.325 83.443 3.000 0 0 0
363 1 1 0 6.018 82.206 3.000 0 0 0
364 1 1 0 5.293 80.987 3.000 0 0 0
365 1 1 0 5.987 79.750 3.000 0 0 0
366 1 1 0 5.262 78.531 3.000 0 0 0
367 1 1 0 5.955 77.294 3.000 0 0 0
368 1 1 0 5.230 76.075 3.000 0 0 0
369 1 1 0 5.923 74.838 3.000 0 0 0
370 1 1 0 5.199 73.619 3.000 0 0 0
371 1 1 0 5.892 72.382 3.000 0 0 0
372 1 1 0 5.167 71.164 3.000 0 0 0
373 1 1 0 5.860 69.927 3.000 0 0 0
374 1 1 0 5.136 68.708 3.000 0 0 0
375 1 1 0 5.829 67.471 3.000 0 0 0
376 1 1 0 5.104 66.252 3.000 0 0 0
377 1 1 0 5.797 65.015 3.000 0 0 0
378 1 1 0 5.073 63.796 3.000 0 0 0
379 1 1 0 5.766 62.559 3.000 0 0 0
380 1 1 0 5.041 61.340 3.000 0 0 0
381 1 1 0 5.734 60.103 3.000 0 0 0
382 1 1 0 5.010 58.885 3.000 0 0 0
383 1 1 0 5.703 57.648 3.000 0 0 0
384 1 1 0 4.978 56.429 3.000 0 0 0
385 1 1 0 5.671 55.192 3.000 0 0 0
386 1 1 0 4.947 53.973 3.000 0 0 0
387 1 1 0 5.640 52.736 3.000 0 0 0
388 1 1 0 4.915 51.517 3.000 0 0 0
389 1 1 0 5.608 50.280 3.000 0 0 0
390 1 1 0 4.884 49.061 3.000 0 0 0
391 1 1 0 5.577 47.824 3.000 0 0 0
392 1 1 0 4.852 46.606 3.000 0 0 0
393 1 1 0 5.545 45.369 3.000 0 0 0
394 1 1 0 4.821 44.150 3.000 0 0 0
395 1 1 0 5.514 42.913 3.000 0 0 0
396 1 1 0 4.789 41.694 3.000 0 0 0
397 1 1 0 5.482 40.457 3.000 0 0 0
398 1 1 0 4.758 39.238 3.000 0 0 0
399 1 1 0 5.451 38.001 3.000 0 0 0
400 1 1 0 4.726 36.782 3.000 0 0 0
401 1 1 0 5.419 35.545 3.000 0 0 0
402 1 1 0 4.695 34.327 3.000 0 0 0
403 1 1 0 5.388 33.090 3.000 0 0 0
404 1 1 0 4.663 31.871 3.000 0 0 0
405 1 1 0 5.356 30.634 3.000 0 0 0
406 1 1 0 4.632 29.415 3.000 0 0 0
407 1 1 0 5.325 28.178 3.000 0 0 0
408 1 1 0 4.600 26.959 3.000 0 0 0
409 1 1 0 5.293 25.722 3.000 0 0 0
410 1 1 0 4.569 24.503 3.000 0 0 0
411 1 1 0 5.262 23.266 3.000 0 0 0
412 1 1 0 4.537 22.048 3.000 0 0 0
413 1 1 0 5.230 20.811 3.000 0 0 0
414 1 1 0 4.506 19.592 3.000 0 0 0
415 1 1 0 5.199 18.355 3.000 0 0 0
416 1 1 0 4.474 17.136 3.000 0 0 0
417 1 1 0 5.167 15.899 3.000 0 0 0
418 1 1 0 4.443 14.680 3.000 0 0 0
419 1 1 0 5.136 13.443 3.000 0 0 0
420 1 1 0 4.411 12.224 3.000 0 0 0
421 1 1 0 5.104 10.987 3.000 0 0 0
422 1 1 0 4.380 9.769 3.000 0 0 0
423 1 1 0 5.073 8.532 3.000 0 0 0
424 1 1 0 4.348 7.313 3.000 0 0 0
425 1 1 0 5.041 6.076 3.000 0 0 0
426 1 1 0 4.317 4.857 3.000 0 0 0
427 1 1 0 5.010 3.620 3.000 0 0 0
428 1 1 0 4.285 2.401 3.000 0 0 0
429 1 1 0 4.978 1.164 3.000 0 0 0
430 1 1 0 8.507 165.684 3.000 0 0 0
431 1 1 0 9.200 164.448 3.000 0 0 0
432 1 1 0 8.476 163.229 3.000 0 0 0
433 1 1 0 9.169 161.992 3.000 0 0 0
434 1 1 0 8.444 160.773 3.000 0 0 0
435 1 1 0 9.137 159.536 3.000 0 0 0
436 1 1 0 8.413 158.317 3.000 0 0 0
437 1 1 0 9.106 157.080 3.000 0 0 0
438 1 1 0 8.381 155.861 3.000 0 0 0
439 1 1 0 9.074 154.624 3.000 0 0 0
440 1 1 0 8.350 153.406 3.000 0 0 0
441 1 1 0 9.043 152.169 3.000 0 0 0
442 1 1 0 8.318 150.950 3.000 0 0 0
443 1 1 0 9.011 149.713 3.000 0 0 0
444 1 1 0 8.287 148.494 3.000 0 0 0
445 1 1 0 8.980 147.257 3.000 0 0 0
446 1 1 0 8.255 146.038 3.000 0 0 0
447 1 1 0 8.948 144.801 3.000 0 0 0
448 1 1 0 8.224 143.582 3.000 0 0 0
449 1 1 0 8.917 142.345 3.000 0 0 0
450 1 1 0 8.192 141.127 3.000 0 0 0
451 1 1 0 8.885 139.890 3.000 0 0 0
452 1 1 0 8.161 138.671 3.000 0 0 0
453 1 1 0 8.854 137.434 3.000 0 0 0
454 1 1 0 8.129 136.215 3.000 0 0 0
455 1 1 0 8.822 134.978 3.000 0 0 0
456 1 1 0 8.098 133.759 3.000 0 0 0
457 1 1 0 8.791 132.522 3.000 0 0 0
458 1 1 0 8.066 131.303 3.000 0 0 0
459 1 1 0 8.759 130.066 3.000 0 0 0
460 1 1 0 8.035 128.848 3.000 0 0 0
461 1 1 0 8.728 127.611 3.000 0 0 0
462 1 1 0 8.003 126.392 3.000 0 0 0
463 1 1 0 8.696 125.155 3.000 0 0 0
464 1 1 0 7.971 123.936 3.000 0 0 0
465 1 1 0 8.665 122.699 3.000 0 0 0
466 1 1 0 7.940 121.480 3.000 0 0 0
467 1 1 0 8.633 120.243 3.000 0 0 0
468 1 1 0 7.908 119.024 3.000 0 0 0
469 1 1 0 8.602 117.787 3.000 0 0 0
470 1 1 0 7.877 116.569 3.000 0 0 0
471 1 1 0 8.570 115.332 3.000 0 0 0
472 1 1 0 7.845 114.113 3.000 0 0 0
473 1 1 0 8.539 112.876 3.000 0 0 0
474 1 1 0 7.814 111.657 3.000 0 0 0
475 1 1 0 8.507 110.420 3.000 0 0 0
476 1 1 0 7.782 109.201 3.000 0 0 0
477 1 1 0 8.476 107.964 3.000 0 0 0
478 1 1 0 7.751 106.745 3.000 0 0 0
479 1 1 0 8.444 105.508 3.000 0 0 0
480 1 1 0 7.719 104.290 3.000 0 0 0
481 1 1 0 8.413 103.053 3.000 0 0 0
482 1 1 0 7.688 101.834 3.000 0 0 0
483 1 1 0 8.381 100.597 3.000 0 0 0
484 1 1 0 7.656 99.378 3.000 0 0 0
485 1 1 0 8.350 98.141 3.000 0 0 0
486 1 1 0 7.625 96.922 3.000 0 0 0
487 1 1 0 8.318 95.685 3.000 0 0 0
488 1 1 0 7.593 94.466 3.000 0 0 0
489 1 1 0 8.287 93.229 3.000 0 0 0
490 1 1 0 7.562 92.011 3.000 0 0 0
491 1 1 0 8.255 90.774 3.000 0 0 0
492 1 1 0 7.530 89.555 3.000 0 0 0
493 1 1 0 8.224 88.318 3.000 0 0 0
494 1 1 0 7.499 87.099 3.000 0 0 0
495 1 1 0 8.192 85.862 3.000 0 0 0
496 1 1 0 7.467 84.643 3.000 0 0 0
497 1 1 0 8.161 83.406 3.000 0 0 0
498 1 1 0 7.436 82.187 3.000 0 0 0
499 1 1 0 8.129 80.950 3.000 0 0 0
500 1 1 0 7.404 79.732 3.000 0 0 0
501 1 1 0 8.098 78.495 3.000 0 0 0
502 1 1 0 7.373 77.276 3.000 0 0 0
503 1 1 0 8.066 76.039 3.000 0 0 0
504 1 1 0 7.341 74.820 3.000 0 0 0
505 1 1 0 8.035 73.583 3.000 0 0 0
506 1 1 0 7.310 72.364 3.000 0 0 0
507 1 1 0 8.003 71.127 3.000 0 0 0
508 1 1 0 7.278 69.908 3.000 0 0 0
509 1 1 0 7.971 68.671 3.000 0 0 0
510 1 1 0 7.247 67.453 3.000 0 0 0
511 1 1 0 7.940 66.216 3.000 0 0 0
512 1 1 0 7.215 64.997 3.000 0 0 0
513 1 1 0 7.908 63.760 3.000 0 0 0
514 1 1 0 7.184 62.541 3.000 0 0 0
515 1 1 0 7.877 61.304 3.000 0 0 0
516 1 1 0 7.152 60.085 3.000 0 0 0
517 1 1 0 7.845 58.848 3.000 0 0 0
518 1 1 0 7.121 57.629 3.000 0 0 0
519 1 1 0 7.814 56.392 3.000 0 0 0
520 1 1 0 7.089 55.174 3.000 0 0 0
521 1 1 0 7.782 53.937 3.000 0 0 0
522 1 1 0 7.058 52.718 3.000 0 0 0
523 1 1 0 7.751 51.481 3.000 0 0 0
524 1 1 0 7.026 50.262 3.000 0 0 0
525 1 1 0 7.719 49.025 3.000 0 0 0
526 1 1 0 6.995 47.806 3.000 0 0 0
527 1 1 0 7.688 46.569 3.000 0 0 0
528 1 1 0 6.963 45.350 3.000 0 0 0
529 1 1 0 7.656 44.113 3.000 0 0 0
530 1 1 0 6.932 42.895 3.000 0 0 0
531 1 1 0 7.625 41.658 3.000 0 0 0
532 1 1 0 6.900 40.439 3.000 0 0 0
533 1 1 0 7.593 39.202 3.000 0 0 0
534 1 1 0 6.869 37.983 3.000 0 0 0
535 1 1 0 7.562 36.746 3.000 0 0 0
536 1 1 0 6.837 35.527 3.000 0 0 0
537 1 1 0 7.530 34.290 3.000 0 0 0
538 1 1 0 6.806 33.071 3.000 0 0 0
539 1 1 0 7.499 31.834 3.000 0 0 0
540 1 1 0 6.774 30.616 3.000 0 0 0
541 1 1 0 7.467 29.379 3.000 0 0 0
542 1 1 0 6.743 28.160 3.000 0 0 0
543 1 1 0 7.436 26.923 3.000 0 0 0
544 1 1 0 6.711 25.704 3.000 0 0 0
545 1 1 0 7.404 24.467 3.000 0 0 0
546 1 1 0 6.680 23.248 3.000 0 0 0
547 1 1 0 7.373 22.011 3.000 0 0 0
548 1 1 0 6.648 20.792 3.000 0 0 0
549 1 1 0 7.341 19.555 3.000 0 0 0
550 1 1 0 6.617 18.337 3.000 0 0 0
551 1 1 0 7.310 17.100 3.000 0 0 0
552 1 1 0 6.585 15.881 3.000 0 0 0
553 1 1 0 7.278 14.644 3.000 0 0 0
554 1 1 0 6.554 13.425 3.000 0 0 0
555 1 1 0 7.247 12.188 3.000 0 0 0
556 1 1 0 6.522 10.969 3.000 0 0 0
557 1 1 0 7.215 9.732 3.000 0 0 0
558 1 1 0 6.491 8.513 3.000 0 0 0
559 1 1 0 7.184 7.276 3.000 0 0 0
560 1 1 0 6.459 6.058 3.000 0 0 0
561 1 1 0 7.152 4.821 3.000 0 0 0
562 1 1 0 6.428 3.602 3.000 0 0 0
563 1 1 0 7.121 2.365 3.000 0 0 0
564 1 1 0 6.396 1.146 3.000 0 0 0
565 1 1 0 11.343 165.648 3.000 0 0 0
566 1 1 0 10.618 164.429 3.000 0 0 0
567 1 1 0 11.311 163.192 3.000 0 0 0
568 1 1 0 10.587 161.974 3.000 0 0 0
569 1 1 0 11.280 160.737 3.000 0 0 0
570 1 1 0 10.555 159.518 3.000 0 0 0
571 1 1 0 11.248 158.281 3.000 0 0 0
572 1 1 0 10.524 157.062 3.000 0 0 0
573 1 1 0 11.217 155.825 3.000 0 0 0
574 1 1 0 10.492 154.606 3.000 0 0 0
575 1 1 0 11.185 153.369 3.000 0 0 0
576 1 1 0 10.461 152.150 3.000 0 0 0
577 1 1 0 11.154 150.913 3.000 0 0 0
578 1 1 0 10.429 149.695 3.000 0 0 0
579 1 1 0 11.122 148.458 3.000 0 0 0
580 1 1 0 10.398 147.239 3.000 0 0 0
581 1 1 0 11.091 146.002 3.000 0 0 0
582 1 1 0 10.366 144.783 3.000 0 0 0
583 1 1 0 11.059 143.546 3.000 0 0 0
584 1 1 0 10.335 142.327 3.000 0 0 0
585 1 1 0 11.028 141.090 3.000 0 0 0
586 1 1 0 10.303 139.871 3.000 0 0 0
587 1 1 0 10.996 138.634 3.000 0 0 0
588 1 1 0 10.272 137.416 3.000 0 0 0
589 1 1 0 10.965 136.179 3.000 0 0 0
590 1 1 0 10.240 134.960 3.000 0 0 0
591 1 1 0 10.933 133.723 3.000 0 0 0
592 1 1 0 10.209 132.504 3.000 0 0 0
593 1 1 0 10.902 131.267 3.000 0 0 0
594 1 1 0 10.177 130.048 3.000 0 0 0
595 1 1 0 10.870 128.811 3.000 0 0 0
596 1 1 0 10.146 127.592 3.000 0 0 0
597 1 1 0 10.839 126.355 3.000 0 0 0
598 1 1 0 10.114 125.137 3.000 0 0 0
599 1 1 0 10.807 123.900 3.000 0 0 0
600 1 1 0 10.083 122.681 3.000 0 0 0
601 1 1 0 10.776 121.444 3.000 0 0 0
602 1 1 0 10.051 120.225 3.000 0 0 0
603 1 1 0 10.744 118.988 3.000 0 0 0
604 1 1 0 10.020 117.769 3.000 0 0 0
605 1 1 0 10.713 116.532 3.000 0 0 0
606 1 1 0 9.988 115.313 3.000 0 0 0
607 1 1 0 10.681 114.076 3.000 0 0 0
608 1 1 0 9.956 112.858 3.000 0 0 0
609 1 1 0 10.650 111.621 3.000 0 0 0
610 1 1 0 9.925 110.402 3.000 0 0 0
611 1 1 0 10.618 109.165 3.000 0 0 0
612 1 1 0 9.893 107.946 3.000 0 0 0
613 1 1 0 10.587 106.709 3.000 0 0 0
614 1 1 0 9.862 105.490 3.000 0 0 0
615 1 1 0 10.555 104.253 3.000 0 0 0
616 1 1 0 9.830 103.034 3.000 0 0 0
617 1 1 0 10.524 101.797 3.000 0 0 0
618 1 1 0 9.799 100.579 3.000 0 0 0
619 1 1 0 10.492 99.342 3.000 0 0 0
620 1 1 0 9.767 98.123 3.000 0 0 0
621 1 1 0 10.461 96.886 3.000 0 0 0
622 1 1 0 9.736 95.667 3.000 0 0 0
623 1 1 0 10.429 94.430 3.000 0 0 0
624 1 1 0 9.704 93.211 3.000 0 0 0
625 1 1 0 10.398 91.974 3.000 0 0 0
626 1 1 0 9.673 90.755 3.000 0 0 0
627 1 1 0 10.366 89.518 3.000 0 0 0
628 1 1 0 9.641 88.300 3.000 0 0 0
629 1 1 0 10.335 87.063 3.000 0 0 0
630 1 1 0 9.610 85.844 3.000 0 0 0
631 1 1 0 10.303 84.607 3.000 0 0 0
632 1 1 0 9.578 83.388 3.000 0 0 0
633 1 1 0 10.272 82.151 3.000 0 0 0
634 1 1 0 9.547 80.932 3.000 0 0 0
635 1 1 0 10.240 79.695 3.000 0 0 0
636 1 1 0 9.515 78.476 3.000 0 0 0
637 1 1 0 10.209 77.239 3.000 0 0 0
638 1 1 0 9.484 76.021 3.000 0 0 0
639 1 1 0 10.177 74.784 3.000 0 0 0
640 1 1 0 9.452 73.565 3.000 0 0 0
641 1 1 0 10.146 72.328 3.000 0 0 0
642 1 1 0 9.421 71.109 3.000 0 0 0
643 1 1 0 10.114 69.872 3.000 0 0 0
644 1 1 0 9.389 68.653 3.000 0 0 0
645 1 1 0 10.083 67.416 3.000 0 0 0
646 1 1 0 9.358 66.197 3.000 0 0 0
647 1 1 0 10.051 64.960 3.000 0 0 0
648 1 1 0 9.326 63.742 3.000 0 0 0
649 1 1 0 10.020 62.505 3.000 0 0 0
650 1 1 0 9.295 61.286 3.000 0 0 0
651 1 1 0 9.988 60.049 3.000 0 0 0
652 1 1 0 9.263 58.830 3.000 0 0 0
653 1 1 0 9.956 57.593 3.000 0 0 0
654 1 1 0 9.232 56.374 3.000 0 0 0
655 1 1 0 9.925 55.137 3.000 0 0 0
656 1 1 0 9.200 53.918 3.000 0 0 0
657 1 1 0 9.893 52.681 3.000 0 0 0
658 1 1 0 9.169 51.463 3.000 0 0 0
659 1 1 0 9.862 50.226 3.000 0 0 0
660 1 1 0 9.137 49.007 3.000 0 0 0
661 1 1 0 9.830 47.770 3.000 0 0 0
662 1 1 0 9.106 46.551 3.000 0 0 0
663 1 1 0 9.799 45.314 3.000 0 0 0
664 1 1 0 9.074 44.095 3.000 0 0 0
665 1 1 0 9.767 42.858 3.000 0 0 0
666 1 1 0 9.043 41.639 3.000 0 0 0
667 1 1 0 9.736 40.402 3.000 0 0 0
668 1 1 0 9.011 39.184 3.000 0 0 0
669 1 1 0 9.704 37.947 3.000 0 0 0
670 1 1 0 8.980 36.728 3.000 0 0 0
671 1 1 0 9.673 35.491 3.000 0 0 0
672 1 1 0 8.948 34.272 3.000 0 0 0
673 1 1 0 9.641 33.035 3.000 0 0 0
674 1 1 0 8.917 31.816 3.000 0 0 0
675 1 1 0 9.610 30.579 3.000 0 0 0
676 1 1 0 8.885 29.360 3.000 0 0 0
677 1 1 0 9.578 28.123 3.000 0 0 0
678 1 1 0 8.854 26.905 3.000 0 0 0
679 1 1 0 9.547 25.668 3.000 0 0 0
680 1 1 0 8.822 24.449 3.000 0 0 0
681 1 1 0 9.515 23.212 3.000 0 0 0
682 1 1 0 8.791 21.993 3.000 0 0 0
683 1 1 0 9.484 20.756 3.000 0 0 0
684 1 1 0 8.759 19.537 3.000 0 0 0
685 1 1 0 9.452 18.300 3.000 0 0 0
686 1 1 0 8.728 17.081 3.000 0 0 0
687 1 1 0 9.421 15.844 3.000 0 0 0
688 1 1 0 8.696 14.626 3.000 0 0 0
689 1 1 0 9.389 13.389 3.000 0 0 0
690 1 1 0 8.665 12.170 3.000 0 0 0
691 1 1 0 9.358 10.933 3.000 0 0 0
692 1 1 0 8.633 9.714 3.000 0 0 0
693 1 1 0 9.326 8.477 3.000 0 0 0
694 1 1 0 8.602 7.258 3.000 0 0 0
695 1 1 0 9.295 6.021 3.000 0 0 0
696 1 1 0 8.570 4.802 3.000 0 0 0
697 1 1 0 9.263 3.565 3.000 0 0 0
698 1 1 0 8.539 2.347 3.000 0 0 0
699 1 1 0 9.232 1.110 3.000 0 0 0
700 1 1 0 12.761 165.630 3.000 0 0 0
701 1 1 0 13.454 164.393 3.000 0 0 0
702 1 1 0 12.729 163.174 3.000 0 0 0
703 1 1 0 13.422 161.937 3.000 0 0 0
704 1 1 0 12.698 160.718 3.000 0 0 0
705 1 1 0 13.391 159.481 3.000 0 0 0
706 1 1 0 12.666 158.263 3.000 0 0 0
707 1 1 0 13.359 157.026 3.000 0 0 0
708 1 1 0 12.635 155.807 3.000 0 0 0
709 1 1 0 13.328 154.570 3.000 0 0 0
710 1 1 0 12.603 153.351 3.000 0 0 0
711 1 1 0 13.296 152.114 3.000 0 0 0
712 1 1 0 12.572 150.895 3.000 0 0 0
713 1 1 0 13.265 149.658 3.000 0 0 0
714 1 1 0 12.540 148.439 3.000 0 0 0
715 1 1 0 13.233 147.202 3.000 0 0 0
716 1 1 0 12.509 145.984 3.000 0 0 0
717 1 1 0 13.202 144.747 3.000 0 0 0
718 1 1 0 12.477 143.528 3.000 0 0 0
719 1 1 0 13.170 142.291 3.000 0 0 0
720 1 1 0 12.446 141.072 3.000 0 0 0
721 1 1 0 13.139 139.835 3.000 0 0 0
722 1 1 0 12.414 138.616 3.000 0 0 0
723 1 1 0 13.107 137.379 3.000 0 0 0
724 1 1 0 12.383 136.160 3.000 0 0 0
725 1 1 0 13.076 134.923 3.000 0 0 0
726 1 1 0 12.351 133.705 3.000 0 0 0
727 1 1 0 13.044 132.468 3.000 0 0 0
728 1 1 0 12.320 131.249 3.000 0 0 0
729 1 1 0 13.013 130.012 3.000 0 0 0
730 1 1 0 12.288 128.793 3.000 0 0 0
731 1 1 0 12.981 127.556 3.000 0 0 0
732 1 1 0 12.257 126.337 3.000 0 0 0
733 1 1 0 12.950 125.100 3.000 0 0 0
734 1 1 0 12.225 123.881 3.000 0 0 0
735 1 1 0 12.918 122.644 3.000 0 0 0
736 1 1 0 12.194 121.426 3.000 0 0 0
737 1 1 0 12.887 120.189 3.000 0 0 0
738 1 1 0 12.162 118.970 3.000 0 0 0
739 1 1 0 12.855 117.733 3.000 0 0 0
740 1 1 0 12.131 116.514 3.000 0 0 0
741 1 1 0 12.824 115.277 3.000 0 0 0
742 1 1 0 12.099 114.058 3.000 0 0 0
743 1 1 0 12.792 112.821 3.000 0 0 0
744 1 1 0 12.068 111.602 3.000 0 0 0
745 1 1 0 12.761 110.365 3.000 0 0 0
746 1 1 0 12.036 109.147 3.000 0 0 0
747 1 1 0 12.729 107.910 3.000 0 0 0
748 1 1 0 12.005 106.691 3.000 0 0 0
749 1 1 0 12.698 105.454 3.000 0 0 0
750 1 1 0 11.973 104.235 3.000 0 0 0
751 1 1 0 12.666 102.998 3.000 0 0 0
752 1 1 0 11.941 101.779 3.000 0 0 0
753 1 1 0 12.635 100.542 3.000 0 0 0
754 1 1 0 11.910 99.323 3.000 0 0 0
755 1 1 0 12.603 98.086 3.000 0 0 0
756 1 1 0 11.878 96.868 3.000 0 0 0
757 1 1 0 12.572 95.631 3.000 0 0 0
758 1 1 0 11.847 94.412 3.000 0 0 0
759 1 1 0 12.540 93.175 3.000 0 0 0
760 1 1 0 11.815 91.956 3.000 0 0 0
761 1 1 0 12.509 90.719 3.000 0 0 0
762 1 1 0 11.784 89.500 3.000 0 0 0
763 1 1 0 12.477 88.263 3.000 0 0 0
764 1 1 0 11.752 87.044 3.000 0 0 0
765 1 1 0 12.446 85.807 3.000 0 0 0
766 1 1 0 11.721 84.589 3.000 0 0 0
767 1 1 0 12.414 83.352 3.000 0 0 0
768 1 1 0 11.689 82.133 3.000 0 0 0
769 1 1 0 12.383 80.896 3.000 0 0 0
770 1 1 0 11.658 79.677 3.000 0 0 0
771 1 1 0 12.351 78.440 3.000 0 0 0
772 1 1 0 11.626 77.221 3.000 0 0 0
773 1 1 0 12.320 75.984 3.000 0 0 0
774 1 1 0 11.595 74.765 3.000 0 0 0
775 1 1 0 12.288 73.528 3.000 0 0 0
776 1 1 0 11.563 72.310 3.000 0 0 0
777 1 1 0 12.257 71.073 3.000 0 0 0
778 1 1 0 11.532 69.854 3.000 0 0 0
779 1 1 0 12.225 68.617 3.000 0 0 0
780 1 1 0 11.500 67.398 3.000 0 0 0
781 1 1 0 12.194 66.161 3.000 0 0 0
782 1 1 0 11.469 64.942 3.000 0 0 0
783 1 1 0 12.162 63.705 3.000 0 0 0
784 1 1 0 11.437 62.486 3.000 0 0 0
785 1 1 0 12.131 61.249 3.000 0 0 0
786 1 1 0 11.406 60.031 3.000 0 0 0
787 1 1 0 12.099 58.794 3.000 0 0 0
788 1 1 0 11.374 57.575 3.000 0 0 0
789 1 1 0 12.068 56.338 3.000 0 0 0
790 1 1 0 11.343 55.119 3.000 0 0 0
791 1 1 0 12.036 53.882 3.000 0 0 0
792 1 1 0 11.311 52.663 3.000 0 0 0
793 1 1 0 12.005 51.426 3.000 0 0 0
794 1 1 0 11.280 50.207 3.000 0 0 0
795 1 1 0 11.973 48.970 3.000 0 0 0
796 1 1 0 11.248 47.752 3.000 0 0 0
797 1 1 0 11.941 46.515 3.000 0 0 0
798 1 1 0 11.217 45.296 3.000 0 0 0
799 1 1 0 11.910 44.059 3.000 0 0 0
800 1 1 0 11.185 42.840 3.000 0 0 0
801 1 1 0 11.878 41.603 3.000 0 0 0
802 1 1 0 11.154 40.384 3.000 0 0 0
803 1 1 0 11.847 39.147 3.000 0 0 0
804 1 1 0 11.122 37.928 3.000 0 0 0
805 1 1 0 11.815 36.691 3.000 0 0 0
806 1 1 0 11.091 35.473 3.000 0 0 0
807 1 1 0 11.784 34.236 3.000 0 0 0
808 1 1 0 11.059 33.017 3.000 0 0 0
809 1 1 0 11.752 31.780 3.000 0 0 0
810 1 1 0 11.028 30.561 3.000 0 0 0
811 1 1 0 11.721 29.324 3.000 0 0 0
812 1 1 0 10.996 28.105 3.000 0 0 0
813 1 1 0 11.689 26.868 3.000 0 0 0
814 1 1 0 10.965 25.649 3.000 0 0 0
815 1 1 0 11.658 24.412 3.000 0 0 0
816 1 1 0 10.933 23.194 3.000 0 0 0
817 1 1 0 11.626 21.957 3.000 0 0 0
818 1 1 0 10.902 20.738 3.000 0 0 0
819 1 1 0 11.595 19.501 3.000 0 0 0
820 1 1 0 10.870 18.282 3.000 0 0 0
821 1 1 0 11.563 17.045 3.000 0 0 0
822 1 1 0 10.839 15.826 3.000 0 0 0
823 1 1 0 11.532 14.589 3.000 0 0 0
824 1 1 0 10.807 13.370 3.000 0 0 0
825 1 1 0 11.500 12.133 3.000 0 0 0
826 1 1 0 10.776 10.915 3.000 0 0 0
827 1 1 0 11.469 9.678 3.000 0 0 0
828 1 1 0 10.744 8.459 3.000 0 0 0
829 1 1 0 11.437 7.222 3.000 0 0 0
830 1 1 0 10.713 6.003 3.000 0 0 0
831 1 1 0 11.406 4.766 3.000 0 0 0
832 1 1 0 10.681 3.547 3.000 0 0 0
833 1 1 0 11.374 2.310 3.000 0 0 0
834 1 1 0 10.650 1.091 3.000 0 0 0
835 1 1 0 15.596 165.594 3.000 0 0 0
836 1 1 0 14.872 164.375 3.000 0 0 0
837 1 1 0 15.565 163.138 3.000 0 0 0
838 1 1 0 14.840 161.919 3.000 0 0 0
839 1 1 0 15.533 160.682 3.000 0 0 0
840 1 1 0 14.809 159.463 3.000 0 0 0
841 1 1 0 15.502 158.226 3.000 0 0 0