ITEM: TIMESTEP
0
ITEM: NUMBER OF ATOMS
22328
ITEM: BOX BOUNDS pp pp pp
0.0000000000000000e+00 1.2975027299999999e+02
0.0000000000000000e+00 2.2473406499999999e+02
0.0000000000000000e+00 1.5000000000000000e+01
ITEM: ATOMS id type x y z c_csym c_2[1] c_2[2] c_2[3] c_2[4] c_2[5] c_2[6] c_3 
208 1 0.79 8.589 3 6.02511 -154415 -150886 -154478 -16976.8 16312.5 -1759.41 -7.40786 
209 1 0.07 7.368 3 6.02334 -134721 -163135 -154818 -12994.2 16723.8 -168.845 -7.40718 
210 1 0.767 6.133 3 6.02637 -145499 -136280 -156293 2576.11 12345.7 -1729 -7.40756 
211 1 0.046 4.912 3 6.01955 -165454 -128225 -156929 -8579.01 11077.1 -106.491 -7.4075 
212 1 0.744 3.677 3 6.02329 -136765 -123680 -157619 -11736.1 7771.52 -1751.3 -7.40708 
213 1 0.023 2.456 3 6.02394 -165251 -128157 -158131 -9745.79 5508.67 -31.3336 -7.40744 
214 1 0.721 1.221 3 6.02257 -182519 -122843 -158370 -9860.46 2685.84 -1681.92 -7.40761 
215 1 0 0 3 6.02596 -128208 -139003 -158495 284.952 -37.4203 4.68384 -7.40717 
392 1 2.208 8.575 3 6.0211 -125446 -136915 -153275 21141.8 19203.7 -3835.32 -7.40721 
393 1 2.906 7.341 3 6.02148 -194084 -152051 -154850 -285.259 14487.3 -6965.42 -7.40815 
394 1 2.185 6.12 3 6.02217 -136528 -148514 -155770 3095.14 13754.3 -4045.77 -7.40722 
395 1 2.882 4.885 3 6.02589 -151915 -153651 -156476 -13413.3 10152.4 -6801.12 -7.40774 
396 1 2.162 3.664 3 6.02657 -145154 -160247 -157389 -9393.17 8195.56 -4340.66 -7.40769 
397 1 2.859 2.429 3 6.02721 -142743 -138822 -157580 1020.21 5273.97 -6587.28 -7.40748 
398 1 2.138 1.208 3 6.02224 -179776 -122776 -158175 -9798.94 2605.02 -4568.6 -7.40763 
575 1 5.044 8.549 3 6.02114 -146390 -135201 -152390 28998 16447.6 -12122.8 -7.4079 
576 1 4.323 7.327 3 6.01966 -173202 -132927 -154058 22954.1 16067 -7708.09 -7.40787 
577 1 5.021 6.093 3 6.02294 -145269 -155950 -154470 -1636.99 12487.9 -11833.1 -7.40759 
578 1 4.3 4.872 3 6.02329 -128506 -133168 -155982 -10335.3 10563 -8251.93 -7.40706 
579 1 4.998 3.637 3 6.02304 -183749 -121625 -155936 -19040.2 8010.54 -11447.3 -7.40776 
580 1 4.277 2.416 3 6.02461 -140610 -143072 -157087 4914.67 5066.89 -8714.42 -7.40727 
581 1 4.974 1.181 3 6.02589 -148272 -154487 -156833 -13841.4 3047.61 -10997.2 -7.40771 
758 1 6.462 8.535 3 6.02537 -141794 -180945 -151900 20931.3 18012.4 -10780.8 -7.40815 
759 1 7.159 7.301 3 6.01884 -151680 -155888 -151540 13037.8 14712.8 -16729.9 -7.40791 
760 1 6.439 6.079 3 6.02345 -142157 -162693 -154043 23479.9 12723.1 -11677.7 -7.408 
761 1 7.136 4.845 3 6.02361 -143165 -138388 -153409 27309.8 10637 -16318.3 -7.40784 
762 1 6.415 3.623 3 6.01966 -176195 -130659 -155482 24228.2 7096.94 -12538.3 -7.40766 
763 1 7.113 2.389 3 6.02292 -142150 -158993 -154710 -3330.32 6065.13 -15763.6 -7.40759 
764 1 6.392 1.168 3 6.02313 -132306 -128689 -155955 -8299.06 1677.38 -13269.3 -7.40681 
942 1 8.577 7.287 3 6.02329 -128082 -132606 -151786 -7947.75 14288.3 -14612.8 -7.40742 
944 1 8.554 4.831 3 6.02537 -143973 -178440 -153380 22356 8930.74 -15776.3 -7.40805 
945 1 9.251 3.597 3 6.01884 -147818 -158750 -151817 11502.7 8742.79 -20357.3 -7.40801 
946 1 8.531 2.375 3 6.019 -143288 -162519 -154052 24993.2 3642 -16809.6 -7.40789 
947 1 9.228 1.141 3 6.02521 -147758 -172234 -152968 9652.68 4165.98 -19524.4 -7.40807 
11192 2 0.628 8.602 6.4 6.0216 -129942 -138829 -153400 -31908.2 19383.1 -1108.11 -7.40774 
11193 2 0.651 6.146 6.4 6.02218 -140612 -155185 -155942 -17330.8 13925.9 -1203.49 -7.40733 
11194 2 0.674 3.691 6.4 6.02158 -140743 -152903 -157586 14183.7 8341.09 -1410.05 -7.40745 
11195 2 0.697 1.235 6.4 6.02425 -145569 -155057 -158390 10177.3 2828.98 -1575.83 -7.40735 
11196 2 0 0 6.4 6.02596 -128144 -139064 -158493 -2437.73 37.3551 9.64952 -7.40717 
11372 2 2.046 8.616 6.4 6.02329 -162977 -183981 -154143 -3830.76 16447 -5212.76 -7.4081 
11373 2 2.766 7.395 6.4 6.0204 -143807 -163221 -154395 16079.3 16539.2 -4953.66 -7.40773 
11374 2 2.069 6.16 6.4 6.02522 -156221 -149759 -156024 15261.7 12431.2 -5046.91 -7.40767 
11375 2 2.789 4.939 6.4 6.02308 -145835 -161807 -156472 15339.3 10935.7 -5468.26 -7.40749 
11376 2 2.092 3.704 6.4 6.02596 -144875 -137585 -157373 -3024.79 7887.41 -4843.11 -7.40739 
11377 2 2.813 2.483 6.4 6.0224 -179211 -126273 -157703 12571.5 5328.32 -5865.29 -7.40766 
11378 2 2.115 1.248 6.4 6.02345 -133929 -125884 -158100 7966.13 2749.42 -4728.98 -7.40711 
11379 2 2.836 0.027 6.4 6.02313 -132930 -124657 -157949 13557.8 -137.575 -6242.28 -7.40706 
11555 2 4.881 8.643 6.4 6.02141 -142183 -167115 -152496 17389.8 18702.5 -8150.58 -7.40761 
11556 2 4.184 7.408 6.4 6.02519 -149363 -134612 -154092 -4284.95 14622.7 -10140.4 -7.40748 
11557 2 4.905 6.187 6.4 6.0224 -176672 -129248 -154824 14352.2 13216.5 -9042.6 -7.40783 
11558 2 4.207 4.952 6.4 6.02329 -137621 -123130 -155719 7107.62 10457 -9881.26 -7.4072 
11559 2 4.928 3.731 6.4 6.02329 -130552 -130072 -156202 14081.9 7752.85 -9829.92 -7.40716 
11560 2 4.23 2.496 6.4 6.02241 -183271 -122372 -156915 7142.28 5651.15 -9593.62 -7.4077 
11561 2 4.951 1.275 6.4 6.02653 -139702 -141939 -156906 719.872 2201.83 -10495.8 -7.40753 
11562 2 4.254 0.04 6.4 6.02445 -149109 -155623 -157409 8466.46 455.393 -9174.89 -7.40743 
11738 2 6.299 8.656 6.4 6.02329 -140869 -120716 -151112 6068.55 16867.5 -15124.9 -7.40747 
11739 2 7.02 7.435 6.4 6.02329 -128133 -132958 -152683 15858.5 15130.6 -12113.4 -7.40738 
11740 2 6.322 6.2 6.4 6.0224 -186488 -119858 -153237 5999.93 12942.5 -14827 -7.40792 
11741 2 7.043 4.979 6.4 6.02705 -136890 -145087 -154477 2501.11 9773.32 -13205.1 -7.40767 
11742 2 6.346 3.744 6.4 6.02657 -151067 -154857 -154827 6647.96 8376.83 -14457.5 -7.40784 
11743 2 7.066 2.523 6.4 6.02589 -145793 -159875 -155294 16871.9 4366.82 -14188.4 -7.40781 
11744 2 6.369 1.288 6.4 6.02233 -142048 -142899 -155769 -6025.16 3545.82 -13854.8 -7.40724 
11745 2 7.09 0.067 6.4 6.02164 -187332 -155967 -155421 4905.98 -907.37 -15084.1 -7.40811 
11921 2 9.135 8.683 6.4 6.02705 -134644 -147839 -150028 4225.15 16765.8 -14744.2 -7.40794 
11922 2 8.438 7.448 6.4 6.02657 -154297 -152539 -149912 5687.9 15284.2 -19526.5 -7.40814 
11923 2 9.158 6.227 6.4 6.02657 -143229 -162774 -152003 18633 11578.3 -16177.2 -7.40801 
11924 2 8.461 4.992 6.4 6.02705 -145011 -137763 -151811 -9115.71 11263.5 -19074.5 -7.40782 
11925 2 9.182 3.771 6.4 6.0224 -178124 -127901 -153276 17576.8 6139.67 -17408.8 -7.40792 
11926 2 8.484 2.536 6.4 6.02329 -135768 -128613 -153194 5929.47 6675.41 -18500.4 -7.40698 
11927 2 9.205 1.315 6.4 6.02292 -139078 -162111 -153534 5145.68 837.449 -18528.1 -7.40766 
11928 2 8.507 0.081 6.4 6.01934 -177922 -125506 -154009 -26940.6 1602.66 -17719.5 -7.40786 
941 1 9.298 8.508 3 6.02329 -142170 -122271 -147644 -18046.9 16864.5 -21473.5 -7.40744 
943 1 9.275 6.052 3 6.02238 -184792 -123285 -149913 -20657.6 13142.8 -21053.4 -7.408 
1124 1 10.716 8.495 3 6.02398 -142182 -164052 -149178 -2411.11 15691.3 -16873.4 -7.40818 
1125 1 11.413 7.26 3 6.02586 -149100 -136710 -145655 -6056.98 15363.1 -25425.4 -7.40798 
1126 1 10.692 6.039 3 6.0224 -176874 -129301 -150894 -1645.23 10475.9 -18418.1 -7.40807 
1127 1 11.39 4.804 3 6.02329 -137446 -127995 -147785 -20071.4 11624.8 -24730.8 -7.40731 
1128 1 10.669 3.583 3 6.02292 -137575 -163781 -151727 10429.1 5213.23 -19754.4 -7.40776 
1129 1 11.367 2.349 3 6.01966 -180699 -127296 -149742 10734.3 7278.33 -23790.5 -7.40801 
1130 1 10.646 1.127 3 6.02409 -137973 -140849 -151769 39388.5 -23.0306 -20992.6 -7.40794 
1307 1 13.551 8.468 3 6.02398 -154947 -153888 -140538 -19809.3 17517.7 -29367.6 -7.4087 
1308 1 12.831 7.247 3 6.02657 -145265 -160992 -148183 349.176 11668.7 -20368.4 -7.40823 
1309 1 13.528 6.012 3 6.02657 -155221 -153081 -143297 -18854.3 14196.1 -28646.4 -7.40852 
1310 1 12.808 4.791 3 6.02398 -144364 -161919 -149058 -1261.59 6488.35 -22112.3 -7.40818 
1311 1 13.505 3.556 3 6.02342 -147423 -140361 -145475 -9642.78 10275.4 -27822.7 -7.40775 
1312 1 12.784 2.335 3 6.02303 -179164 -126950 -149179 -5605.75 1380.48 -23679.3 -7.40817 
1313 1 13.482 1.1 3 6.02346 -132216 -128295 -147123 -22433.9 5824.33 -26686.2 -7.40758 
1490 1 14.969 8.455 3 6.02329 -127210 -132407 -145341 898.772 12294.1 -21832.9 -7.40803 
1491 1 15.667 7.22 3 6.02329 -139003 -123729 -137710 -20587.5 16591.5 -32303.7 -7.40849 
1492 1 14.946 5.999 3 6.02587 -138084 -146336 -146281 13982.1 7417.66 -23785.3 -7.40796 
1493 1 15.643 4.764 3 6.02398 -151665 -157061 -140575 -21584.8 12952.8 -31378.7 -7.40869 
1494 1 14.923 3.543 3 6.02657 -147631 -159054 -146554 1296.03 2460.92 -25548 -7.40833 
1495 1 15.62 2.308 3 6.02673 -152001 -156001 -142616 -20545.5 9047.9 -30275.5 -7.40858 
1496 1 14.9 1.087 3 6.02398 -146670 -157626 -145977 -1629.16 -2308.28 -27079.1 -7.40836 
1673 1 17.805 8.428 3 6.02522 -157000 -153369 -131652 -25535.3 18577.9 -35445.2 -7.40922 
1674 1 17.085 7.207 3 6.02269 -144337 -164194 -143484 -374.628 8089.56 -24809.5 -7.40828 
1675 1 17.782 5.972 3 6.02586 -147278 -140672 -134650 -8529.04 15645.5 -34560.6 -7.40865 
1676 1 17.061 4.751 3 6.02329 -129459 -130647 -143670 1749.09 3240.67 -26834.5 -7.40813 
1677 1 17.759 3.516 3 6.02329 -135646 -126799 -137377 -22252.8 12154.8 -33462.3 -7.40851 
1678 1 17.038 2.295 3 6.02587 -140743 -144450 -143133 14708.3 -1562.7 -28649.9 -7.40815 
1679 1 17.735 1.06 3 6.02413 -147897 -157707 -139771 -21922.8 8105.75 -32030.8 -7.40874 
12104 2 10.553 8.696 6.4 6.02705 -148251 -135731 -145672 -9864.95 17507.5 -23922.8 -7.40819 
12105 2 11.274 7.475 6.4 6.02241 -175669 -130634 -149529 19250.1 12817.1 -18453.3 -7.40815 
12106 2 10.576 6.24 6.4 6.02329 -140464 -123977 -147979 4798.59 13808.3 -23472.9 -7.40741 
12107 2 11.297 5.019 6.4 6.02329 -129110 -131620 -150620 23976.9 7684.12 -20055 -7.4075 
12108 2 10.599 3.784 6.4 6.02238 -183074 -124972 -149849 6750.08 9648.67 -22831.5 -7.40801 
12109 2 11.32 2.563 6.4 6.02537 -145240 -177528 -151183 -6647.21 2570.04 -21452.4 -7.40818 
12110 2 10.623 1.329 6.4 6.01884 -146237 -160276 -151086 -26059.6 4965.16 -22050.9 -7.40807 
12111 2 11.343 0.107 6.4 6.01916 -144216 -159506 -150848 -8483.15 -2485.9 -22732.4 -7.40807 
12287 2 13.389 8.723 6.4 6.02329 -126815 -134126 -146738 25535.6 13782.6 -20093.8 -7.40773 
12288 2 12.691 7.488 6.4 6.02238 -186338 -123124 -143312 6122.84 16268.6 -27547.5 -7.4084 
12289 2 13.412 6.267 6.4 6.02537 -142592 -180242 -148046 -5040.01 8812.46 -22033.6 -7.40837 
12290 2 12.715 5.033 6.4 6.01884 -149992 -158857 -145571 -26571.9 12526.7 -26863.1 -7.40826 
12291 2 13.435 3.811 6.4 6.02345 -143183 -162233 -148504 -7866.34 3850.04 -23778.5 -7.40834 
12292 2 12.738 2.577 6.4 6.02361 -141481 -141147 -147439 -41489.2 8198.85 -25959.2 -7.4082 
12293 2 13.459 1.355 6.4 6.01982 -177576 -130281 -148153 -8988.84 -1111 -25381.6 -7.40812 
12294 2 12.761 0.121 6.4 6.02292 -139937 -159410 -148630 -12620.4 3631.07 -24929.9 -7.40794 
12470 2 14.807 8.737 6.4 6.01884 -153256 -157275 -137737 -26945.6 18426.3 -31264.4 -7.40874 
12471 2 15.527 7.515 6.4 6.02345 -141363 -165033 -145211 -6553.44 9740.32 -23375.9 -7.40841 
12472 2 14.83 6.281 6.4 6.02114 -144724 -139477 -140461 -41973.4 15189.9 -30582.1 -7.40862 
12473 2 15.551 5.059 6.4 6.01966 -174043 -132718 -145747 -7663.92 4766.3 -25465 -7.40837 
12474 2 14.853 3.825 6.4 6.02294 -143553 -159938 -142812 -11990.6 11405 -29650.7 -7.40829 
12475 2 15.574 2.604 6.4 6.02329 -129619 -133425 -145330 25280.9 -92.8212 -27289.7 -7.4077 
12476 2 14.876 1.369 6.4 6.0232 -182137 -125093 -144675 4834.88 7081.26 -28502.7 -7.40844 
12477 2 15.597 0.148 6.4 6.02342 -143769 -140993 -144304 12539.4 -4722.92 -28928.9 -7.40782 
12653 2 17.643 8.763 6.4 6.01966 -173143 -132359 -142526 -6134.62 10148.5 -24124.7 -7.40869 
12654 2 16.945 7.529 6.4 6.02169 -139308 -125942 -134530 -29571.7 17635.6 -33852.2 -7.40846 
12655 2 17.666 6.307 6.4 6.0211 -126015 -136743 -142965 -6410.36 5486.53 -26397.3 -7.40784 
12656 2 16.968 5.073 6.4 6.02148 -192379 -157279 -137446 -12645 14212.1 -32906.6 -7.4092 
12657 2 17.689 3.852 6.4 6.02166 -139765 -148389 -142476 13053.3 794.513 -28561.7 -7.40781 
12658 2 16.992 2.617 6.4 6.02397 -150157 -158409 -139888 -86.5065 10318.6 -31730.2 -7.40873 
12659 2 17.712 1.396 6.4 6.02657 -148845 -158763 -141467 22125.1 -3807.58 -30408.2 -7.40864 
12660 2 17.015 0.161 6.4 6.02688 -150017 -155120 -141841 -3169.55 6094.79 -30307.8 -7.40861 
1856 1 19.223 8.414 3 6.02179 -134249 -151429 -140834 45621.6 8310.51 -25249.9 -7.40814 
1857 1 19.92 7.18 3 6.02304 -160600 -191142 -128173 -10855.5 18019.7 -37310.9 -7.40976 
1858 1 19.2 5.959 3 6.0204 -144479 -163377 -141013 -191.486 3712.47 -27519.4 -7.40854 
1859 1 19.897 4.724 3 6.02522 -153632 -156392 -131467 -27132 14923 -36156.8 -7.40924 
1860 1 19.177 3.503 3 6.02269 -146742 -162697 -140284 247.668 -883.973 -29590.5 -7.40846 
1861 1 19.874 2.268 3 6.02587 -144021 -143405 -134294 -10060.7 11394.3 -34846.6 -7.40867 
1862 1 19.153 1.047 3 6.02313 -131743 -126842 -138773 1016.89 -5393.44 -31539.7 -7.40842 
2039 1 22.059 8.388 3 6.02179 -146539 -144688 -120810 19846.7 20133.9 -39676.4 -7.40947 
2040 1 21.338 7.166 3 6.0211 -126234 -132834 -138249 33106.6 3798.25 -27723.2 -7.40858 
2041 1 22.036 5.932 3 6.02169 -137002 -128278 -124629 5979.53 17557.1 -38577.2 -7.40927 
2042 1 21.315 4.71 3 6.02179 -136453 -150144 -137361 46113.4 -606.075 -30019 -7.40836 
2043 1 22.012 3.476 3 6.02304 -157172 -193914 -128271 -12342.9 14354.4 -37160.3 -7.40975 
2044 1 21.292 2.255 3 6.02169 -148702 -162504 -135977 2041.58 -4858.34 -32087.7 -7.40861 
2045 1 21.989 1.02 3 6.02589 -150147 -156797 -131373 -22222.7 10825.4 -35509.2 -7.40924 
2222 1 23.477 8.374 3 6.02486 -151005 -195999 -135789 17646.9 3823.24 -27430.3 -7.40929 
2223 1 24.174 7.14 3 6.02023 -153863 -160774 -117344 6315.17 19852.6 -40468.5 -7.40996 
2224 1 23.454 5.918 3 6.02215 -142497 -164887 -134817 33369.9 -423.188 -29838.3 -7.40904 
2225 1 24.151 4.684 3 6.02241 -144523 -144896 -121420 18242.1 17198.1 -39116.6 -7.40956 
2226 1 23.43 3.462 3 6.0211 -127215 -134364 -133102 33553.9 -4767.5 -32170.9 -7.40876 
2227 1 24.128 2.228 3 6.02292 -141205 -163255 -125196 -12640.6 14096.5 -37535.9 -7.40957 
2228 1 23.407 1.007 3 6.02294 -141237 -146320 -130903 13759.3 -8753.92 -34220.2 -7.4085 
2405 1 26.313 8.347 3 6.02329 -141578 -129234 -109223 -25695.4 22083.4 -42017.7 -7.40996 
2406 1 25.592 7.126 3 6.02587 -136639 -148172 -132544 13325.2 -603.497 -29310.5 -7.40877 
2407 1 26.289 5.891 3 6.02041 -151151 -163880 -113958 -28945.8 19819.6 -40670.2 -7.41017 
2408 1 25.569 4.67 3 6.02487 -153269 -195250 -130647 17788.8 -4678.86 -31726 -7.4096 
2409 1 26.266 3.436 3 6.02023 -150368 -163265 -118361 5090.17 17072 -39132.5 -7.4099 
2410 1 25.546 2.214 3 6.01937 -143093 -166165 -128013 33396.9 -8621.52 -33968.9 -7.40945 
2411 1 26.243 0.98 3 6.02489 -148195 -177447 -122371 1032.66 13905.6 -37374 -7.40982 
2588 1 27.731 8.334 3 6.02397 -141652 -165456 -130618 5064.46 -799.78 -28331.8 -7.40929 
2590 1 27.707 5.878 3 6.02329 -128281 -133106 -128313 5355.09 -4839.9 -30937.1 -7.40906 
2592 1 27.684 3.422 3 6.02586 -139086 -147734 -125421 13255.9 -8705.32 -33283.8 -7.4092 
2594 1 27.661 0.966 3 6.02519 -154956 -192134 -122167 16177.8 -12399.6 -35450.5 -7.41023 
12836 2 19.06 8.777 6.4 6.02151 -195722 -156215 -127729 -12670.7 19751.6 -36826.1 -7.40978 
12837 2 19.781 7.556 6.4 6.0204 -135674 -149961 -140289 16158.1 5777.7 -26836.8 -7.40818 
12838 2 19.084 6.321 6.4 6.02395 -153123 -157128 -131296 4809.51 16882.5 -35770.6 -7.40924 
12839 2 19.804 5.1 6.4 6.02413 -147489 -161695 -139777 25261.7 1294.93 -29136.7 -7.40849 
12840 2 19.107 3.865 6.4 6.02589 -153690 -156103 -134316 -2179.2 13463.6 -34572.3 -7.40906 
12841 2 19.827 2.644 6.4 6.02398 -145243 -162503 -138661 24586.1 -3101.95 -31245.9 -7.40881 
12842 2 19.13 1.409 6.4 6.02602 -143731 -143066 -136859 -15118.5 9578.31 -33134.1 -7.40853 
12843 2 19.851 0.188 6.4 6.02313 -131937 -127133 -136702 24967.9 -7414.97 -33210.1 -7.40855 
13019 2 21.896 8.804 6.4 6.02413 -145105 -163460 -137872 26340.3 5997.49 -26647.2 -7.40861 
13020 2 21.199 7.569 6.4 6.02589 -157018 -155212 -124289 -2105.02 19233.5 -38250.9 -7.40967 
13021 2 21.919 6.348 6.4 6.02397 -142512 -164468 -137258 25757.1 1625.7 -29209 -7.40889 
13022 2 21.222 5.113 6.4 6.02587 -146932 -142254 -127723 -15140.2 16335 -37114 -7.40907 
13023 2 21.943 3.892 6.4 6.02329 -129354 -131717 -135954 24970.7 -2845.44 -31591.9 -7.40859 
13024 2 21.245 2.657 6.4 6.02329 -135299 -128115 -131039 -2400.98 12934.9 -35645.8 -7.40889 
13025 2 21.966 1.436 6.4 6.02587 -140775 -145843 -133917 11406.7 -6922.68 -33683.8 -7.4087 
13026 2 21.269 0.201 6.4 6.02301 -149181 -159231 -133841 -1766.37 9045.31 -33950.3 -7.40884 
13202 2 23.314 8.817 6.4 6.02587 -150340 -141635 -116823 -14854.3 21493.4 -40276.3 -7.40972 
13203 2 24.035 7.596 6.4 6.02329 -126769 -133440 -134948 25936 1611.61 -28831.4 -7.40866 
13204 2 23.337 6.361 6.4 6.02329 -138655 -127410 -120673 -2218.87 18983.7 -39137.9 -7.40951 
13205 2 24.058 5.14 6.4 6.02587 -137765 -147922 -133511 12459.9 -2550.43 -31316.7 -7.40872 
13206 2 23.361 3.905 6.4 6.02397 -151239 -160286 -124496 -2277.21 15897 -37725.4 -7.40967 
13207 2 24.081 2.684 6.4 6.02589 -147451 -161230 -131289 24622.2 -6642.14 -33616.3 -7.40925 
13208 2 23.384 1.449 6.4 6.02185 -151749 -161639 -127950 -2116.59 12516.8 -36111.2 -7.40909 
13209 2 24.104 0.228 6.4 6.0232 -153418 -193930 -128524 14802.7 -10484.4 -35694.7 -7.40973 
13385 2 26.15 8.844 6.4 6.02587 -135383 -149407 -132588 13240.5 1570.34 -28065.2 -7.40878 
13386 2 25.453 7.609 6.4 6.02397 -154664 -159835 -113142 -1895.71 21332.7 -40797 -7.41034 
13387 2 26.173 6.388 6.4 6.02589 -144713 -162937 -131064 25475.3 -2565.21 -30678.4 -7.40926 
13388 2 25.476 5.153 6.4 6.02413 -156435 -158850 -117474 -2074.98 18841.9 -39410.2 -7.40983 
13389 2 26.196 3.932 6.4 6.02304 -143639 -164541 -129015 31670.7 -6520.6 -33063.7 -7.40939 
13390 2 25.499 2.697 6.4 6.02166 -143271 -147585 -121364 -12955.9 15799.6 -37828.9 -7.40933 
13391 2 26.22 1.476 6.4 6.02294 -137906 -165339 -125990 13711.3 -10398.8 -35337.8 -7.40953 
13392 2 25.522 0.242 6.4 6.02078 -129664 -131440 -124859 -34733.3 12411.3 -36023.1 -7.40925 
13568 2 27.568 8.857 6.4 6.02657 -158231 -158253 -104931 -3317.43 23494.7 -42084.3 -7.41084 
13570 2 27.591 6.401 6.4 6.0231 -148189 -147855 -109670 -14344.5 21420 -40745.7 -7.40979 
13572 2 27.614 3.946 6.4 6.0211 -134048 -133812 -114006 -32886 18884.3 -39236.2 -7.40979 
13574 2 27.638 1.49 6.4 6.01905 -147616 -163323 -118473 -32952.5 15831.5 -37401.3 -7.41015 
2589 1 28.428 7.099 3 6.02586 -148196 -145724 -105831 -11202.7 22163.3 -41884.5 -7.41038 
2591 1 28.405 4.643 3 6.02329 -138028 -131615 -110789 -26829.8 19929.6 -40403.8 -7.40987 
2593 1 28.381 2.187 3 6.02072 -147718 -165914 -115626 -29965.4 17109.4 -38604.9 -7.41008 
2771 1 30.566 8.307 3 6.02397 -154712 -163219 -97381.5 -24886.6 24236.4 -42647.6 -7.4113 
2772 1 29.846 7.086 3 6.02657 -144719 -163267 -126599 6545.76 -5053.32 -29726.4 -7.40953 
2773 1 30.543 5.851 3 6.02657 -154798 -161435 -102967 -24062 22424.7 -41171.2 -7.41096 
2774 1 29.823 4.63 3 6.02398 -143930 -165272 -123479 4866.87 -8865.28 -32181.2 -7.40972 
2775 1 30.52 3.395 3 6.02586 -144610 -147861 -108188 -12127.9 20040.2 -39573.9 -7.41024 
2776 1 29.799 2.174 3 6.02329 -131014 -132800 -119829 5045.98 -12561.6 -34486.4 -7.40958 
2777 1 30.497 0.939 3 6.02343 -132650 -133783 -113055 -26648.9 17255.5 -37747.6 -7.4096 
2954 1 31.984 8.294 3 6.02329 -128262 -135009 -125037 4048.49 -5541.97 -28346.9 -7.40901 
2955 1 32.682 7.059 3 6.02329 -138627 -133006 -94448.4 -24625.1 24683.4 -41728.7 -7.4111 
2956 1 31.961 5.838 3 6.02586 -137570 -149559 -121887 18875 -9212.97 -30800.8 -7.40942 
2957 1 32.658 4.603 3 6.02398 -151128 -165321 -100328 -25700.3 22691.9 -40127.3 -7.41112 
2958 1 31.938 3.382 3 6.02657 -147200 -163339 -118037 6128.05 -12788.9 -33180.3 -7.41005 
2959 1 32.635 2.147 3 6.02673 -151329 -163216 -105641 -24756 20216 -38358.1 -7.41081 
2960 1 31.915 0.926 3 6.02322 -146299 -162985 -113692 3146.1 -16101.7 -35328 -7.41031 
3137 1 34.82 8.267 3 6.02486 -163832 -197181 -85600.9 -11258 26617.4 -41806.6 -7.41232 
3138 1 34.1 7.046 3 6.02141 -142380 -169729 -120750 3000.15 -9581.74 -29193 -7.40952 
3139 1 34.797 5.811 3 6.02587 -146767 -149869 -91633 -11468.2 25050.4 -40356.6 -7.41125 
3140 1 34.076 4.59 3 6.02329 -128933 -134805 -116573 5327.59 -13127.3 -31600.3 -7.40977 
3141 1 34.774 3.355 3 6.02329 -134994 -134922 -97873.4 -25226.6 23035.5 -38666.6 -7.41089 
3142 1 34.053 2.134 3 6.02587 -140301 -149714 -111962 18247.3 -16491.4 -33834.8 -7.41003 
3143 1 34.75 0.899 3 6.02413 -147144 -164731 -103881 -24934.6 20491.8 -36784 -7.4109 
3320 1 36.238 8.253 3 6.02179 -133078 -154096 -120024 48167.4 -10084.3 -27361.9 -7.40952 
3321 1 36.935 7.019 3 6.02303 -160122 -201181 -83091.1 -12625.2 27156.7 -40125.4 -7.41248 
3322 1 36.215 5.798 3 6.0204 -143959 -167485 -115716 2114.98 -13501.4 -29778.4 -7.41006 
3323 1 36.912 4.563 3 6.02522 -153002 -165390 -89783.1 -28897.9 25504.4 -38570.6 -7.41175 
3324 1 36.192 3.342 3 6.02269 -146250 -167862 -110756 2527.65 -16784.6 -32011 -7.41024 
3325 1 36.889 2.107 3 6.02587 -143286 -151350 -96145.1 -11824 23376.5 -36892.1 -7.41098 
3326 1 36.168 0.886 3 6.02313 -131295 -133096 -105083 3292.42 -19869.3 -34210.2 -7.41045 
13569 2 28.288 7.636 6.4 6.02306 -141416 -166057 -129212 27285.5 -2641.76 -29602.6 -7.40938 
13571 2 28.312 5.18 6.4 6.02292 -134898 -167142 -126559 14460.6 -6598.76 -32224.3 -7.40949 
13573 2 28.335 2.724 6.4 6.02313 -138588 -149413 -123433 -16450.6 -10366 -34586.2 -7.40931 
13575 2 28.358 0.268 6.4 6.02055 -145910 -162549 -119953 -3141.51 -13863.4 -36678.1 -7.40992 
13751 2 30.404 8.884 6.4 6.02329 -125429 -134774 -127701 32048.2 -2986.55 -28349.3 -7.40909 
13752 2 29.706 7.649 6.4 6.02327 -138400 -132905 -101344 877.084 23743.5 -41736.5 -7.41056 
13753 2 30.427 6.428 6.4 6.02487 -143420 -183343 -124942 1420.41 -6755.84 -30935.6 -7.40955 
13754 2 29.73 5.194 6.4 6.01659 -149405 -165985 -106426 -32549.2 21623.3 -40178 -7.41074 
13755 2 30.45 3.972 6.4 6.02237 -144723 -164007 -121561 -3553.85 -10423.7 -33343.6 -7.40995 
13756 2 29.753 2.738 6.4 6.02452 -151642 -162074 -111265 -34461.4 18990.1 -38483.1 -7.41045 
13757 2 30.473 1.516 6.4 6.01691 -143513 -168655 -117527 -2444.6 -13893.7 -35651.8 -7.40997 
13758 2 29.776 0.282 6.4 6.02487 -148727 -178940 -115748 -31265.5 15966.7 -36598 -7.4101 
13934 2 31.822 8.898 6.4 6.01659 -153500 -166737 -92496.2 -31466.3 25756.3 -42287.5 -7.41147 
13935 2 32.542 7.676 6.4 6.02452 -142193 -165109 -123597 -3182.64 -6971.32 -29396.2 -7.40983 
13936 2 31.845 6.442 6.4 6.02452 -154394 -162002 -98061.4 -33499.6 24088.5 -40886.4 -7.41138 
13937 2 32.565 5.22 6.4 6.01659 -140538 -170154 -120058 -2029.46 -10635 -31921 -7.4098 
13938 2 31.868 3.986 6.4 6.02486 -152458 -181456 -103591 -29343.3 21916.1 -39210.4 -7.41084 
13939 2 32.589 2.765 6.4 6.02327 -128365 -137109 -115664 30254.2 -14207.9 -34261.1 -7.4097 
13940 2 31.891 1.53 6.4 6.02345 -133744 -132845 -108704 569.338 19263.7 -37398.3 -7.41024 
13941 2 32.612 0.309 6.4 6.02486 -142364 -147751 -110866 15770.2 -17377.6 -36396.1 -7.40983 
14117 2 34.657 8.924 6.4 6.01659 -137596 -170633 -123068 -2072 -7359.23 -27651.2 -7.40974 
14118 2 33.96 7.69 6.4 6.02487 -155936 -182062 -89327.1 -28399.1 26287.9 -41151.9 -7.4117 
14119 2 34.681 6.469 6.4 6.02327 -125657 -138193 -118924 30504.6 -10994.4 -30185 -7.4095 
14120 2 33.983 5.234 6.4 6.02329 -137001 -133514 -95246 1440.55 24483.3 -39610.3 -7.41105 
14121 2 34.704 4.013 6.4 6.02487 -139755 -151377 -114279 14863.1 -14390.7 -32592 -7.40963 
14122 2 34.007 2.778 6.4 6.02306 -149905 -165802 -101195 -3598.02 22179 -37838.2 -7.41107 
14123 2 34.727 1.557 6.4 6.02657 -148033 -164709 -109325 25176.9 -17611.3 -34768 -7.41058 
14124 2 34.03 0.322 6.4 6.02688 -149655 -161451 -106808 -6690.79 19518 -35907.4 -7.41072 
14300 2 36.075 8.938 6.4 6.02292 -147655 -167957 -79858 -14567.2 28117.9 -41126.1 -7.41231 
14301 2 36.796 7.717 6.4 6.0231 -135830 -154711 -118436 15171.9 -11340.3 -28310.1 -7.40926 
14302 2 36.099 6.482 6.4 6.02306 -153349 -166629 -86796.8 -2578.59 26780.9 -39576.1 -7.41194 
14303 2 36.819 5.261 6.4 6.02657 -145073 -165929 -113621 25290.1 -14687 -30615.8 -7.41031 
14304 2 36.122 4.026 6.4 6.02657 -153416 -164472 -93177.4 -4492.54 24910.3 -37959.2 -7.41155 
14305 2 36.842 2.805 6.4 6.02397 -144439 -168278 -108339 26390.5 -17844.7 -32859.7 -7.41063 
14306 2 36.145 1.57 6.4 6.02602 -143357 -150388 -99329.6 -17409.1 22572.7 -36140 -7.41079 
14307 2 36.866 0.349 6.4 6.02313 -131154 -134008 -102310 26741 -20808.2 -35003.6 -7.41062 
3503 1 39.074 8.227 3 6.02179 -146742 -155970 -73878.9 18992 28990.1 -39606.2 -7.41219 
3504 1 38.353 7.005 3 6.02169 -125760 -136946 -115144 34117.9 -13986.4 -27782.2 -7.40997 
3505 1 39.051 5.771 3 6.02169 -135713 -137798 -81025.6 5216.5 27737.8 -38196 -7.41203 
3506 1 38.33 4.549 3 6.02179 -135960 -155296 -109811 47096.1 -17222.9 -30040 -7.41002 
3507 1 39.027 3.315 3 6.02303 -156464 -202744 -88224.1 -12891.2 25910.3 -36556.5 -7.41217 
3508 1 38.307 2.094 3 6.0204 -146654 -168175 -104181 1200.09 -20172.4 -32165.2 -7.41077 
3509 1 39.004 0.859 3 6.02505 -149018 -164495 -95191.2 -27812 23709.4 -34742.7 -7.41142 
3686 1 40.492 8.213 3 6.02522 -143472 -166518 -115123 260.785 -14298.6 -25613.3 -7.41022 
3687 1 41.189 6.978 3 6.0204 -154209 -170570 -72100.9 -26260.7 29683.4 -37276.3 -7.41271 
3688 1 40.469 5.757 3 6.02303 -149628 -202736 -109631 15774.7 -17492.3 -27798.6 -7.41087 
3689 1 41.166 4.523 3 6.02179 -142388 -157100 -79869.1 19056.6 28246.6 -35859.7 -7.41195 
3690 1 40.445 3.301 3 6.0211 -128189 -138027 -103549 33095.6 -20640 -29963.2 -7.41067 
3691 1 41.143 2.067 3 6.02169 -132892 -139356 -87298.4 5360.56 26389.1 -34250 -7.41154 
3692 1 40.422 0.845 3 6.02227 -138289 -154090 -97102.4 44780.1 -23412.3 -31894.8 -7.41078 
3869 1 43.328 8.186 3 6.02241 -187620 -138943 -63079.3 -21831.6 31323.9 -36044.8 -7.41337 
3870 1 42.607 6.965 3 6.02519 -137267 -152852 -110014 15864.1 -17863.7 -25479 -7.41013 
3871 1 43.304 5.73 3 6.02141 -152047 -174903 -71227.3 -25310.8 30319.3 -34697.5 -7.41252 
3872 1 42.584 4.509 3 6.02486 -152829 -201433 -103657 16283.5 -20880.5 -27527.5 -7.41123 
3873 1 43.281 3.275 3 6.02023 -149635 -172779 -79236.4 6940.16 28757.5 -33270.4 -7.41227 
3874 1 42.561 2.053 3 6.02247 -144727 -171223 -96773.4 31910.8 -23691 -29446.8 -7.41133 
3875 1 43.258 0.819 3 6.02225 -139888 -153408 -86970.1 20271 26753 -31734.4 -7.41164 
4052 1 44.745 8.173 3 6.0224 -174719 -137573 -110774 3306.25 -18114.2 -23003.1 -7.41048 
4053 1 45.443 6.938 3 6.02329 -138559 -143015 -62305.5 -21016 32054.6 -33160.8 -7.41284 
4054 1 44.722 5.717 3 6.02329 -128378 -140683 -104073 3263.66 -21143.4 -24964.5 -7.4103 
4055 1 45.42 4.482 3 6.02241 -185492 -140587 -70764.9 -23444.2 30874 -31938.1 -7.41266 
4056 1 44.699 3.261 3 6.02519 -139280 -154297 -96888.8 9518.56 -23973 -26782.4 -7.41092 
4057 1 45.396 2.026 3 6.02072 -147004 -175243 -79350.1 -26871.6 29197 -30475.5 -7.41228 
4058 1 44.676 0.805 3 6.02519 -155124 -200633 -89519.6 13725.6 -26528.9 -28562.9 -7.41208 
14483 2 38.911 8.965 6.4 6.02413 -144487 -167027 -118506 27019.4 -11599.5 -26194.5 -7.40977 
14484 2 38.214 7.73 6.4 6.02589 -156905 -165569 -77585.2 -3316.42 28759.2 -39209.9 -7.4125 
14485 2 38.934 6.509 6.4 6.02398 -141818 -169065 -113421 26343.9 -14945.3 -28596.4 -7.41033 
14486 2 38.237 5.274 6.4 6.02587 -146651 -151598 -84375.1 -16287.3 27312.4 -37717 -7.41169 
14487 2 38.958 4.053 6.4 6.02329 -128596 -137373 -107756 25506.4 -18243.9 -30854.4 -7.4103 
14488 2 38.26 2.818 6.4 6.02329 -134905 -136430 -91372 -3486.34 25380.3 -36016.1 -7.41128 
14489 2 38.981 1.597 6.4 6.02587 -139981 -152564 -101583 11929.5 -21124.4 -32850.4 -7.41065 
14490 2 38.284 0.362 6.4 6.02188 -147274 -168927 -98023.5 -2554.71 22953.8 -34149.8 -7.41089 
14666 2 40.329 8.978 6.4 6.02587 -150236 -152878 -68403.2 -14957.3 30527.1 -38498.9 -7.41266 
14667 2 41.05 7.757 6.4 6.02329 -126216 -138034 -113498 25298.2 -15297.5 -26360 -7.40995 
14668 2 40.352 6.522 6.4 6.02329 -138379 -137667 -75667.1 -2226.89 29456 -37085.1 -7.41224 
14669 2 41.073 5.301 6.4 6.02586 -137121 -153535 -107821 11753.6 -18423.5 -28526.6 -7.41026 
14670 2 40.376 4.066 6.4 6.02398 -150832 -169534 -83017.7 -2199.1 27797.7 -35434.4 -7.41217 
14671 2 41.096 2.845 6.4 6.02589 -146734 -167818 -101365 23892.4 -21397.3 -30594.1 -7.41105 
14672 2 40.399 1.61 6.4 6.02185 -151272 -169896 -90025.4 -1958.39 25776.2 -33785.3 -7.41138 
14673 2 41.119 0.389 6.4 6.0232 -152655 -201545 -94615.8 14070.7 -24084.6 -32491.6 -7.41177 
14849 2 43.165 9.005 6.4 6.02586 -135048 -153948 -114097 11405.3 -15464.6 -23988 -7.40989 
14850 2 42.468 7.77 6.4 6.02397 -154371 -170963 -66607.9 -805.443 31243.3 -36026.2 -7.41317 
14851 2 43.188 6.549 6.4 6.02589 -144225 -168464 -108124 23555.1 -18656.4 -26106.1 -7.41064 
14852 2 42.491 5.314 6.4 6.02413 -156012 -168999 -74509.6 -864.42 30046.3 -34584 -7.41244 
14853 2 43.211 4.093 6.4 6.02303 -143033 -171072 -101834 29713.8 -21612.2 -28105.4 -7.41102 
14854 2 42.514 2.858 6.4 6.02166 -142773 -156755 -82116.4 -11652 28326.5 -32995.5 -7.41171 
14855 2 43.235 1.637 6.4 6.02294 -137214 -172852 -94592.6 11759.5 -24373.3 -30029.6 -7.41142 
14856 2 42.537 0.403 6.4 6.02078 -129149 -139666 -89326 -33307.1 26217.5 -31270.9 -7.4114 
15032 2 44.583 9.018 6.4 6.02413 -159577 -170620 -57473 599.884 32682.8 -34586.2 -7.41347 
15033 2 45.303 7.797 6.4 6.02303 -140799 -171433 -109135 29244.1 -18780.3 -23577.3 -7.41058 
15034 2 44.606 6.562 6.4 6.02166 -146220 -158320 -65605.1 -10199.6 31913.8 -33308 -7.41271 
15035 2 45.327 5.341 6.4 6.02295 -134472 -173605 -102196 11322.3 -21790.3 -25525.2 -7.41095 
15036 2 44.629 4.107 6.4 6.0211 -133549 -143867 -73542.8 -30439.2 30598.5 -31843.3 -7.41225 
15037 2 45.35 2.885 6.4 6.02316 -137329 -156457 -94924.3 -19436 -24577.8 -27291.8 -7.41116 
15038 2 44.653 1.651 6.4 6.02152 -147079 -172393 -81879.2 -30387.8 28791.8 -30234.2 -7.41236 
15039 2 45.373 0.429 6.4 6.02055 -145876 -171313 -87470.5 -6045.67 -27042.2 -28951.6 -7.41177 
4235 1 47.581 8.146 3 6.02657 -154176 -175006 -53617.9 -21060 33414.2 -31199.5 -7.41396 