ITEM: TIMESTEP
228
ITEM: NUMBER OF ATOMS
22328
ITEM: BOX BOUNDS pp pp pp
0.0000000000000000e+00 1.2975027299999999e+02
0.0000000000000000e+00 2.2473406499999999e+02
0.0000000000000000e+00 1.5000000000000000e+01
ITEM: ATOMS id type x y z c_csym c_2[1] c_2[2] c_2[3] c_2[4] c_2[5] c_2[6] c_3 
208 1 0.848646 8.58279 2.84989 6.02089 -166575 -149479 -638.479 -14867.6 10038.2 -1890.58 -7.41142 
209 1 0.120521 7.36625 2.84752 6.02567 -153471 -162870 1133.37 -10841.5 12158.8 -617.822 -7.41148 
210 1 0.809675 6.1271 2.8455 6.02379 -164409 -151963 27.6393 -8135.37 8042.88 -1724.58 -7.41134 
211 1 0.0810135 4.91085 2.84367 6.02722 -154910 -161539 628.652 -4996.01 8179.8 -424.003 -7.41132 
212 1 0.769741 3.67149 2.84232 6.02643 -162001 -154417 327.056 -3237.97 5286.28 -1524.39 -7.41126 
213 1 0.0407091 2.45543 2.84121 6.02905 -156672 -159984 427.633 -1200.19 4048.31 -209.864 -7.41123 
214 1 0.729201 1.21596 2.84065 6.02928 -159600 -157119 396.816 -712.964 1861.43 -1275.88 -7.41121 
215 1 -1.3567e-06 -5.73101e-06 2.84037 6.03066 -158410 -158406 394.476 5.12492 0.164537 -0.476538 -7.41121 
392 1 2.2663 8.55941 2.85035 6.02244 -160254 -156039 1309.93 -11980.9 13742.3 -2629.25 -7.41158 
393 1 2.95547 7.32022 2.84847 6.02246 -171720 -144507 61.1398 -11101.9 8978.95 -5701.85 -7.41143 
394 1 2.22733 6.10366 2.84601 6.02437 -159642 -156824 677.044 -5233.3 9890.42 -2921.94 -7.4114 
395 1 2.91607 4.86429 2.84473 6.02478 -167487 -148984 426.784 -5277.97 6662.86 -5411.57 -7.41134 
396 1 2.18739 3.64802 2.84287 6.02625 -159047 -157567 406.114 -331.527 5804 -3141.88 -7.41128 
397 1 2.8759 2.40854 2.84232 6.02744 -162958 -153708 489.407 -1504.12 3623.35 -5006.58 -7.41127 
398 1 2.14685 1.19247 2.84121 6.02796 -158552 -158077 372.899 2201.63 1687.86 -3298.19 -7.41123 
575 1 5.10058 8.51404 2.85262 6.02074 -180463 -135597 480.72 -12580.6 9751.33 -9520.79 -7.41158 
576 1 4.37309 7.29707 2.84967 6.01996 -165999 -150192 406.539 -4156.16 11145.3 -4856.18 -7.4115 
577 1 5.06188 6.05768 2.8485 6.02325 -174517 -141826 839.698 -5866.56 7923.58 -9196.29 -7.41148 
578 1 4.3337 4.84109 2.84601 6.0229 -163465 -153028 149.132 1833.23 7183.46 -5521.5 -7.41136 
579 1 5.02225 3.60162 2.84551 6.02572 -168126 -148451 822.936 -1012.69 5351.93 -8707.19 -7.4114 
580 1 4.29354 2.38533 2.84367 6.02512 -160872 -155724 199.117 5598.94 3106.94 -6079.93 -7.41129 
581 1 4.98202 1.14585 2.84394 6.02618 -161472 -155100 571.361 1443.42 2120.89 -8028.13 -7.41133 
758 1 6.51817 8.49136 2.8544 6.01536 -173784 -142230 -305.196 -2060.76 11927.2 -6201.32 -7.41159 
759 1 7.207 7.25197 2.85336 6.0201 -182669 -133470 1673.24 -5172.33 9030.68 -12708.5 -7.41169 
760 1 6.47948 6.03497 2.8504 6.01877 -169412 -146669 -481.424 5030.98 8136.56 -7273.41 -7.41145 
761 1 7.16808 4.7955 2.84993 6.02352 -174946 -141513 1519.22 708.784 6973.64 -12182.8 -7.41158 
762 1 6.43987 3.57889 2.84751 6.02193 -164932 -151322 -276.999 10051.7 4177.83 -8221.87 -7.41137 
763 1 7.12839 2.33943 2.84775 6.0245 -166634 -149993 1045.39 4351.63 4209.98 -11429.3 -7.41148 
764 1 6.39967 1.12311 2.84601 6.02365 -160377 -156118 170.045 12508.3 244.554 -9033.69 -7.41136 
942 1 8.62457 7.22991 2.85571 6.01457 -176372 -139036 -1587.46 8991.17 8667.95 -8412.31 -7.41153 
944 1 8.58567 4.77344 2.85241 6.01872 -170619 -145409 -1177.13 15178.4 4869.9 -9696.96 -7.41146 
945 1 9.27426 3.53401 2.8526 6.02295 -173039 -143375 1929.31 8264.49 6199.15 -14524.6 -7.4117 
946 1 8.54602 2.31736 2.85034 6.02159 -164367 -151876 -440.399 19046 1036.99 -10840.2 -7.41145 
947 1 9.23472 1.07804 2.85126 6.01992 -162984 -153498 938.747 10652.4 3296.61 -13467.1 -7.41158 
11192 2 0.568994 8.60548 6.55006 6.02351 -150441 -166020 1518.23 14803.1 14037.5 52.8057 -7.41158 
11193 2 0.607974 6.1502 6.55449 6.02574 -152408 -164219 822.199 8081.96 10215.6 -281.11 -7.41139 
11194 2 0.647916 3.69488 6.55767 6.02755 -154656 -162136 489.031 3349.5 6145.81 -634.785 -7.41127 
11195 2 0.688451 1.2395 6.55935 6.02917 -157131 -159731 396.659 747.634 2035.12 -975.723 -7.41121 
11196 2 -3.17647e-06 1.37836e-05 6.55963 6.03064 -158381 -158388 394.481 -17.3664 0.0587153 -0.374675 -7.41121 
11372 2 1.9867 8.62889 6.5496 6.0188 -156703 -159442 -481.894 12404.2 10366.4 -3410.91 -7.41145 
11373 2 2.71517 7.41257 6.5515 6.02326 -144959 -171471 838.96 11272.7 11925.3 -2264.65 -7.41148 
11374 2 2.02566 6.17366 6.55398 6.02284 -157132 -159281 148.902 5481.35 8373.34 -3462.22 -7.41136 
11375 2 2.75457 4.95755 6.55527 6.02472 -149106 -167389 426.675 5391.85 8017.04 -3064.92 -7.41134 
11376 2 2.06559 3.71836 6.55713 6.02632 -157628 -158992 406.289 558.42 5622.82 -3457.06 -7.41128 
11377 2 2.79474 2.50237 6.55768 6.02649 -153615 -163070 326.855 1647.49 3962.81 -3816.13 -7.41126 
11378 2 2.10611 1.26299 6.55878 6.02899 -158108 -158582 427.56 -2160.74 2205.47 -3401.93 -7.41124 
11379 2 2.83531 0.0470128 6.5585 6.02788 -158218 -158367 400.976 262.619 -4.31505 -4472.8 -7.41124 
11555 2 4.82308 8.67427 6.54738 6.02075 -135888 -180012 480.363 13094.7 13121.3 -3686.28 -7.41158 
11556 2 4.13291 7.43576 6.55033 6.02003 -150585 -165566 406.854 4797.51 9777.53 -7225.29 -7.41149 
11557 2 4.86177 6.21964 6.55153 6.0225 -141754 -174496 61.3653 6251.33 9427.49 -4926.25 -7.41143 
11558 2 4.17227 4.98076 6.55399 6.02438 -153058 -163374 677.725 -1442.84 7475.7 -7105.73 -7.4114 
11559 2 4.90139 3.76476 6.5545 6.02387 -148004 -168235 28.1025 1320.58 5514.98 -6103.18 -7.41133 
11560 2 4.21242 2.52559 6.55632 6.02733 -155618 -160963 628.653 -5308.5 4457.04 -6872.95 -7.41132 
11561 2 4.9416 1.3096 6.55606 6.02477 -154735 -161845 249.797 -1284.4 1583.17 -7152.65 -7.4113 
11562 2 4.25297 0.0702309 6.55713 6.02625 -158162 -158386 413.307 -6817.11 856.705 -6530.77 -7.41128 
11738 2 6.24087 8.69702 6.5457 6.01746 -142483 -173450 1086.34 3012.47 10955.5 -10794.9 -7.41169 
11739 2 6.96968 7.48086 6.54679 6.02064 -132930 -182660 -728.969 5966.7 10378.9 -6175.83 -7.41152 
11740 2 6.27952 6.24239 6.54965 6.02243 -146725 -169467 1310.99 -4202.34 9147.22 -10587.6 -7.41158 
11741 2 7.00859 5.02636 6.5501 6.02084 -140868 -175070 -637.845 -60.8546 6656.22 -7749.01 -7.41142 
11742 2 6.3191 3.78751 6.55248 6.02563 -151142 -165274 1134.31 -9410.63 6614.02 -10221.2 -7.41148 
11743 2 7.04826 2.57149 6.55223 6.02134 -149230 -166983 -206.887 -3925.33 2832.89 -9188.84 -7.41139 
11744 2 6.35928 1.33235 6.55398 6.02456 -155770 -160708 698.22 -12245.1 3428.32 -9701.71 -7.4114 
11745 2 7.08832 0.11623 6.55298 6.02237 -157913 -158531 411.289 -5434.64 -870.378 -10428.6 -7.41141 
11921 2 9.0784 8.741 6.54143 6.01827 -123347 -191722 -2025.81 4822.53 10924 -6855.16 -7.41159 
11922 2 8.38748 7.503 6.54447 6.02076 -139095 -176943 2396.63 -7646.01 10571.7 -13794.8 -7.41182 
11923 2 9.11648 6.28691 6.54484 6.0178 -132450 -182996 -1772.53 -2284.1 7406.71 -8759.16 -7.4115 
11924 2 8.42635 5.04847 6.54757 6.02249 -145197 -171140 2049.37 -14156.6 8570.53 -13314.7 -7.4117 
11925 2 9.15545 3.8324 6.54733 6.01731 -142255 -173560 -1090.95 -7431.12 3732.5 -10544.4 -7.41147 
11926 2 8.46597 2.59358 6.54959 6.02246 -151440 -164846 1350.67 -18416.1 5884.95 -12656.2 -7.41158 
11927 2 9.19499 1.37742 6.54869 6.01801 -152630 -163584 -129.191 -10319 88.9839 -12132.6 -7.4115 
11928 2 8.50599 0.138307 6.55033 6.02217 -157874 -158341 461.348 -20090.7 2621.22 -11828.9 -7.41149 
941 1 9.35136 8.44738 2.85903 6.01589 -191502 -124363 3000.42 -3560.04 9982.06 -15851.3 -7.41196 
943 1 9.31325 5.99046 2.85527 6.01986 -182721 -133635 2666.31 3312.21 8451.95 -15310.2 -7.41183 
1124 1 10.7689 8.42609 2.86166 6.01036 -184088 -130668 -3226.52 13401.5 8828.34 -9018.24 -7.4116 
1125 1 11.4577 7.18669 2.8612 6.01594 -190890 -125099 4320.36 6788.21 9780.49 -18035.9 -7.41213 
1126 1 10.7308 5.9692 2.85802 6.01491 -177060 -138216 -2581.04 20827.7 5206.89 -10561.7 -7.41153 
1127 1 11.4195 4.72981 2.85813 6.01986 -180424 -135819 3295.65 12831.3 8051.23 -17237.2 -7.41197 
1128 1 10.6919 3.51276 2.8555 6.01893 -169499 -146076 -1520.78 25962.5 1511.33 -11974.3 -7.41153 
1129 1 11.3806 2.27348 2.8563 6.01772 -169202 -147048 1925.42 16476.5 5625.99 -16163.2 -7.41181 
1130 1 10.6524 1.0568 2.85429 6.02027 -161789 -154212 -205.432 28390.1 -2077.8 -13241.9 -7.41159 
1307 1 13.6013 8.38432 2.86744 6.01189 -199414 -116371 6501.51 10660.4 10960.4 -20355.1 -7.41247 
1308 1 12.8752 7.16631 2.86404 6.01107 -183990 -130344 -4525.79 26590.3 5249.03 -10921.9 -7.41158 
1309 1 13.5641 5.92699 2.864 6.01618 -188182 -127825 5183.72 17815.4 9749.21 -19548.9 -7.41229 
1310 1 12.8371 4.70948 2.86112 6.01627 -175594 -139483 -3130.37 33013.5 1701.25 -12529.6 -7.4116 
1311 1 13.526 3.47026 2.86175 6.01594 -176187 -139863 3428.56 22812.4 7818.02 -18476 -7.4121 
1312 1 12.7982 2.25318 2.85947 6.01863 -166688 -148712 -1385.18 36873.6 -1790.63 -14009.3 -7.41166 
1313 1 13.4874 1.01415 2.86083 6.0124 -163648 -152158 1400.64 25155 5237.12 -17118.7 -7.41192 
1490 1 15.0188 8.3649 2.87019 6.00742 -191284 -122349 -7010.14 32264.4 5077.15 -10896.2 -7.41161 
1491 1 15.7078 7.12566 2.86992 6.01246 -196190 -119728 7597.16 23070.5 11282.5 -21473.1 -7.41265 
1492 1 14.9816 5.90765 2.86688 6.0128 -182010 -132059 -5287.03 39992.6 1672.95 -12628.9 -7.41163 
1493 1 15.6706 4.66851 2.86728 6.01298 -183652 -132087 5470.69 29347.1 9845.03 -20408.4 -7.41243 
1494 1 14.9436 3.45098 2.86486 6.01718 -172324 -142194 -3117.45 45232.3 -1717.34 -14251.4 -7.41172 
1495 1 15.6328 2.212 2.86602 6.0101 -170469 -145075 2975.34 33022.2 7707.69 -19075.5 -7.4122 
1496 1 14.905 0.994889 2.86418 6.01467 -162374 -152759 -684.393 47661.5 -4924.47 -15764.4 -7.41186 
1673 1 17.8508 8.32586 2.87568 6.00879 -204114 -111779 10508.4 28240.5 12636.9 -23032 -7.41304 
1674 1 17.1254 7.10734 2.87252 6.00947 -188669 -124639 -7973.14 46589.7 1499.82 -12393.1 -7.41164 
1675 1 17.8146 5.86829 2.87261 6.01015 -191250 -124636 8039.24 35754.2 11684.4 -21980.2 -7.41279 
1676 1 17.0882 4.65029 2.87012 6.0153 -178434 -135559 -5403.19 53220.4 -1792.56 -14099 -7.41174 
1677 1 17.7776 3.4114 2.87103 6.0083 -177661 -137769 5107.25 40931.6 9999.78 -20678.4 -7.41253 
1678 1 17.0504 2.19385 2.86917 6.01277 -167796 -146436 -2471.45 57121.7 -4954.63 -15711.1 -7.4119 
1679 1 17.7401 0.955202 2.87088 6.00453 -163667 -151123 1890.86 43267.3 7661.6 -19123.3 -7.41227 
12104 2 10.4963 8.7624 6.53882 6.01805 -130705 -185287 3991.45 -11542.5 11727.4 -16679.4 -7.41212 
12105 2 11.2252 7.54623 6.53905 6.01399 -123319 -191398 -3434.44 -5149.1 7822.15 -9213.63 -7.41157 
12106 2 10.5343 6.30825 6.54193 6.01879 -138019 -178024 3446.41 -19227.7 10266.7 -16090.2 -7.41197 
12107 2 11.2633 5.09211 6.54166 6.01316 -134264 -180897 -2482.08 -11531.1 4314.38 -11270 -7.41155 
12108 2 10.5732 3.85369 6.54426 6.01854 -145746 -170314 2460.12 -24823.6 8126.5 -15309.5 -7.41182 
12109 2 11.3022 2.63747 6.54346 6.01348 -145881 -169893 -1152.47 -15791.1 765.189 -13154.2 -7.41159 
12110 2 10.6127 1.39868 6.54559 6.01955 -153854 -162328 1183.82 -28025.3 5353.86 -14355.6 -7.41169 
12111 2 11.3414 0.182274 6.5442 6.01502 -157483 -158442 379.965 -17483.9 -2622.71 -14798.7 -7.41168 
12287 2 13.3347 8.80418 6.53305 6.01032 -113921 -200051 -5640.82 -8447.23 7970.21 -9232.33 -7.4116 
12288 2 12.643 7.56671 6.53588 6.0149 -130241 -185657 5363.33 -24414 11686.7 -18530.4 -7.4123 
12289 2 13.3719 6.35047 6.53552 6.00913 -125655 -188797 -4417.06 -16039 4632.93 -11472.8 -7.4116 
12290 2 12.6811 5.1125 6.53828 6.01434 -139174 -176792 4080.39 -31386.7 10099.7 -17633.3 -7.41212 
12291 2 13.41 3.8962 6.53754 6.00899 -138027 -176829 -2717.77 -21539.8 1198.06 -13578.2 -7.41166 
12292 2 12.7199 2.6578 6.54003 6.015 -148368 -167457 2411.45 -35948.8 7859.46 -16568.7 -7.41194 
12293 2 13.4486 1.44133 6.53886 6.01006 -150801 -164549 -713.926 -24704.7 -2162.05 -15477.4 -7.41177 
12294 2 12.7591 0.202574 6.54087 6.01694 -157455 -158081 526.944 -37859.5 5040.41 -15357.2 -7.41178 
12470 2 14.7526 8.82373 6.52969 6.01097 -122201 -193657 7804.59 -29524.8 12841.6 -20638.9 -7.41266 
12471 2 15.4814 7.60737 6.52915 6.0052 -116606 -196641 -6894.09 -20614.4 4742.42 -11282.5 -7.41162 
12472 2 14.7898 6.36989 6.53191 6.01005 -131913 -183632 6233.65 -37705.4 11788.2 -19634.1 -7.41246 
12473 2 15.5185 5.15348 6.53117 6.00466 -129667 -184082 -4840.89 -27444.8 1436.83 -13526.4 -7.4117 
12474 2 14.8278 3.91552 6.53387 6.01034 -141947 -173421 4181.92 -43654.9 10088.3 -18466.3 -7.41224 
12475 2 15.5564 2.69897 6.53288 6.00531 -143215 -171340 -2381.04 -32021.8 -1869.6 -15607.3 -7.41182 
12476 2 14.8663 1.4606 6.53529 6.01188 -152149 -163172 1814.39 -47128.9 7767.23 -17170.6 -7.41204 
12477 2 15.5946 0.243814 6.53395 6.0071 -156840 -158258 292.233 -33959.8 -4987.73 -17469.4 -7.41199 
12653 2 17.5917 8.86275 6.52274 6.00165 -107609 -204370 -9879.52 -25231.7 4685.54 -10821.6 -7.41162 
12654 2 16.8993 7.62578 6.52535 6.00585 -124287 -190984 8906.06 -43668.8 13198.6 -21324 -7.41284 
12655 2 17.6279 6.40925 6.5245 6.00064 -120976 -191702 -7502.7 -33294.6 1522.17 -13124.5 -7.41171 
12656 2 16.9364 5.17176 6.52729 6.00571 -135094 -180148 6498.16 -51016.4 12024 -20065.5 -7.41259 
12657 2 17.6649 3.95511 6.52642 6.0007 -135004 -178413 -4618.37 -39172.3 -1702.25 -15310.4 -7.41185 
12658 2 16.9741 2.71716 6.52913 6.00677 -146021 -168961 3677.58 -55835.2 10212.1 -18695.3 -7.41234 
12659 2 17.7024 1.5003 6.52811 6.00195 -149451 -164852 -1418.51 -42592.6 -4828.99 -17324.7 -7.41204 
12660 2 17.0123 0.261963 6.53046 6.00914 -156927 -157623 622.996 -58000.8 7815.45 -17240.8 -7.41211 
1856 1 19.2683 8.30859 2.87788 6.00624 -195274 -116842 -11142.3 52996.8 1253.42 -11914.5 -7.41162 
1857 1 19.9578 7.06967 2.87757 6.00752 -198929 -116980 11089.1 42211.7 13313.1 -23209.7 -7.41318 
1858 1 19.2321 5.85116 2.87504 6.01213 -184612 -128281 -8209.36 60821.4 -1949.62 -13663.6 -7.41174 
1859 1 19.9217 4.61238 2.87562 6.00519 -185220 -130351 7766.94 48590.9 12082.3 -21945.3 -7.41288 
1860 1 19.1951 3.39436 2.87381 6.01115 -173598 -139897 -4817.76 66069.4 -5070.08 -15325 -7.41191 
1861 1 19.8849 2.15579 2.87532 6.00232 -171004 -144006 4065.91 52350.5 10145.5 -20446.4 -7.41258 
1862 1 19.1577 0.938211 2.87409 6.00681 -162418 -151616 -1168.15 68473.8 -7948.22 -16916.5 -7.41214 
2039 1 22.1002 8.27267 2.88208 6.00441 -206336 -109779 14545.2 48353.2 14705.5 -24106 -7.41359 
2040 1 21.3753 7.05363 2.87949 6.00918 -191004 -121120 -11476.8 67892.7 -2132.43 -13029.3 -7.4117 
2041 1 22.0651 5.81497 2.87968 6.00238 -192764 -123012 10889.8 56070.6 13926.8 -22887.4 -7.41326 
2042 1 21.3392 4.59647 2.87792 6.00981 -179747 -132937 -7679.26 74531.7 -5214.04 -14707.4 -7.41189 
2043 1 22.0292 3.358 2.87915 6.0005 -178375 -136635 6765.92 61196.2 12405.4 -21450.3 -7.41292 
2044 1 21.3025 2.13997 2.87809 6.0048 -168291 -144943 -3529.64 78353 -8109.99 -16317.6 -7.41213 
2045 1 21.9929 0.901756 2.88025 5.99666 -163723 -150587 2358.05 63424 10239 -19806.2 -7.41259 
2222 1 23.5176 8.2577 2.88344 6.00619 -197038 -113940 -15119.2 74357.5 -2301.28 -12253.1 -7.41163 
2223 1 24.2077 7.01919 2.8832 5.99982 -199855 -116045 14393.6 63013.4 15505.4 -23508.1 -7.41366 
2224 1 23.4826 5.80018 2.88143 6.00739 -185933 -126062 -10982.3 82226.2 -5343.5 -13930.6 -7.41183 
2225 1 24.1728 4.56183 2.88233 5.99754 -185940 -129614 9915.13 69466.6 14408.4 -22140.5 -7.41329 
2226 1 23.4468 3.34333 2.88141 6.00318 -174296 -138387 -6401.81 87405.7 -8253.62 -15534.5 -7.41209 
2227 1 24.1372 2.10521 2.88339 5.99463 -171201 -143344 5067.35 73274.6 12613.8 -20580.8 -7.41292 
2228 1 23.4105 0.887144 2.88309 5.99863 -162465 -150660 -1583.04 89749.3 -10878.5 -17092.7 -7.41239 
2405 1 26.3496 8.22498 2.88622 5.99763 -206287 -109719 18183.3 69379.8 16797.6 -23806.1 -7.41407 
2406 1 25.6252 7.00548 2.88437 6.00515 -191627 -119397 -14633.6 89075.3 -5429.06 -13040.7 -7.41174 
2407 1 26.3156 5.76727 2.88489 5.99484 -192734 -122768 13422.6 77160.2 16128.6 -22519.4 -7.41367 
2408 1 25.5903 4.54829 2.88402 6.00192 -180361 -131657 -9700.74 95721.5 -8346.43 -14626.4 -7.41201 
2409 1 26.2809 3.31028 2.88576 5.99305 -178518 -136377 8213.14 82359 14724.2 -21050 -7.41326 
2410 1 25.5548 2.09176 2.88569 5.99675 -168578 -144135 -4443.4 99468.1 -11037.2 -16156 -7.41233 
2411 1 26.2458 0.854021 2.88843 5.98926 -163842 -150182 2736.85 84583.1 12699 -19422.4 -7.41287 
2588 1 27.7671 8.21231 2.88688 6.00327 -196827 -113391 -18526.8 94986.4 -5460.21 -12067.2 -7.41163 
2590 1 27.7331 5.75481 2.88605 6.00007 -185783 -125453 -13327.8 102914 -8369.82 -13630.1 -7.41191 
2592 1 27.6985 3.29796 2.88751 5.9953 -174374 -137598 -7719.66 108186 -11111.5 -15124.4 -7.41224 
2594 1 27.6634 0.841774 2.89082 5.9907 -162710 -149997 -1898.41 110363 -13538.8 -16574.1 -7.41261 
12836 2 19.0096 8.88013 6.51877 6.00183 -116709 -198409 12052.9 -49205.4 14346.1 -22709.1 -7.41324 
12837 2 19.7381 7.66345 6.51773 5.99682 -112383 -198941 -10654.4 -38907.9 1482.52 -12485.8 -7.41168 
12838 2 19.0458 6.42645 6.52044 6.00118 -127852 -186860 9329.27 -57817.3 13667.8 -21380.7 -7.41297 
12839 2 19.7742 5.20968 6.51959 5.99636 -126705 -185423 -7390.61 -46190 -1632.23 -14703.1 -7.41184 
12840 2 19.0827 3.97218 6.52249 6.00176 -139350 -175102 6098.2 -64108.3 12354.9 -19950 -7.41268 
12841 2 19.8109 2.75523 6.52174 5.99712 -141458 -171614 -3713.23 -51036.7 -4728.21 -16796.5 -7.41205 
12842 2 19.1201 1.5173 6.5245 6.00364 -151009 -163250 2536.41 -67741.3 10421.5 -18456.9 -7.4124 
12843 2 19.8479 0.300075 6.52364 5.99914 -156373 -157785 173.193 -53180.9 -7632.54 -18722.9 -7.4123 
13019 2 21.8491 8.91608 6.511 5.99351 -104096 -205679 -14223.1 -44252 1336.39 -11698.2 -7.41162 
13020 2 21.156 7.67957 6.5135 5.99693 -120733 -193574 12610.1 -63994.4 15026.6 -22414.2 -7.41338 
13021 2 21.8842 6.46265 6.51257 5.99255 -118460 -192275 -10638.3 -52761.1 -1645.42 -13886.2 -7.41179 
13022 2 21.192 5.22563 6.51551 5.99698 -132593 -181533 9024.49 -71676.6 14192.3 -20946.2 -7.41306 
13023 2 21.9201 4.00855 6.51492 5.99273 -133509 -178564 -6543.25 -59082.1 -4669.98 -15990.4 -7.41202 
13024 2 21.2286 2.77107 6.51798 5.99831 -144601 -169470 5016.24 -76786.6 12722.3 -19428.4 -7.41273 
13025 2 21.9564 1.55376 6.51754 5.99405 -148819 -164686 -2143.3 -62713.5 -7595.17 -17975.5 -7.41229 
13026 2 21.2656 0.315885 6.52034 6.00094 -156584 -157287 768.407 -79075.8 10660.9 -17885.6 -7.41242 
13202 2 23.2671 8.93114 6.50666 5.99306 -113888 -200104 16258.7 -69407.2 16106.8 -23157.9 -7.4138 
13203 2 23.9951 7.71406 6.50555 5.98915 -110785 -198791 -14275 -58819.1 -1733.74 -12939.8 -7.41172 
13204 2 23.3021 6.4775 6.50835 5.99256 -125888 -187901 12381.1 -78419.2 15725.5 -21682 -7.41346 
13205 2 24.03 5.26029 6.50782 5.98874 -125882 -185105 -9834.26 -66536.4 -4651.14 -14997.6 -7.41196 
13206 2 23.3379 4.02326 6.51103 5.99329 -138251 -175533 7993.26 -85026.4 14709.8 -20162.1 -7.4131 
13207 2 24.0655 2.80584 6.51091 5.9895 -141006 -171294 -4997.3 -71678.7 -7546.79 -16978 -7.41224 
13208 2 23.3741 1.56838 6.51414 5.99529 -150583 -163140 3277.8 -88899.7 13070.9 -18629.9 -7.41274 
13209 2 24.1014 0.350683 6.51411 5.9914 -156149 -157343 34.8197 -73983.1 -10264.3 -18850.2 -7.41256 
13385 2 26.1068 8.96391 6.49875 5.98625 -103645 -204536 -18198.5 -64268.4 -1887.96 -11922.8 -7.41162 
13386 2 25.413 7.72783 6.50125 5.98857 -119662 -193892 16074.7 -84237.3 16956.8 -22149.5 -7.41387 
13387 2 26.1407 6.51045 6.50068 5.98531 -118390 -191193 -13493.1 -73202 -4674.22 -13893.6 -7.41186 
13388 2 25.4479 5.27387 6.50384 5.98871 -132088 -181397 11380.8 -92305.4 16378.6 -20653.4 -7.41348 
13389 2 26.1754 4.05632 6.50392 5.98544 -133449 -177546 -8301.2 -79887.5 -7495.13 -15815.2 -7.41216 
13390 2 25.4833 2.8193 6.5074 5.99008 -144313 -169009 6277.36 -97674.1 15163.5 -19152 -7.41308 
13391 2 26.2105 1.60151 6.50783 5.98674 -148769 -163896 -2827.53 -83770.8 -10226.4 -17667.5 -7.41249 
13392 2 25.5191 0.364095 6.51119 5.99275 -156517 -156689 943.476 -100082 13352.7 -17655.9 -7.4127 
13568 2 27.5248 8.97666 6.49445 5.98509 -113883 -199386 20006.2 -89173.7 17892.3 -22338.4 -7.41429 
13570 2 27.5586 6.52296 6.49667 5.98463 -126053 -187043 15081.3 -98462.6 17727.4 -20897.1 -7.41388 
13572 2 27.5932 4.06866 6.50035 5.98534 -138382 -174831 9671.18 -105265 16930.6 -19446.9 -7.41345 
13574 2 27.6282 1.61376 6.50482 5.98735 -150741 -162441 3954.2 -109350 15513.7 -18007.7 -7.41302 
2589 1 28.4578 6.97426 2.88697 5.99255 -198957 -116829 17189.9 84045.4 17547.7 -22588.8 -7.41406 
2591 1 28.424 4.51693 2.88747 5.9903 -185280 -129800 11699.4 90635.6 16545.9 -21219.1 -7.41363 
2593 1 28.3896 2.06032 2.8901 5.98755 -171097 -143121 5867.44 94376.7 14871.6 -19699.8 -7.41319 
2771 1 30.5993 8.18273 2.88876 5.99068 -204623 -111347 21115.1 89970.9 18659.9 -22359.1 -7.41445 
2772 1 29.8753 6.96282 2.88766 5.99805 -190659 -119615 -17178.3 109032 -8320.14 -12566.8 -7.41178 
2773 1 30.5664 5.7251 2.88872 5.98797 -191500 -123875 15426.9 97872.6 18065.1 -21096.5 -7.41399 
2774 1 29.8415 4.50568 2.88872 5.99418 -179751 -131616 -11309.5 115689 -11092.6 -14025 -7.41212 
2775 1 30.5329 3.26815 2.89107 5.98626 -177849 -136724 9325 103110 16761.4 -19692.3 -7.41353 
2776 1 29.8072 2.04918 2.89196 5.98909 -168481 -143656 -5148.3 119400 -13610.8 -15424.2 -7.4125 
2777 1 30.4989 0.811911 2.8953 5.98274 -163851 -149671 2983.63 105285 14873.8 -18177.8 -7.41308 
2954 1 32.0167 8.17225 2.88908 5.9964 -195088 -114361 -21148 113954 -8202.69 -11455.1 -7.41164 
2955 1 32.7082 6.93469 2.88974 5.9861 -197035 -118572 19298.3 104016 19277.6 -20699.6 -7.41436 
2956 1 31.9839 5.71484 2.88956 5.99314 -184621 -125933 -15110.1 121928 -10982 -12874.8 -7.41198 
2957 1 32.6755 4.47745 2.8916 5.98388 -184159 -130761 13010.6 110652 18356.4 -19414.7 -7.41388 
2958 1 31.9504 3.25805 2.89248 5.98787 -173826 -137669 -8701.79 127127 -13567.5 -14226.8 -7.41236 
2959 1 32.6423 2.02088 2.89565 5.9813 -170674 -143260 6416.28 114370 16801.2 -18024.1 -7.4134 
2960 1 31.9165 0.801891 2.89726 5.98344 -162808 -149477 -2105.83 129210 -15819.6 -15528.5 -7.41279 
3137 1 34.8493 8.14562 2.89077 5.98461 -201721 -114097 23226.5 109166 20187.7 -20053.4 -7.41473 
3138 1 34.1257 6.92535 2.89028 5.99149 -188881 -120958 -19023.6 126958 -10787.5 -11688.7 -7.41182 
3139 1 34.8175 5.68811 2.89196 5.98192 -189634 -125561 16834.2 117142 19653.7 -18888.1 -7.41423 
3140 1 34.093 4.46831 2.89264 5.98701 -178731 -132180 -12458.1 133612 -13413.8 -12994.9 -7.4122 
3141 1 34.785 3.23125 2.89555 5.9798 -176943 -137422 10068.3 122313 18449.5 -17623.7 -7.41373 
3142 1 34.0598 2.01186 2.89718 5.9821 -168155 -143569 -5631.6 137220 -15768.1 -14240.2 -7.41263 
3143 1 34.7522 0.775036 2.90096 5.97677 -163768 -149351 3091.81 124472 16701 -16289.5 -7.41324 
3320 1 36.2668 8.13713 2.89109 5.99014 -192302 -116532 -22963.7 130871 -10518.5 -10487.6 -7.41166 
3321 1 36.9589 6.90006 2.89239 5.98038 -194237 -121062 20713.6 122467 20656.4 -18142.1 -7.41458 
3322 1 36.235 5.67986 2.89273 5.98645 -182905 -127293 -16326.8 138871 -13159.5 -11742 -7.41204 
3323 1 36.9273 4.44293 2.8953 5.97821 -182503 -132199 13854.7 129132 19814.2 -17002.4 -7.41406 
3324 1 36.2026 3.22316 2.89674 5.98113 -173035 -138176 -9356.52 144007 -15589.1 -12934.6 -7.41246 
3325 1 36.8951 1.98643 2.90031 5.97517 -170188 -143513 6721.95 132820 18379.6 -15797.5 -7.41355 
3326 1 36.1698 0.767037 2.90254 5.9769 -162823 -149041 -2217.98 146055 -17678.1 -14071.7 -7.41292 
13569 2 28.2522 7.75909 6.49375 5.98244 -111388 -196629 -17414.4 -79123.1 -4738.32 -12733.9 -7.41175 
13571 2 28.286 5.30526 6.49682 5.98196 -126353 -183420 -11956.2 -87158.6 -7451.57 -14557.5 -7.41205 
13573 2 28.3204 2.85077 6.50111 5.9826 -141508 -170178 -6131.39 -92538.2 -10144.3 -16340 -7.41239 
13575 2 28.355 0.395581 6.50579 5.98448 -156521 -156629 -132.005 -94982.8 -12676.5 -18064 -7.41278 
13751 2 30.3644 9.00629 6.4873 5.98018 -105194 -201313 -21487.3 -84117.2 -4835.45 -11564.6 -7.41161 
13752 2 29.6701 7.77058 6.4898 5.98109 -120498 -192260 18994 -103488 18765.7 -20886.4 -7.41428 
13753 2 30.3973 6.55272 6.48992 5.97911 -119683 -188765 -15855.5 -93435.2 -7422.78 -13261.1 -7.41192 
13754 2 29.7038 5.31654 6.49327 5.98117 -132795 -180225 13359 -111731 18370.9 -19512.3 -7.41383 
13755 2 30.4309 4.09851 6.49422 5.97906 -134559 -175875 -9773.1 -100293 -10038.5 -14937.7 -7.41227 
13756 2 29.7381 2.86192 6.49806 5.9825 -144972 -167956 7345.92 -117385 17349.1 -18145.5 -7.41337 
13757 2 30.4648 1.64365 6.49946 5.98027 -149367 -162713 -3435.24 -104357 -12572.8 -16583.7 -7.41266 
13758 2 29.7727 0.406682 6.50332 5.98519 -156953 -155739 1124.03 -119946 15735.4 -16789.6 -7.41292 
13934 2 31.7824 9.01683 6.4835 5.97818 -115660 -196736 23021 -107422 19507.2 -20625.2 -7.41468 
13935 2 32.5093 7.79877 6.48353 5.97686 -113805 -193186 -19892.7 -98670.3 -7406.35 -11972.6 -7.41177 
13936 2 31.8152 6.563 6.48649 5.97761 -127527 -184943 17241 -117043 19492.2 -19345.6 -7.41422 
13937 2 32.542 5.34482 6.4875 5.97627 -128085 -180852 -13645.9 -106954 -9921.71 -13517.3 -7.41212 
13938 2 31.8486 4.10862 6.49122 5.97826 -139495 -173166 11016.7 -124071 18856.7 -18070.7 -7.41373 
13939 2 32.5753 2.89024 6.4929 5.97673 -142418 -168357 -7064.76 -112482 -12416.2 -15050.8 -7.41251 
13940 2 31.8825 1.65367 6.49696 5.9802 -151325 -161289 4516.05 -128210 17614.6 -16802.4 -7.41325 
13941 2 32.6088 0.435021 6.49886 5.97843 -156692 -155807 -324.991 -115008 -14763.2 -16559.4 -7.41294 
14117 2 34.622 9.04353 6.4779 5.97532 -108579 -196721 -23969 -102845 -7393.27 -10721.1 -7.41161 
14118 2 33.9272 7.80814 6.48031 5.97472 -122929 -189098 21227.9 -121001 20309.2 -18954.6 -7.4146 
14119 2 34.6538 6.58979 6.48128 5.97406 -122304 -185150 -17648.7 -112412 -9799.2 -12123.1 -7.41195 
14120 2 33.9598 5.35397 6.48465 5.97465 -134538 -177814 14870.1 -129433 20044.8 -17783.3 -7.4141 
14121 2 34.6863 4.13546 6.48646 5.97387 -136278 -173355 -10915.5 -119407 -12224.3 -13520.9 -7.41235 
14122 2 33.993 2.89926 6.49046 5.97584 -145953 -166432 8174.22 -135097 19172 -16615.7 -7.41359 
14123 2 34.7192 1.68053 6.4927 5.97482 -150165 -161409 -3950.01 -123524 -14571.1 -14914 -7.41278 
14124 2 34.0264 0.443991 6.49686 5.97832 -157226 -154971 1293.13 -137801 17722.8 -15440.3 -7.4131 
14300 2 36.04 9.05207 6.47495 5.97246 -119036 -192475 25234.8 -123746 20846.7 -18354.8 -7.41497 
14301 2 36.7663 7.83352 6.47582 5.97254 -117386 -188532 -21689.2 -116642 -9666.27 -10783.5 -7.41178 
14302 2 36.0717 6.59806 6.47866 5.97172 -130130 -181656 18822.5 -133462 20929.2 -17295 -7.41446 
14303 2 36.798 5.3794 6.48048 5.97168 -130778 -177494 -14892.9 -125098 -12008.3 -12037.8 -7.41217 
14304 2 36.1041 4.14355 6.48417 5.97218 -141333 -170915 12006.1 -140644 20414.7 -16235 -7.41394 
14305 2 36.8302 2.92472 6.4866 5.97188 -144190 -166283 -7789.52 -130681 -14322.7 -13296 -7.4126 
14306 2 36.1369 1.68853 6.49076 5.9739 -152209 -159939 4946.86 -144909 19314.6 -15166.5 -7.41342 
14307 2 36.8626 0.469446 6.49334 5.97293 -157408 -154835 -538.328 -133333 -16495.8 -14554.3 -7.41306 
3503 1 39.0998 8.11318 2.89311 5.97932 -197890 -117545 24579.3 126568 21377.8 -17210 -7.41493 
3504 1 38.3764 6.89261 2.89299 5.98554 -186194 -123125 -20228.3 142766 -12815.1 -10486.1 -7.41186 
3505 1 39.0689 5.65584 2.89519 5.97669 -187129 -127769 17699.8 134546 20899.6 -16189.8 -7.4144 
3506 1 38.3448 4.4357 2.89627 5.98053 -177218 -133345 -13194.7 149369 -15292.4 -11624.2 -7.41228 
3507 1 39.0375 3.19908 2.89953 5.97407 -175738 -138344 10483.6 139713 19795 -15111.4 -7.41387 
3508 1 38.3127 1.97933 2.90159 5.97589 -167846 -143712 -5924.67 152953 -17490.1 -12703.8 -7.41274 
3509 1 39.0056 0.742916 2.90554 5.97132 -163914 -148964 3080.37 141899 18183 -13996.9 -7.41335 
3686 1 40.5173 8.10645 2.89363 5.9846 -188660 -119803 -24098.1 145329 -12394.9 -9243.94 -7.41168 
3687 1 41.2101 6.86985 2.89543 5.97563 -190782 -124208 21542.4 138699 21715.3 -15219 -7.41473 
3688 1 40.4864 5.64937 2.89602 5.98025 -180523 -129246 -17072.3 153296 -14891.6 -10322.2 -7.41209 
3689 1 41.1793 4.41288 2.89891 5.97308 -180506 -133891 14309.5 145261 20950 -14259.2 -7.41418 
3690 1 40.455 3.19278 2.9006 5.97526 -171946 -138894 -9743.95 158383 -17169.9 -11347.1 -7.41254 
3691 1 41.1481 1.95646 2.90428 5.9701 -169560 -143754 6830.42 148952 19631.2 -13268.8 -7.41365 
3692 1 40.4232 0.736698 2.9068 5.97137 -163047 -148581 -2258.38 160418 -19111.3 -12314.4 -7.41303 
3869 1 43.3508 8.08484 2.89618 5.975 -193333 -121592 25333.5 141462 22275.8 -14124.5 -7.41505 
3870 1 42.6276 6.86404 2.8962 5.98026 -182947 -126030 -20931.2 155875 -14401.5 -9044.25 -7.4119 
3871 1 43.3208 5.6277 2.89869 5.9724 -184237 -130362 18143.4 149466 21850.5 -13272.8 -7.4145 
3872 1 42.5969 4.40728 2.89987 5.97497 -175395 -134910 -13609.6 162394 -16732.3 -10009.4 -7.41233 
3873 1 43.2901 3.17106 2.9032 5.9693 -174349 -139370 10648.9 154643 20839.9 -12397 -7.41395 
3874 1 42.5657 1.95099 2.90535 5.97068 -167277 -143860 -6068.29 165995 -18787.1 -10922.3 -7.41281 
3875 1 43.2591 0.714944 2.90918 5.96685 -164018 -148505 2987.69 156785 19353.1 -11513.3 -7.41342 
4052 1 44.7683 8.0796 2.89695 5.97989 -184262 -123741 -24724.5 157019 -13837.3 -7807.18 -7.41171 
4053 1 45.4617 6.84342 2.89902 5.9718 -186708 -127812 21943.4 152237 22507.2 -12180.4 -7.41482 
4054 1 44.7383 5.62272 2.89961 5.97497 -177766 -131776 -17466.9 164966 -16193 -8705.59 -7.41213 
4055 1 45.4317 4.38662 2.90253 5.96857 -178077 -135881 14486.1 158833 21814.4 -11409.9 -7.41426 
4056 1 44.7077 3.16626 2.90418 5.97037 -170705 -139985 -9929 170076 -18333 -9561.04 -7.41259 
4057 1 45.4013 1.9303 2.90768 5.96603 -168908 -144178 6805.96 162556 20601.6 -10635.4 -7.41371 
4058 1 44.6767 0.710231 2.91016 5.96683 -163230 -148160 -2240.88 172105 -20148.9 -10365 -7.4131 
14483 2 38.8794 9.07613 6.47131 5.97148 -113436 -190936 -25693.3 -119798 -9514.57 -9515.45 -7.4116 
14484 2 38.1842 7.841 6.4735 5.96949 -126579 -184821 22796.7 -136245 21535 -16622 -7.41482 
14485 2 38.9102 6.62217 6.47524 5.97019 -126016 -180832 -18911.6 -129443 -11770.8 -10627.3 -7.41198 
14486 2 38.2158 5.38666 6.47843 5.96923 -137185 -174649 15934.7 -144807 21358.9 -15674.1 -7.41429 
14487 2 38.9417 4.1677 6.48091 5.96946 -138778 -170319 -11752.2 -136567 -14033.6 -11744.2 -7.4124 
14488 2 38.2479 2.93184 6.48481 5.97019 -147710 -164261 8767.23 -150598 20601.8 -14715.7 -7.41375 