(written by TR)

22328	atoms
2	atom types
0	129.750273	xlo xhi
0	224.734065	ylo yhi
0	15.0	zlo zhi


Masses

1	12
2	12

Atoms

1 1 1 0 0.697 223.499 3.000 0 0 0
2 1 1 0 0.674 221.044 3.000 0 0 0
3 1 1 0 0.651 218.588 3.000 0 0 0
4 1 1 0 0.628 216.132 3.000 0 0 0
5 1 1 0 0.604 213.676 3.000 0 0 0
6 1 1 0 0.581 211.220 3.000 0 0 0
7 1 1 0 0.558 208.764 3.000 0 0 0
8 1 1 0 0.535 206.308 3.000 0 0 0
9 1 1 0 0.511 203.852 3.000 0 0 0
10 1 1 0 0.488 201.396 3.000 0 0 0
11 1 1 0 0.465 198.941 3.000 0 0 0
12 1 1 0 0.442 196.485 3.000 0 0 0
13 1 1 0 0.418 194.029 3.000 0 0 0
14 1 1 0 0.395 191.573 3.000 0 0 0
15 1 1 0 0.372 189.117 3.000 0 0 0
16 1 1 0 0.349 186.661 3.000 0 0 0
17 1 1 0 0.325 184.205 3.000 0 0 0
18 1 1 0 0.302 181.749 3.000 0 0 0
19 1 1 0 0.279 179.293 3.000 0 0 0
20 1 1 0 0.256 176.838 3.000 0 0 0
21 1 1 0 0.232 174.382 3.000 0 0 0
22 1 1 0 0.209 171.926 3.000 0 0 0
23 1 1 0 0.186 169.470 3.000 0 0 0
24 1 1 0 0.163 167.014 3.000 0 0 0
25 1 1 0 0.139 164.558 3.000 0 0 0
26 1 1 0 0.116 162.102 3.000 0 0 0
27 1 1 0 0.093 159.646 3.000 0 0 0
28 1 1 0 0.070 157.190 3.000 0 0 0
29 1 1 0 0.046 154.734 3.000 0 0 0
30 1 1 0 0.023 152.279 3.000 0 0 0
31 1 1 0 0.000 149.823 3.000 0 0 0
32 1 1 0 2.836 224.707 3.000 0 0 0
33 1 1 0 2.115 223.486 3.000 0 0 0
34 1 1 0 2.813 222.251 3.000 0 0 0
35 1 1 0 2.092 221.030 3.000 0 0 0
36 1 1 0 2.789 219.795 3.000 0 0 0
37 1 1 0 2.069 218.574 3.000 0 0 0
38 1 1 0 2.766 217.340 3.000 0 0 0
39 1 1 0 2.046 216.118 3.000 0 0 0
40 1 1 0 2.743 214.884 3.000 0 0 0
41 1 1 0 2.022 213.662 3.000 0 0 0
42 1 1 0 2.720 212.428 3.000 0 0 0
43 1 1 0 1.999 211.207 3.000 0 0 0
44 1 1 0 2.696 209.972 3.000 0 0 0
45 1 1 0 1.976 208.751 3.000 0 0 0
46 1 1 0 2.673 207.516 3.000 0 0 0
47 1 1 0 1.953 206.295 3.000 0 0 0
48 1 1 0 2.650 205.060 3.000 0 0 0
49 1 1 0 1.929 203.839 3.000 0 0 0
50 1 1 0 2.627 202.604 3.000 0 0 0
51 1 1 0 1.906 201.383 3.000 0 0 0
52 1 1 0 2.603 200.148 3.000 0 0 0
53 1 1 0 1.883 198.927 3.000 0 0 0
54 1 1 0 2.580 197.692 3.000 0 0 0
55 1 1 0 1.860 196.471 3.000 0 0 0
56 1 1 0 2.557 195.237 3.000 0 0 0
57 1 1 0 1.836 194.015 3.000 0 0 0
58 1 1 0 2.534 192.781 3.000 0 0 0
59 1 1 0 1.813 191.559 3.000 0 0 0
60 1 1 0 2.510 190.325 3.000 0 0 0
61 1 1 0 1.790 189.104 3.000 0 0 0
62 1 1 0 2.487 187.869 3.000 0 0 0
63 1 1 0 1.767 186.648 3.000 0 0 0
64 1 1 0 2.464 185.413 3.000 0 0 0
65 1 1 0 1.743 184.192 3.000 0 0 0
66 1 1 0 2.441 182.957 3.000 0 0 0
67 1 1 0 1.720 181.736 3.000 0 0 0
68 1 1 0 2.417 180.501 3.000 0 0 0
69 1 1 0 1.697 179.280 3.000 0 0 0
70 1 1 0 2.394 178.045 3.000 0 0 0
71 1 1 0 1.674 176.824 3.000 0 0 0
72 1 1 0 2.371 175.589 3.000 0 0 0
73 1 1 0 1.650 174.368 3.000 0 0 0
74 1 1 0 2.348 173.134 3.000 0 0 0
75 1 1 0 1.627 171.912 3.000 0 0 0
76 1 1 0 2.324 170.678 3.000 0 0 0
77 1 1 0 1.604 169.456 3.000 0 0 0
78 1 1 0 2.301 168.222 3.000 0 0 0
79 1 1 0 1.581 167.001 3.000 0 0 0
80 1 1 0 2.278 165.766 3.000 0 0 0
81 1 1 0 1.557 164.545 3.000 0 0 0
82 1 1 0 2.255 163.310 3.000 0 0 0
83 1 1 0 1.534 162.089 3.000 0 0 0
84 1 1 0 2.231 160.854 3.000 0 0 0
85 1 1 0 1.511 159.633 3.000 0 0 0
86 1 1 0 2.208 158.398 3.000 0 0 0
87 1 1 0 1.488 157.177 3.000 0 0 0
88 1 1 0 2.185 155.942 3.000 0 0 0
89 1 1 0 1.464 154.721 3.000 0 0 0
90 1 1 0 2.162 153.486 3.000 0 0 0
91 1 1 0 1.441 152.265 3.000 0 0 0
92 1 1 0 2.138 151.031 3.000 0 0 0
93 1 1 0 1.418 149.809 3.000 0 0 0
94 1 1 0 2.115 148.575 3.000 0 0 0
95 1 1 0 1.395 147.353 3.000 0 0 0
96 1 1 0 2.092 146.119 3.000 0 0 0
97 1 1 0 1.371 144.898 3.000 0 0 0
98 1 1 0 2.069 143.663 3.000 0 0 0
99 1 1 0 1.348 142.442 3.000 0 0 0
100 1 1 0 2.046 141.207 3.000 0 0 0
101 1 1 0 1.325 139.986 3.000 0 0 0
102 1 1 0 2.022 138.751 3.000 0 0 0
103 1 1 0 1.302 137.530 3.000 0 0 0
104 1 1 0 1.999 136.295 3.000 0 0 0
105 1 1 0 1.278 135.074 3.000 0 0 0
106 1 1 0 1.976 133.839 3.000 0 0 0
107 1 1 0 1.255 132.618 3.000 0 0 0
108 1 1 0 1.953 131.383 3.000 0 0 0
109 1 1 0 1.232 130.162 3.000 0 0 0
110 1 1 0 1.929 128.928 3.000 0 0 0
111 1 1 0 1.209 127.706 3.000 0 0 0
112 1 1 0 1.906 126.472 3.000 0 0 0
113 1 1 0 1.185 125.250 3.000 0 0 0
114 1 1 0 1.883 124.016 3.000 0 0 0
115 1 1 0 1.162 122.795 3.000 0 0 0
116 1 1 0 1.860 121.560 3.000 0 0 0
117 1 1 0 1.139 120.339 3.000 0 0 0
118 1 1 0 1.836 119.104 3.000 0 0 0
119 1 1 0 1.116 117.883 3.000 0 0 0
120 1 1 0 1.813 116.648 3.000 0 0 0
121 1 1 0 1.092 115.427 3.000 0 0 0
122 1 1 0 1.790 114.192 3.000 0 0 0
123 1 1 0 1.069 112.971 3.000 0 0 0
124 1 1 0 1.767 111.736 3.000 0 0 0
125 1 1 0 1.046 110.515 3.000 0 0 0
126 1 1 0 1.743 109.280 3.000 0 0 0
127 1 1 0 1.023 108.059 3.000 0 0 0
128 1 1 0 1.720 106.825 3.000 0 0 0
129 1 1 0 1.000 105.603 3.000 0 0 0
130 1 1 0 1.697 104.369 3.000 0 0 0
131 1 1 0 0.976 103.147 3.000 0 0 0
132 1 1 0 1.674 101.913 3.000 0 0 0
133 1 1 0 0.953 100.691 3.000 0 0 0
134 1 1 0 1.650 99.457 3.000 0 0 0
135 1 1 0 0.930 98.236 3.000 0 0 0
136 1 1 0 1.627 97.001 3.000 0 0 0
137 1 1 0 0.907 95.780 3.000 0 0 0
138 1 1 0 1.604 94.545 3.000 0 0 0
139 1 1 0 0.883 93.324 3.000 0 0 0
140 1 1 0 1.581 92.089 3.000 0 0 0
141 1 1 0 0.860 90.868 3.000 0 0 0
142 1 1 0 1.557 89.633 3.000 0 0 0
143 1 1 0 0.837 88.412 3.000 0 0 0
144 1 1 0 1.534 87.177 3.000 0 0 0
145 1 1 0 0.814 85.956 3.000 0 0 0
146 1 1 0 1.511 84.721 3.000 0 0 0
147 1 1 0 0.790 83.500 3.000 0 0 0
148 1 1 0 1.488 82.266 3.000 0 0 0
149 1 1 0 0.767 81.044 3.000 0 0 0
150 1 1 0 1.464 79.810 3.000 0 0 0
151 1 1 0 0.744 78.588 3.000 0 0 0
152 1 1 0 1.441 77.354 3.000 0 0 0
153 1 1 0 0.721 76.133 3.000 0 0 0
154 1 1 0 1.418 74.898 3.000 0 0 0
155 1 1 0 0.697 73.677 3.000 0 0 0
156 1 1 0 1.395 72.442 3.000 0 0 0
157 1 1 0 0.674 71.221 3.000 0 0 0
158 1 1 0 1.371 69.986 3.000 0 0 0
159 1 1 0 0.651 68.765 3.000 0 0 0
160 1 1 0 1.348 67.530 3.000 0 0 0
161 1 1 0 0.628 66.309 3.000 0 0 0
162 1 1 0 1.325 65.074 3.000 0 0 0
163 1 1 0 0.604 63.853 3.000 0 0 0
164 1 1 0 1.302 62.618 3.000 0 0 0
165 1 1 0 0.581 61.397 3.000 0 0 0
166 1 1 0 1.278 60.163 3.000 0 0 0
167 1 1 0 0.558 58.941 3.000 0 0 0
168 1 1 0 1.255 57.707 3.000 0 0 0
169 1 1 0 0.535 56.485 3.000 0 0 0
170 1 1 0 1.232 55.251 3.000 0 0 0
171 1 1 0 0.511 54.030 3.000 0 0 0
172 1 1 0 1.209 52.795 3.000 0 0 0
173 1 1 0 0.488 51.574 3.000 0 0 0
174 1 1 0 1.185 50.339 3.000 0 0 0
175 1 1 0 0.465 49.118 3.000 0 0 0
176 1 1 0 1.162 47.883 3.000 0 0 0
177 1 1 0 0.442 46.662 3.000 0 0 0
178 1 1 0 1.139 45.427 3.000 0 0 0
179 1 1 0 0.418 44.206 3.000 0 0 0
180 1 1 0 1.116 42.971 3.000 0 0 0
181 1 1 0 0.395 41.750 3.000 0 0 0
182 1 1 0 1.092 40.515 3.000 0 0 0
183 1 1 0 0.372 39.294 3.000 0 0 0
184 1 1 0 1.069 38.060 3.000 0 0 0
185 1 1 0 0.349 36.838 3.000 0 0 0
186 1 1 0 1.046 35.604 3.000 0 0 0
187 1 1 0 0.325 34.382 3.000 0 0 0
188 1 1 0 1.023 33.148 3.000 0 0 0
189 1 1 0 0.302 31.927 3.000 0 0 0
190 1 1 0 1.000 30.692 3.000 0 0 0
191 1 1 0 0.279 29.471 3.000 0 0 0
192 1 1 0 0.976 28.236 3.000 0 0 0
193 1 1 0 0.256 27.015 3.000 0 0 0
194 1 1 0 0.953 25.780 3.000 0 0 0
195 1 1 0 0.232 24.559 3.000 0 0 0
196 1 1 0 0.930 23.324 3.000 0 0 0
197 1 1 0 0.209 22.103 3.000 0 0 0
198 1 1 0 0.907 20.868 3.000 0 0 0
199 1 1 0 0.186 19.647 3.000 0 0 0
200 1 1 0 0.883 18.412 3.000 0 0 0
201 1 1 0 0.163 17.191 3.000 0 0 0
202 1 1 0 0.860 15.957 3.000 0 0 0
203 1 1 0 0.139 14.735 3.000 0 0 0
204 1 1 0 0.837 13.501 3.000 0 0 0
205 1 1 0 0.116 12.279 3.000 0 0 0
206 1 1 0 0.814 11.045 3.000 0 0 0
207 1 1 0 0.093 9.824 3.000 0 0 0
208 1 1 0 0.790 8.589 3.000 0 0 0
209 1 1 0 0.070 7.368 3.000 0 0 0
210 1 1 0 0.767 6.133 3.000 0 0 0
211 1 1 0 0.046 4.912 3.000 0 0 0
212 1 1 0 0.744 3.677 3.000 0 0 0
213 1 1 0 0.023 2.456 3.000 0 0 0
214 1 1 0 0.721 1.221 3.000 0 0 0
215 1 1 0 0.000 0.000 3.000 0 0 0
216 1 1 0 4.254 224.694 3.000 0 0 0
217 1 1 0 4.951 223.459 3.000 0 0 0
218 1 1 0 4.230 222.238 3.000 0 0 0
219 1 1 0 4.928 221.003 3.000 0 0 0
220 1 1 0 4.207 219.782 3.000 0 0 0
221 1 1 0 4.905 218.547 3.000 0 0 0
222 1 1 0 4.184 217.326 3.000 0 0 0
223 1 1 0 4.881 216.091 3.000 0 0 0
224 1 1 0 4.161 214.870 3.000 0 0 0
225 1 1 0 4.858 213.636 3.000 0 0 0
226 1 1 0 4.138 212.414 3.000 0 0 0
227 1 1 0 4.835 211.180 3.000 0 0 0
228 1 1 0 4.114 209.958 3.000 0 0 0
229 1 1 0 4.812 208.724 3.000 0 0 0
230 1 1 0 4.091 207.503 3.000 0 0 0
231 1 1 0 4.788 206.268 3.000 0 0 0
232 1 1 0 4.068 205.047 3.000 0 0 0
233 1 1 0 4.765 203.812 3.000 0 0 0
234 1 1 0 4.045 202.591 3.000 0 0 0
235 1 1 0 4.742 201.356 3.000 0 0 0
236 1 1 0 4.021 200.135 3.000 0 0 0
237 1 1 0 4.719 198.900 3.000 0 0 0
238 1 1 0 3.998 197.679 3.000 0 0 0
239 1 1 0 4.695 196.444 3.000 0 0 0
240 1 1 0 3.975 195.223 3.000 0 0 0
241 1 1 0 4.672 193.988 3.000 0 0 0
242 1 1 0 3.952 192.767 3.000 0 0 0
243 1 1 0 4.649 191.533 3.000 0 0 0
244 1 1 0 3.928 190.311 3.000 0 0 0
245 1 1 0 4.626 189.077 3.000 0 0 0
246 1 1 0 3.905 187.855 3.000 0 0 0
247 1 1 0 4.602 186.621 3.000 0 0 0
248 1 1 0 3.882 185.400 3.000 0 0 0
249 1 1 0 4.579 184.165 3.000 0 0 0
250 1 1 0 3.859 182.944 3.000 0 0 0
251 1 1 0 4.556 181.709 3.000 0 0 0
252 1 1 0 3.835 180.488 3.000 0 0 0
253 1 1 0 4.533 179.253 3.000 0 0 0
254 1 1 0 3.812 178.032 3.000 0 0 0
255 1 1 0 4.509 176.797 3.000 0 0 0
256 1 1 0 3.789 175.576 3.000 0 0 0
257 1 1 0 4.486 174.341 3.000 0 0 0
258 1 1 0 3.766 173.120 3.000 0 0 0
259 1 1 0 4.463 171.885 3.000 0 0 0
260 1 1 0 3.742 170.664 3.000 0 0 0
261 1 1 0 4.440 169.430 3.000 0 0 0
262 1 1 0 3.719 168.208 3.000 0 0 0
263 1 1 0 4.416 166.974 3.000 0 0 0
264 1 1 0 3.696 165.752 3.000 0 0 0
265 1 1 0 4.393 164.518 3.000 0 0 0
266 1 1 0 3.673 163.297 3.000 0 0 0
267 1 1 0 4.370 162.062 3.000 0 0 0
268 1 1 0 3.649 160.841 3.000 0 0 0
269 1 1 0 4.347 159.606 3.000 0 0 0
270 1 1 0 3.626 158.385 3.000 0 0 0
271 1 1 0 4.323 157.150 3.000 0 0 0
272 1 1 0 3.603 155.929 3.000 0 0 0
273 1 1 0 4.300 154.694 3.000 0 0 0
274 1 1 0 3.580 153.473 3.000 0 0 0
275 1 1 0 4.277 152.238 3.000 0 0 0
276 1 1 0 3.556 151.017 3.000 0 0 0
277 1 1 0 4.254 149.782 3.000 0 0 0
278 1 1 0 3.533 148.561 3.000 0 0 0
279 1 1 0 4.230 147.327 3.000 0 0 0
280 1 1 0 3.510 146.105 3.000 0 0 0
281 1 1 0 4.207 144.871 3.000 0 0 0
282 1 1 0 3.487 143.649 3.000 0 0 0
283 1 1 0 4.184 142.415 3.000 0 0 0
284 1 1 0 3.463 141.194 3.000 0 0 0
285 1 1 0 4.161 139.959 3.000 0 0 0
286 1 1 0 3.440 138.738 3.000 0 0 0
287 1 1 0 4.138 137.503 3.000 0 0 0
288 1 1 0 3.417 136.282 3.000 0 0 0
289 1 1 0 4.114 135.047 3.000 0 0 0
290 1 1 0 3.394 133.826 3.000 0 0 0
291 1 1 0 4.091 132.591 3.000 0 0 0
292 1 1 0 3.370 131.370 3.000 0 0 0
293 1 1 0 4.068 130.135 3.000 0 0 0
294 1 1 0 3.347 128.914 3.000 0 0 0
295 1 1 0 4.045 127.679 3.000 0 0 0
296 1 1 0 3.324 126.458 3.000 0 0 0
297 1 1 0 4.021 125.224 3.000 0 0 0
298 1 1 0 3.301 124.002 3.000 0 0 0
299 1 1 0 3.998 122.768 3.000 0 0 0
300 1 1 0 3.277 121.546 3.000 0 0 0
301 1 1 0 3.975 120.312 3.000 0 0 0
302 1 1 0 3.254 119.091 3.000 0 0 0
303 1 1 0 3.952 117.856 3.000 0 0 0
304 1 1 0 3.231 116.635 3.000 0 0 0
305 1 1 0 3.928 115.400 3.000 0 0 0
306 1 1 0 3.208 114.179 3.000 0 0 0
307 1 1 0 3.905 112.944 3.000 0 0 0
308 1 1 0 3.184 111.723 3.000 0 0 0
309 1 1 0 3.882 110.488 3.000 0 0 0
310 1 1 0 3.161 109.267 3.000 0 0 0
311 1 1 0 3.859 108.032 3.000 0 0 0
312 1 1 0 3.138 106.811 3.000 0 0 0
313 1 1 0 3.835 105.576 3.000 0 0 0
314 1 1 0 3.115 104.355 3.000 0 0 0
315 1 1 0 3.812 103.121 3.000 0 0 0
316 1 1 0 3.092 101.899 3.000 0 0 0
317 1 1 0 3.789 100.665 3.000 0 0 0
318 1 1 0 3.068 99.443 3.000 0 0 0
319 1 1 0 3.766 98.209 3.000 0 0 0
320 1 1 0 3.045 96.988 3.000 0 0 0
321 1 1 0 3.742 95.753 3.000 0 0 0
322 1 1 0 3.022 94.532 3.000 0 0 0
323 1 1 0 3.719 93.297 3.000 0 0 0
324 1 1 0 2.999 92.076 3.000 0 0 0
325 1 1 0 3.696 90.841 3.000 0 0 0
326 1 1 0 2.975 89.620 3.000 0 0 0
327 1 1 0 3.673 88.385 3.000 0 0 0
328 1 1 0 2.952 87.164 3.000 0 0 0
329 1 1 0 3.649 85.929 3.000 0 0 0
330 1 1 0 2.929 84.708 3.000 0 0 0
331 1 1 0 3.626 83.473 3.000 0 0 0
332 1 1 0 2.906 82.252 3.000 0 0 0
333 1 1 0 3.603 81.018 3.000 0 0 0
334 1 1 0 2.882 79.796 3.000 0 0 0
335 1 1 0 3.580 78.562 3.000 0 0 0
336 1 1 0 2.859 77.340 3.000 0 0 0
337 1 1 0 3.556 76.106 3.000 0 0 0
338 1 1 0 2.836 74.885 3.000 0 0 0
339 1 1 0 3.533 73.650 3.000 0 0 0
340 1 1 0 2.813 72.429 3.000 0 0 0
341 1 1 0 3.510 71.194 3.000 0 0 0
342 1 1 0 2.789 69.973 3.000 0 0 0
343 1 1 0 3.487 68.738 3.000 0 0 0
344 1 1 0 2.766 67.517 3.000 0 0 0
345 1 1 0 3.463 66.282 3.000 0 0 0
346 1 1 0 2.743 65.061 3.000 0 0 0
347 1 1 0 3.440 63.826 3.000 0 0 0
348 1 1 0 2.720 62.605 3.000 0 0 0
349 1 1 0 3.417 61.370 3.000 0 0 0
350 1 1 0 2.696 60.149 3.000 0 0 0
351 1 1 0 3.394 58.915 3.000 0 0 0
352 1 1 0 2.673 57.693 3.000 0 0 0
353 1 1 0 3.370 56.459 3.000 0 0 0
354 1 1 0 2.650 55.237 3.000 0 0 0
355 1 1 0 3.347 54.003 3.000 0 0 0
356 1 1 0 2.627 52.782 3.000 0 0 0
357 1 1 0 3.324 51.547 3.000 0 0 0
358 1 1 0 2.603 50.326 3.000 0 0 0
359 1 1 0 3.301 49.091 3.000 0 0 0
360 1 1 0 2.580 47.870 3.000 0 0 0
361 1 1 0 3.277 46.635 3.000 0 0 0
362 1 1 0 2.557 45.414 3.000 0 0 0
363 1 1 0 3.254 44.179 3.000 0 0 0
364 1 1 0 2.534 42.958 3.000 0 0 0
365 1 1 0 3.231 41.723 3.000 0 0 0
366 1 1 0 2.510 40.502 3.000 0 0 0
367 1 1 0 3.208 39.267 3.000 0 0 0
368 1 1 0 2.487 38.046 3.000 0 0 0
369 1 1 0 3.184 36.812 3.000 0 0 0
370 1 1 0 2.464 35.590 3.000 0 0 0
371 1 1 0 3.161 34.356 3.000 0 0 0
372 1 1 0 2.441 33.134 3.000 0 0 0
373 1 1 0 3.138 31.900 3.000 0 0 0
374 1 1 0 2.417 30.678 3.000 0 0 0
375 1 1 0 3.115 29.444 3.000 0 0 0
376 1 1 0 2.394 28.223 3.000 0 0 0
377 1 1 0 3.092 26.988 3.000 0 0 0
378 1 1 0 2.371 25.767 3.000 0 0 0
379 1 1 0 3.068 24.532 3.000 0 0 0
380 1 1 0 2.348 23.311 3.000 0 0 0
381 1 1 0 3.045 22.076 3.000 0 0 0
382 1 1 0 2.324 20.855 3.000 0 0 0
383 1 1 0 3.022 19.620 3.000 0 0 0
384 1 1 0 2.301 18.399 3.000 0 0 0
385 1 1 0 2.999 17.164 3.000 0 0 0
386 1 1 0 2.278 15.943 3.000 0 0 0
387 1 1 0 2.975 14.708 3.000 0 0 0
388 1 1 0 2.255 13.487 3.000 0 0 0
389 1 1 0 2.952 12.253 3.000 0 0 0
390 1 1 0 2.231 11.031 3.000 0 0 0
391 1 1 0 2.929 9.797 3.000 0 0 0
392 1 1 0 2.208 8.575 3.000 0 0 0
393 1 1 0 2.906 7.341 3.000 0 0 0
394 1 1 0 2.185 6.120 3.000 0 0 0
395 1 1 0 2.882 4.885 3.000 0 0 0
396 1 1 0 2.162 3.664 3.000 0 0 0
397 1 1 0 2.859 2.429 3.000 0 0 0
398 1 1 0 2.138 1.208 3.000 0 0 0
399 1 1 0 7.090 224.667 3.000 0 0 0
400 1 1 0 6.369 223.446 3.000 0 0 0
401 1 1 0 7.066 222.211 3.000 0 0 0
402 1 1 0 6.346 220.990 3.000 0 0 0
403 1 1 0 7.043 219.755 3.000 0 0 0
404 1 1 0 6.322 218.534 3.000 0 0 0
405 1 1 0 7.020 217.299 3.000 0 0 0
406 1 1 0 6.299 216.078 3.000 0 0 0
407 1 1 0 6.997 214.843 3.000 0 0 0
408 1 1 0 6.276 213.622 3.000 0 0 0
409 1 1 0 6.973 212.388 3.000 0 0 0
410 1 1 0 6.253 211.166 3.000 0 0 0
411 1 1 0 6.950 209.932 3.000 0 0 0
412 1 1 0 6.230 208.710 3.000 0 0 0
413 1 1 0 6.927 207.476 3.000 0 0 0
414 1 1 0 6.206 206.254 3.000 0 0 0
415 1 1 0 6.904 205.020 3.000 0 0 0
416 1 1 0 6.183 203.799 3.000 0 0 0
417 1 1 0 6.880 202.564 3.000 0 0 0
418 1 1 0 6.160 201.343 3.000 0 0 0
419 1 1 0 6.857 200.108 3.000 0 0 0
420 1 1 0 6.137 198.887 3.000 0 0 0
421 1 1 0 6.834 197.652 3.000 0 0 0
422 1 1 0 6.113 196.431 3.000 0 0 0
423 1 1 0 6.811 195.196 3.000 0 0 0
424 1 1 0 6.090 193.975 3.000 0 0 0
425 1 1 0 6.787 192.740 3.000 0 0 0
426 1 1 0 6.067 191.519 3.000 0 0 0
427 1 1 0 6.764 190.285 3.000 0 0 0
428 1 1 0 6.044 189.063 3.000 0 0 0
429 1 1 0 6.741 187.829 3.000 0 0 0
430 1 1 0 6.020 186.607 3.000 0 0 0
431 1 1 0 6.718 185.373 3.000 0 0 0
432 1 1 0 5.997 184.151 3.000 0 0 0
433 1 1 0 6.694 182.917 3.000 0 0 0
434 1 1 0 5.974 181.696 3.000 0 0 0
435 1 1 0 6.671 180.461 3.000 0 0 0
436 1 1 0 5.951 179.240 3.000 0 0 0
437 1 1 0 6.648 178.005 3.000 0 0 0
438 1 1 0 5.927 176.784 3.000 0 0 0
439 1 1 0 6.625 175.549 3.000 0 0 0
440 1 1 0 5.904 174.328 3.000 0 0 0
441 1 1 0 6.601 173.093 3.000 0 0 0
442 1 1 0 5.881 171.872 3.000 0 0 0
443 1 1 0 6.578 170.637 3.000 0 0 0
444 1 1 0 5.858 169.416 3.000 0 0 0
445 1 1 0 6.555 168.181 3.000 0 0 0
446 1 1 0 5.834 166.960 3.000 0 0 0
447 1 1 0 6.532 165.726 3.000 0 0 0
448 1 1 0 5.811 164.504 3.000 0 0 0
449 1 1 0 6.508 163.270 3.000 0 0 0
450 1 1 0 5.788 162.048 3.000 0 0 0
451 1 1 0 6.485 160.814 3.000 0 0 0
452 1 1 0 5.765 159.593 3.000 0 0 0
453 1 1 0 6.462 158.358 3.000 0 0 0
454 1 1 0 5.741 157.137 3.000 0 0 0
455 1 1 0 6.439 155.902 3.000 0 0 0
456 1 1 0 5.718 154.681 3.000 0 0 0
457 1 1 0 6.415 153.446 3.000 0 0 0
458 1 1 0 5.695 152.225 3.000 0 0 0
459 1 1 0 6.392 150.990 3.000 0 0 0
460 1 1 0 5.672 149.769 3.000 0 0 0
461 1 1 0 6.369 148.534 3.000 0 0 0
462 1 1 0 5.648 147.313 3.000 0 0 0
463 1 1 0 6.346 146.078 3.000 0 0 0
464 1 1 0 5.625 144.857 3.000 0 0 0
465 1 1 0 6.322 143.623 3.000 0 0 0
466 1 1 0 5.602 142.401 3.000 0 0 0
467 1 1 0 6.299 141.167 3.000 0 0 0
468 1 1 0 5.579 139.945 3.000 0 0 0
469 1 1 0 6.276 138.711 3.000 0 0 0
470 1 1 0 5.555 137.490 3.000 0 0 0
471 1 1 0 6.253 136.255 3.000 0 0 0
472 1 1 0 5.532 135.034 3.000 0 0 0
473 1 1 0 6.230 133.799 3.000 0 0 0
474 1 1 0 5.509 132.578 3.000 0 0 0
475 1 1 0 6.206 131.343 3.000 0 0 0
476 1 1 0 5.486 130.122 3.000 0 0 0
477 1 1 0 6.183 128.887 3.000 0 0 0
478 1 1 0 5.462 127.666 3.000 0 0 0
479 1 1 0 6.160 126.431 3.000 0 0 0
480 1 1 0 5.439 125.210 3.000 0 0 0
481 1 1 0 6.137 123.975 3.000 0 0 0
482 1 1 0 5.416 122.754 3.000 0 0 0
483 1 1 0 6.113 121.520 3.000 0 0 0
484 1 1 0 5.393 120.298 3.000 0 0 0
485 1 1 0 6.090 119.064 3.000 0 0 0
486 1 1 0 5.369 117.842 3.000 0 0 0
487 1 1 0 6.067 116.608 3.000 0 0 0
488 1 1 0 5.346 115.387 3.000 0 0 0
489 1 1 0 6.044 114.152 3.000 0 0 0
490 1 1 0 5.323 112.931 3.000 0 0 0
491 1 1 0 6.020 111.696 3.000 0 0 0
492 1 1 0 5.300 110.475 3.000 0 0 0
493 1 1 0 5.997 109.240 3.000 0 0 0
494 1 1 0 5.276 108.019 3.000 0 0 0
495 1 1 0 5.974 106.784 3.000 0 0 0
496 1 1 0 5.253 105.563 3.000 0 0 0
497 1 1 0 5.951 104.328 3.000 0 0 0
498 1 1 0 5.230 103.107 3.000 0 0 0
499 1 1 0 5.927 101.872 3.000 0 0 0
500 1 1 0 5.207 100.651 3.000 0 0 0
501 1 1 0 5.904 99.417 3.000 0 0 0
502 1 1 0 5.184 98.195 3.000 0 0 0
503 1 1 0 5.881 96.961 3.000 0 0 0
504 1 1 0 5.160 95.739 3.000 0 0 0
505 1 1 0 5.858 94.505 3.000 0 0 0
506 1 1 0 5.137 93.284 3.000 0 0 0
507 1 1 0 5.834 92.049 3.000 0 0 0
508 1 1 0 5.114 90.828 3.000 0 0 0
509 1 1 0 5.811 89.593 3.000 0 0 0
510 1 1 0 5.091 88.372 3.000 0 0 0
511 1 1 0 5.788 87.137 3.000 0 0 0
512 1 1 0 5.067 85.916 3.000 0 0 0
513 1 1 0 5.765 84.681 3.000 0 0 0
514 1 1 0 5.044 83.460 3.000 0 0 0
515 1 1 0 5.741 82.225 3.000 0 0 0
516 1 1 0 5.021 81.004 3.000 0 0 0
517 1 1 0 5.718 79.769 3.000 0 0 0
518 1 1 0 4.998 78.548 3.000 0 0 0
519 1 1 0 5.695 77.314 3.000 0 0 0
520 1 1 0 4.974 76.092 3.000 0 0 0
521 1 1 0 5.672 74.858 3.000 0 0 0
522 1 1 0 4.951 73.636 3.000 0 0 0
523 1 1 0 5.648 72.402 3.000 0 0 0
524 1 1 0 4.928 71.181 3.000 0 0 0
525 1 1 0 5.625 69.946 3.000 0 0 0
526 1 1 0 4.905 68.725 3.000 0 0 0
527 1 1 0 5.602 67.490 3.000 0 0 0
528 1 1 0 4.881 66.269 3.000 0 0 0
529 1 1 0 5.579 65.034 3.000 0 0 0
530 1 1 0 4.858 63.813 3.000 0 0 0
531 1 1 0 5.555 62.578 3.000 0 0 0
532 1 1 0 4.835 61.357 3.000 0 0 0
533 1 1 0 5.532 60.122 3.000 0 0 0
534 1 1 0 4.812 58.901 3.000 0 0 0
535 1 1 0 5.509 57.666 3.000 0 0 0
536 1 1 0 4.788 56.445 3.000 0 0 0
537 1 1 0 5.486 55.211 3.000 0 0 0
538 1 1 0 4.765 53.989 3.000 0 0 0
539 1 1 0 5.462 52.755 3.000 0 0 0
540 1 1 0 4.742 51.533 3.000 0 0 0
541 1 1 0 5.439 50.299 3.000 0 0 0
542 1 1 0 4.719 49.078 3.000 0 0 0
543 1 1 0 5.416 47.843 3.000 0 0 0
544 1 1 0 4.695 46.622 3.000 0 0 0
545 1 1 0 5.393 45.387 3.000 0 0 0
546 1 1 0 4.672 44.166 3.000 0 0 0
547 1 1 0 5.369 42.931 3.000 0 0 0
548 1 1 0 4.649 41.710 3.000 0 0 0
549 1 1 0 5.346 40.475 3.000 0 0 0
550 1 1 0 4.626 39.254 3.000 0 0 0
551 1 1 0 5.323 38.019 3.000 0 0 0
552 1 1 0 4.602 36.798 3.000 0 0 0
553 1 1 0 5.300 35.563 3.000 0 0 0
554 1 1 0 4.579 34.342 3.000 0 0 0
555 1 1 0 5.276 33.108 3.000 0 0 0
556 1 1 0 4.556 31.886 3.000 0 0 0
557 1 1 0 5.253 30.652 3.000 0 0 0
558 1 1 0 4.533 29.430 3.000 0 0 0
559 1 1 0 5.230 28.196 3.000 0 0 0
560 1 1 0 4.509 26.975 3.000 0 0 0
561 1 1 0 5.207 25.740 3.000 0 0 0
562 1 1 0 4.486 24.519 3.000 0 0 0
563 1 1 0 5.184 23.284 3.000 0 0 0
564 1 1 0 4.463 22.063 3.000 0 0 0
565 1 1 0 5.160 20.828 3.000 0 0 0
566 1 1 0 4.440 19.607 3.000 0 0 0
567 1 1 0 5.137 18.372 3.000 0 0 0
568 1 1 0 4.416 17.151 3.000 0 0 0
569 1 1 0 5.114 15.916 3.000 0 0 0
570 1 1 0 4.393 14.695 3.000 0 0 0
571 1 1 0 5.091 13.460 3.000 0 0 0
572 1 1 0 4.370 12.239 3.000 0 0 0
573 1 1 0 5.067 11.005 3.000 0 0 0
574 1 1 0 4.347 9.783 3.000 0 0 0
575 1 1 0 5.044 8.549 3.000 0 0 0
576 1 1 0 4.323 7.327 3.000 0 0 0
577 1 1 0 5.021 6.093 3.000 0 0 0
578 1 1 0 4.300 4.872 3.000 0 0 0
579 1 1 0 4.998 3.637 3.000 0 0 0
580 1 1 0 4.277 2.416 3.000 0 0 0
581 1 1 0 4.974 1.181 3.000 0 0 0
582 1 1 0 8.507 224.654 3.000 0 0 0
583 1 1 0 9.205 223.419 3.000 0 0 0
584 1 1 0 8.484 222.198 3.000 0 0 0
585 1 1 0 9.182 220.963 3.000 0 0 0
586 1 1 0 8.461 219.742 3.000 0 0 0
587 1 1 0 9.158 218.507 3.000 0 0 0
588 1 1 0 8.438 217.286 3.000 0 0 0
589 1 1 0 9.135 216.051 3.000 0 0 0
590 1 1 0 8.414 214.830 3.000 0 0 0
591 1 1 0 9.112 213.595 3.000 0 0 0
592 1 1 0 8.391 212.374 3.000 0 0 0
593 1 1 0 9.089 211.139 3.000 0 0 0
594 1 1 0 8.368 209.918 3.000 0 0 0
595 1 1 0 9.065 208.684 3.000 0 0 0
596 1 1 0 8.345 207.462 3.000 0 0 0
597 1 1 0 9.042 206.228 3.000 0 0 0
598 1 1 0 8.321 205.006 3.000 0 0 0
599 1 1 0 9.019 203.772 3.000 0 0 0
600 1 1 0 8.298 202.551 3.000 0 0 0
601 1 1 0 8.996 201.316 3.000 0 0 0
602 1 1 0 8.275 200.095 3.000 0 0 0
603 1 1 0 8.972 198.860 3.000 0 0 0
604 1 1 0 8.252 197.639 3.000 0 0 0
605 1 1 0 8.949 196.404 3.000 0 0 0
606 1 1 0 8.229 195.183 3.000 0 0 0
607 1 1 0 8.926 193.948 3.000 0 0 0
608 1 1 0 8.205 192.727 3.000 0 0 0
609 1 1 0 8.903 191.492 3.000 0 0 0
610 1 1 0 8.182 190.271 3.000 0 0 0
611 1 1 0 8.879 189.036 3.000 0 0 0
612 1 1 0 8.159 187.815 3.000 0 0 0
613 1 1 0 8.856 186.581 3.000 0 0 0
614 1 1 0 8.136 185.359 3.000 0 0 0
615 1 1 0 8.833 184.125 3.000 0 0 0
616 1 1 0 8.112 182.903 3.000 0 0 0
617 1 1 0 8.810 181.669 3.000 0 0 0
618 1 1 0 8.089 180.448 3.000 0 0 0
619 1 1 0 8.786 179.213 3.000 0 0 0
620 1 1 0 8.066 177.992 3.000 0 0 0
621 1 1 0 8.763 176.757 3.000 0 0 0
622 1 1 0 8.043 175.536 3.000 0 0 0
623 1 1 0 8.740 174.301 3.000 0 0 0
624 1 1 0 8.019 173.080 3.000 0 0 0
625 1 1 0 8.717 171.845 3.000 0 0 0
626 1 1 0 7.996 170.624 3.000 0 0 0
627 1 1 0 8.693 169.389 3.000 0 0 0
628 1 1 0 7.973 168.168 3.000 0 0 0
629 1 1 0 8.670 166.933 3.000 0 0 0
630 1 1 0 7.950 165.712 3.000 0 0 0
631 1 1 0 8.647 164.478 3.000 0 0 0
632 1 1 0 7.926 163.256 3.000 0 0 0
633 1 1 0 8.624 162.022 3.000 0 0 0
634 1 1 0 7.903 160.800 3.000 0 0 0
635 1 1 0 8.600 159.566 3.000 0 0 0
636 1 1 0 7.880 158.345 3.000 0 0 0
637 1 1 0 8.577 157.110 3.000 0 0 0
638 1 1 0 7.857 155.889 3.000 0 0 0
639 1 1 0 8.554 154.654 3.000 0 0 0
640 1 1 0 7.833 153.433 3.000 0 0 0
641 1 1 0 8.531 152.198 3.000 0 0 0
642 1 1 0 7.810 150.977 3.000 0 0 0
643 1 1 0 8.507 149.742 3.000 0 0 0
644 1 1 0 7.787 148.521 3.000 0 0 0
645 1 1 0 8.484 147.286 3.000 0 0 0
646 1 1 0 7.764 146.065 3.000 0 0 0
647 1 1 0 8.461 144.830 3.000 0 0 0
648 1 1 0 7.740 143.609 3.000 0 0 0
649 1 1 0 8.438 142.375 3.000 0 0 0
650 1 1 0 7.717 141.153 3.000 0 0 0
651 1 1 0 8.414 139.919 3.000 0 0 0
652 1 1 0 7.694 138.697 3.000 0 0 0
653 1 1 0 8.391 137.463 3.000 0 0 0
654 1 1 0 7.671 136.242 3.000 0 0 0
655 1 1 0 8.368 135.007 3.000 0 0 0
656 1 1 0 7.647 133.786 3.000 0 0 0
657 1 1 0 8.345 132.551 3.000 0 0 0
658 1 1 0 7.624 131.330 3.000 0 0 0
659 1 1 0 8.321 130.095 3.000 0 0 0
660 1 1 0 7.601 128.874 3.000 0 0 0
661 1 1 0 8.298 127.639 3.000 0 0 0
662 1 1 0 7.578 126.418 3.000 0 0 0
663 1 1 0 8.275 125.183 3.000 0 0 0
664 1 1 0 7.554 123.962 3.000 0 0 0
665 1 1 0 8.252 122.727 3.000 0 0 0
666 1 1 0 7.531 121.506 3.000 0 0 0
667 1 1 0 8.229 120.272 3.000 0 0 0
668 1 1 0 7.508 119.050 3.000 0 0 0
669 1 1 0 8.205 117.816 3.000 0 0 0
670 1 1 0 7.485 116.594 3.000 0 0 0
671 1 1 0 8.182 115.360 3.000 0 0 0
672 1 1 0 7.461 114.138 3.000 0 0 0
673 1 1 0 8.159 112.904 3.000 0 0 0
674 1 1 0 7.438 111.683 3.000 0 0 0
675 1 1 0 8.136 110.448 3.000 0 0 0
676 1 1 0 7.415 109.227 3.000 0 0 0
677 1 1 0 8.112 107.992 3.000 0 0 0
678 1 1 0 7.392 106.771 3.000 0 0 0
679 1 1 0 8.089 105.536 3.000 0 0 0
680 1 1 0 7.368 104.315 3.000 0 0 0
681 1 1 0 8.066 103.080 3.000 0 0 0
682 1 1 0 7.345 101.859 3.000 0 0 0
683 1 1 0 8.043 100.624 3.000 0 0 0
684 1 1 0 7.322 99.403 3.000 0 0 0
685 1 1 0 8.019 98.168 3.000 0 0 0
686 1 1 0 7.299 96.947 3.000 0 0 0
687 1 1 0 7.996 95.713 3.000 0 0 0
688 1 1 0 7.275 94.491 3.000 0 0 0
689 1 1 0 7.973 93.257 3.000 0 0 0
690 1 1 0 7.252 92.035 3.000 0 0 0
691 1 1 0 7.950 90.801 3.000 0 0 0
692 1 1 0 7.229 89.580 3.000 0 0 0
693 1 1 0 7.926 88.345 3.000 0 0 0
694 1 1 0 7.206 87.124 3.000 0 0 0
695 1 1 0 7.903 85.889 3.000 0 0 0
696 1 1 0 7.183 84.668 3.000 0 0 0
697 1 1 0 7.880 83.433 3.000 0 0 0
698 1 1 0 7.159 82.212 3.000 0 0 0
699 1 1 0 7.857 80.977 3.000 0 0 0
700 1 1 0 7.136 79.756 3.000 0 0 0
701 1 1 0 7.833 78.521 3.000 0 0 0
702 1 1 0 7.113 77.300 3.000 0 0 0
703 1 1 0 7.810 76.065 3.000 0 0 0
704 1 1 0 7.090 74.844 3.000 0 0 0
705 1 1 0 7.787 73.610 3.000 0 0 0
706 1 1 0 7.066 72.388 3.000 0 0 0
707 1 1 0 7.764 71.154 3.000 0 0 0
708 1 1 0 7.043 69.932 3.000 0 0 0
709 1 1 0 7.740 68.698 3.000 0 0 0
710 1 1 0 7.020 67.477 3.000 0 0 0
711 1 1 0 7.717 66.242 3.000 0 0 0
712 1 1 0 6.997 65.021 3.000 0 0 0
713 1 1 0 7.694 63.786 3.000 0 0 0
714 1 1 0 6.973 62.565 3.000 0 0 0
715 1 1 0 7.671 61.330 3.000 0 0 0
716 1 1 0 6.950 60.109 3.000 0 0 0
717 1 1 0 7.647 58.874 3.000 0 0 0
718 1 1 0 6.927 57.653 3.000 0 0 0
719 1 1 0 7.624 56.418 3.000 0 0 0
720 1 1 0 6.904 55.197 3.000 0 0 0
721 1 1 0 7.601 53.962 3.000 0 0 0
722 1 1 0 6.880 52.741 3.000 0 0 0
723 1 1 0 7.578 51.507 3.000 0 0 0
724 1 1 0 6.857 50.285 3.000 0 0 0
725 1 1 0 7.554 49.051 3.000 0 0 0
726 1 1 0 6.834 47.829 3.000 0 0 0
727 1 1 0 7.531 46.595 3.000 0 0 0
728 1 1 0 6.811 45.374 3.000 0 0 0
729 1 1 0 7.508 44.139 3.000 0 0 0
730 1 1 0 6.787 42.918 3.000 0 0 0
731 1 1 0 7.485 41.683 3.000 0 0 0
732 1 1 0 6.764 40.462 3.000 0 0 0
733 1 1 0 7.461 39.227 3.000 0 0 0
734 1 1 0 6.741 38.006 3.000 0 0 0
735 1 1 0 7.438 36.771 3.000 0 0 0
736 1 1 0 6.718 35.550 3.000 0 0 0
737 1 1 0 7.415 34.315 3.000 0 0 0
738 1 1 0 6.694 33.094 3.000 0 0 0
739 1 1 0 7.392 31.859 3.000 0 0 0
740 1 1 0 6.671 30.638 3.000 0 0 0
741 1 1 0 7.368 29.404 3.000 0 0 0
742 1 1 0 6.648 28.182 3.000 0 0 0
743 1 1 0 7.345 26.948 3.000 0 0 0
744 1 1 0 6.625 25.726 3.000 0 0 0
745 1 1 0 7.322 24.492 3.000 0 0 0
746 1 1 0 6.601 23.271 3.000 0 0 0
747 1 1 0 7.299 22.036 3.000 0 0 0
748 1 1 0 6.578 20.815 3.000 0 0 0
749 1 1 0 7.275 19.580 3.000 0 0 0
750 1 1 0 6.555 18.359 3.000 0 0 0
751 1 1 0 7.252 17.124 3.000 0 0 0
752 1 1 0 6.532 15.903 3.000 0 0 0
753 1 1 0 7.229 14.668 3.000 0 0 0
754 1 1 0 6.508 13.447 3.000 0 0 0
755 1 1 0 7.206 12.212 3.000 0 0 0
756 1 1 0 6.485 10.991 3.000 0 0 0
757 1 1 0 7.183 9.756 3.000 0 0 0
758 1 1 0 6.462 8.535 3.000 0 0 0
759 1 1 0 7.159 7.301 3.000 0 0 0
760 1 1 0 6.439 6.079 3.000 0 0 0
761 1 1 0 7.136 4.845 3.000 0 0 0
762 1 1 0 6.415 3.623 3.000 0 0 0
763 1 1 0 7.113 2.389 3.000 0 0 0
764 1 1 0 6.392 1.168 3.000 0 0 0
765 1 1 0 11.343 224.627 3.000 0 0 0
766 1 1 0 10.623 223.405 3.000 0 0 0
767 1 1 0 11.320 222.171 3.000 0 0 0
768 1 1 0 10.599 220.950 3.000 0 0 0
769 1 1 0 11.297 219.715 3.000 0 0 0
770 1 1 0 10.576 218.494 3.000 0 0 0
771 1 1 0 11.274 217.259 3.000 0 0 0
772 1 1 0 10.553 216.038 3.000 0 0 0
773 1 1 0 11.250 214.803 3.000 0 0 0
774 1 1 0 10.530 213.582 3.000 0 0 0
775 1 1 0 11.227 212.347 3.000 0 0 0
776 1 1 0 10.506 211.126 3.000 0 0 0
777 1 1 0 11.204 209.891 3.000 0 0 0
778 1 1 0 10.483 208.670 3.000 0 0 0
779 1 1 0 11.181 207.435 3.000 0 0 0
780 1 1 0 10.460 206.214 3.000 0 0 0
781 1 1 0 11.157 204.980 3.000 0 0 0
782 1 1 0 10.437 203.758 3.000 0 0 0
783 1 1 0 11.134 202.524 3.000 0 0 0
784 1 1 0 10.413 201.302 3.000 0 0 0
785 1 1 0 11.111 200.068 3.000 0 0 0
786 1 1 0 10.390 198.847 3.000 0 0 0
787 1 1 0 11.088 197.612 3.000 0 0 0
788 1 1 0 10.367 196.391 3.000 0 0 0
789 1 1 0 11.064 195.156 3.000 0 0 0
790 1 1 0 10.344 193.935 3.000 0 0 0
791 1 1 0 11.041 192.700 3.000 0 0 0
792 1 1 0 10.321 191.479 3.000 0 0 0
793 1 1 0 11.018 190.244 3.000 0 0 0
794 1 1 0 10.297 189.023 3.000 0 0 0
795 1 1 0 10.995 187.788 3.000 0 0 0
796 1 1 0 10.274 186.567 3.000 0 0 0
797 1 1 0 10.971 185.332 3.000 0 0 0
798 1 1 0 10.251 184.111 3.000 0 0 0
799 1 1 0 10.948 182.877 3.000 0 0 0
800 1 1 0 10.228 181.655 3.000 0 0 0
801 1 1 0 10.925 180.421 3.000 0 0 0
802 1 1 0 10.204 179.199 3.000 0 0 0
803 1 1 0 10.902 177.965 3.000 0 0 0
804 1 1 0 10.181 176.744 3.000 0 0 0
805 1 1 0 10.878 175.509 3.000 0 0 0
806 1 1 0 10.158 174.288 3.000 0 0 0
807 1 1 0 10.855 173.053 3.000 0 0 0
808 1 1 0 10.135 171.832 3.000 0 0 0
809 1 1 0 10.832 170.597 3.000 0 0 0
810 1 1 0 10.111 169.376 3.000 0 0 0
811 1 1 0 10.809 168.141 3.000 0 0 0
812 1 1 0 10.088 166.920 3.000 0 0 0
813 1 1 0 10.785 165.685 3.000 0 0 0
814 1 1 0 10.065 164.464 3.000 0 0 0
815 1 1 0 10.762 163.229 3.000 0 0 0
816 1 1 0 10.042 162.008 3.000 0 0 0
817 1 1 0 10.739 160.774 3.000 0 0 0
818 1 1 0 10.018 159.552 3.000 0 0 0
819 1 1 0 10.716 158.318 3.000 0 0 0
820 1 1 0 9.995 157.096 3.000 0 0 0
821 1 1 0 10.692 155.862 3.000 0 0 0
822 1 1 0 9.972 154.641 3.000 0 0 0
823 1 1 0 10.669 153.406 3.000 0 0 0
824 1 1 0 9.949 152.185 3.000 0 0 0
825 1 1 0 10.646 150.950 3.000 0 0 0
826 1 1 0 9.925 149.729 3.000 0 0 0
827 1 1 0 10.623 148.494 3.000 0 0 0
828 1 1 0 9.902 147.273 3.000 0 0 0
829 1 1 0 10.599 146.038 3.000 0 0 0
830 1 1 0 9.879 144.817 3.000 0 0 0
831 1 1 0 10.576 143.582 3.000 0 0 0
832 1 1 0 9.856 142.361 3.000 0 0 0
833 1 1 0 10.553 141.126 3.000 0 0 0
834 1 1 0 9.832 139.905 3.000 0 0 0
835 1 1 0 10.530 138.671 3.000 0 0 0
836 1 1 0 9.809 137.449 3.000 0 0 0
837 1 1 0 10.506 136.215 3.000 0 0 0
838 1 1 0 9.786 134.993 3.000 0 0 0
839 1 1 0 10.483 133.759 3.000 0 0 0
840 1 1 0 9.763 132.538 3.000 0 0 0