ITEM: TIMESTEP
66
ITEM: NUMBER OF ATOMS
3176
ITEM: BOX BOUNDS pp pp pp
0.0000000000000000e+00 4.8935453299999999e+01
0.0000000000000000e+00 8.4758691400000004e+01
0.0000000000000000e+00 1.5000000000000000e+01
ITEM: ATOMS id type x y z c_csym c_2[1] c_2[2] c_2[3] c_2[4] c_2[5] c_2[6] c_3 
74 1 0.277619 9.81903 2.90637 6.01676 -146370 -157206 15519.8 -33798.9 32846.8 -3825.42 -7.41564 
75 1 0.952826 8.57212 2.89883 6.01306 -167238 -136404 -9709.11 -26227.2 17195.4 -5010.9 -7.41393 
76 1 0.210509 7.36426 2.89213 6.02159 -146576 -156914 6706.12 -18202.7 22613.9 -2823.71 -7.4146 
77 1 0.884665 6.11685 2.88653 6.01948 -161369 -141464 -3099.05 -12682.6 12206 -4385.22 -7.41386 
78 1 0.141352 4.90952 2.88177 6.02551 -147458 -155309 2452.89 -7446.29 12845.6 -1840.3 -7.41398 
79 1 0.81485 3.6618 2.87838 6.0247 -156558 -145773 105.946 -4497.75 6818.9 -3269.3 -7.41373 
80 1 0.0709591 2.45477 2.87574 6.02856 -149031 -153273 1203.46 -1682.53 5317.14 -933.922 -7.41369 
81 1 0.744142 1.2069 2.87444 6.02894 -152777 -149480 1095.63 -894.186 2042.01 -1963.78 -7.41364 
82 1 1.0761e-05 1.58665e-06 2.8738 6.03078 -151027 -151132 1154.71 32.8582 -0.0314129 0.193492 -7.41362 
144 1 3.11119 9.73993 2.90874 6.01069 -186055 -118404 -9879.97 -34516.2 18461 -14174.3 -7.41424 
145 1 2.37018 8.53134 2.90033 6.01436 -159972 -144226 7665.91 -22075.7 27171.9 -6237.85 -7.41499 
146 1 3.04439 7.28384 2.89482 6.0154 -175036 -128399 -2582.02 -18389.3 14759.8 -12676.6 -7.41417 
147 1 2.30198 6.076 2.88795 6.01991 -155515 -147765 2225.72 -8519.26 16835.5 -5759.76 -7.41421 
148 1 2.97552 4.82822 2.8845 6.02101 -165386 -137301 795.61 -7425.49 9569.98 -10413 -7.41398 
149 1 2.23213 3.6209 2.87972 6.02434 -152798 -149788 505.182 -392.385 7933.38 -5055.82 -7.41381 
150 1 2.90533 2.373 2.87839 6.02621 -157626 -144914 1526.53 -1796.06 4348.71 -7919.92 -7.4138 
151 1 2.16141 1.16597 2.87574 6.02715 -151467 -150870 732.8 2931.81 1442.14 -4436.61 -7.41367 
213 1 4.52847 9.6997 2.91205 6.00357 -178227 -126860 4778.05 -24763.1 30935.5 -8305.73 -7.41532 
214 1 5.20277 8.45208 2.90696 6.01108 -192957 -111019 2025.19 -22453.6 17058.3 -22001.2 -7.41483 
215 1 4.46166 7.24347 2.89826 6.01087 -168415 -135753 -1069.31 -8096.58 21110.3 -9223.2 -7.41444 
216 1 5.13528 5.99562 2.8949 6.01671 -178747 -124597 4671.85 -8383.93 13039.7 -19298.1 -7.41457 
217 1 4.39277 4.78776 2.88792 6.01789 -160672 -142483 -2576.99 2961.26 11315.9 -9362.4 -7.41396 
218 1 5.06602 3.53982 2.88659 6.02251 -166437 -136619 4103.73 -158.734 7863.44 -15969.5 -7.41424 
219 1 4.32259 2.33247 2.88174 6.02239 -155118 -147454 -1360.37 8352.35 3295.34 -9257.53 -7.41378 
220 1 4.99579 1.08458 2.88244 6.02382 -155857 -147049 1735.17 2887.72 2537.22 -12785.2 -7.41397 
282 1 7.35945 9.62222 2.92176 6.0031 -212551 -90811.7 11763.7 -24748.9 17922.6 -30765.7 -7.41592 
283 1 6.61998 8.41259 2.912 6.00082 -185608 -119405 -8602.3 -6293.44 24465 -11119.9 -7.41454 
284 1 7.29373 7.16469 2.90901 6.01098 -195495 -107886 13209.6 -7119.41 16101.8 -28679.3 -7.41556 
285 1 6.55249 5.95602 2.90023 6.00926 -173194 -130759 -9211.38 8520.45 14799.6 -13016.6 -7.41405 
286 1 7.22583 4.70804 2.89902 6.01825 -179445 -124120 10577.9 4466.81 11969 -25411.4 -7.41507 
287 1 6.48324 3.50012 2.89203 6.01584 -162993 -140236 -6312.37 16956.8 5666.55 -14146.4 -7.41389 
288 1 7.1565 2.25221 2.89281 6.01926 -164821 -139002 5512.37 9905.85 6778.16 -21700.3 -7.41457 
289 1 6.41303 1.04478 2.88792 6.01862 -154653 -148385 -1635.68 19846.3 -1866.82 -15085.4 -7.41398 
351 1 8.77659 9.58393 2.92753 5.99189 -204333 -100235 -21111.4 -4032.79 25686.1 -10546.4 -7.41439 
352 1 9.45056 8.33601 2.92524 6.002 -212229 -89067.4 26911.5 -4274.88 17684.4 -36386.1 -7.41698 
353 1 8.71088 7.12633 2.91558 6.00054 -189006 -115415 -20382.1 15511.9 17159.9 -14683.4 -7.41396 
354 1 9.38439 5.87835 2.91467 6.01128 -194535 -108345 22085.9 11708.4 15605.2 -34172.2 -7.41633 
355 1 8.643 4.66962 2.90611 6.00913 -175087 -129044 -15259.9 28241.5 7826.45 -17712 -7.41389 
356 1 9.31637 3.42172 2.90698 6.01433 -177131 -127058 13779.6 20726.5 11473.4 -30839.7 -7.41559 
357 1 8.5737 2.21369 2.90021 6.0133 -162622 -141280 -7426.4 34131.5 -797.19 -20013.6 -7.41409 
358 1 9.24727 0.966025 2.903 6.00954 -159888 -144822 3768.27 23428.6 6310.19 -27022 -7.41489 
1597 2 0.46439 8.61176 6.50098 6.01826 -141713 -161833 10577.2 26130.2 27991.1 2340.8 -7.41507 
1598 2 0.532586 6.15721 6.51341 6.02243 -143922 -159214 4102.9 12839.2 17761 1175.33 -7.41424 
1599 2 0.602427 3.70258 6.52161 6.02617 -146519 -155852 1527.08 4655.56 9033.24 193.496 -7.4138 
1600 2 0.673156 1.24788 6.52556 6.02902 -149485 -152700 1095.65 896.881 2721.75 -786.346 -7.41364 
1601 2 1.42389e-05 -3.84775e-06 6.5262 6.0308 -151073 -151110 1154.75 -36.5879 -0.256857 0.19034 -7.41362 
1662 2 2.55796 9.89888 6.49099 6.011 -123514 -179836 13210.1 34293.6 32888.5 395.97 -7.41556 
1663 2 1.88184 8.65262 6.49977 6.00926 -148717 -155262 -9212.02 22685.1 18672.5 -6307.59 -7.41405 
1664 2 2.62475 7.44508 6.5051 6.01675 -130805 -172483 4671.14 19271.8 23232 -1643.72 -7.41456 
1665 2 1.94996 6.19812 6.51208 6.01788 -149591 -153512 -2577.55 9405.81 13766.2 -5118.37 -7.41396 
1666 2 2.69362 4.99097 6.5155 6.02099 -137935 -164780 795.854 8470.07 13803.4 -3081.23 -7.41399 
1667 2 2.01974 3.74352 6.52028 6.02429 -150189 -152329 505.154 1092.63 8345.42 -4342.13 -7.41381 
1668 2 2.7638 2.53656 6.52163 6.0247 -144668 -157705 105.804 2384.44 6241.26 -4270.54 -7.41373 
1669 2 2.09043 1.28882 6.52426 6.0286 -150754 -151518 1203.24 -2716.05 3467.22 -4137.01 -7.41369 
1670 2 2.83457 0.0819026 6.52361 6.02708 -150983 -151304 862.952 345.459 586.377 -5787.6 -7.4137 
1731 2 3.97555 9.93936 6.488 6.00081 -130458 -174470 -8602.11 25558.7 21862.2 -15627.2 -7.41454 
1732 2 4.71836 8.73177 6.49303 6.01106 -112042 -191920 2024.95 24194.6 27582.8 -3772.19 -7.41483 
1733 2 4.04222 7.48564 6.50174 6.0109 -136904 -167280 -1069.41 10116.8 18542.4 -13670.6 -7.41444 
1734 2 4.78581 6.27843 6.50518 6.0154 -124190 -179262 -2581.55 11081.2 18357.9 -6444.37 -7.41417 
1735 2 4.11099 5.03156 6.51205 6.01984 -142338 -160942 2226.1 -851.899 13405.8 -11700.3 -7.41421 
1736 2 4.85503 3.82456 6.51348 6.01941 -135497 -167403 -3098.68 2302.75 9900.67 -8378.01 -7.41386 
1737 2 4.18111 2.57716 6.51823 6.02548 -146974 -155839 2453.16 -7168.2 8016.9 -10204.4 -7.41398 
1738 2 4.92525 1.3702 6.51758 6.02166 -145907 -156854 -1127.15 -2159.6 3084.12 -10278.6 -7.41383 
1739 2 4.25184 0.122484 6.52028 6.02404 -150920 -151587 827.356 -9517.74 2773.81 -9418.9 -7.41382 
1800 2 6.81383 10.0167 6.47847 6.00612 -88990.5 -215635 -5218.28 27388.3 29582 -4302.26 -7.41492 
1801 2 6.13597 8.77161 6.48795 6.00363 -118251 -186849 4777.49 9813.28 22661.1 -22637.6 -7.41531 
1802 2 6.87946 7.56432 6.49126 6.01072 -105389 -198976 -9879.36 12098.8 21505.7 -8900.47 -7.41424 
1803 2 6.20329 6.31829 6.49967 6.01436 -129075 -175187 7665.85 -4179.56 18988.1 -20412.5 -7.41499 
1804 2 6.94727 5.11121 6.50117 6.01304 -121505 -182341 -9708.2 291.662 12938.3 -12385.4 -7.41393 
1805 2 6.27239 3.86442 6.50787 6.02158 -138560 -165005 6705.97 -13680.5 13752.8 -18171.5 -7.4146 
1806 2 7.01653 2.65739 6.50727 6.01473 -136632 -166837 -6055.48 -7143.29 5284.62 -15255.8 -7.41394 
1807 2 6.34253 1.41005 6.51203 6.02007 -146910 -156239 3175.92 -18684.4 8069.29 -16348.7 -7.41424 
1808 2 7.08651 0.20291 6.5093 6.01626 -150831 -152750 -492.453 -10490.5 -1128.85 -18233.7 -7.41418 
1869 2 8.23163 10.0555 6.47234 5.99714 -95275.6 -209283 15822.2 9082.63 24599.8 -30222.6 -7.41659 
1870 2 8.97491 8.8481 6.47536 6.00845 -84190.8 -220685 -22011.2 11644.9 22348.1 -9382.15 -7.41408 
1871 2 8.29708 7.60309 6.48421 6.00896 -110677 -193397 18063.4 -8316.37 23567 -28659.5 -7.41621 
1872 2 9.04093 6.39589 6.48574 6.00729 -103914 -200552 -20758.2 -3492.48 14438.8 -14825.8 -7.41384 
1873 2 8.36473 5.14992 6.49363 6.01675 -125249 -178497 15519.6 -21621.5 19736.5 -26532.8 -7.41564 
1874 2 9.10883 3.94278 6.4932 6.00636 -123401 -180893 -15042.8 -14509.7 6544.54 -19248 -7.41395 
1875 2 8.43387 2.69606 6.49961 6.01551 -138581 -164997 9493.09 -30301.8 14366.3 -24244.2 -7.41504 
1876 2 9.17785 1.4888 6.49705 6.0069 -142066 -162394 -6347.35 -21172.6 -389.96 -23162.7 -7.41432 
1877 2 8.50376 0.241512 6.50171 6.01449 -150780 -152917 1361.98 -34488.9 8112.49 -22076.9 -7.4145 
420 1 11.6057 9.50989 2.9414 5.99385 -224497 -71610.1 44839.2 -1230.04 17232.7 -40469.9 -7.41874 
421 1 10.8677 8.29914 2.93196 5.9939 -204598 -98683 -36270.4 22034.7 17483.4 -13757.5 -7.41362 
422 1 11.5415 7.05125 2.93154 6.00361 -207851 -91743.7 38455.6 19906.6 17882.9 -39919.3 -7.418 
423 1 10.8015 5.84155 2.92243 6.00293 -188982 -115250 -28917.5 40294 8839.73 -18700.4 -7.41366 
424 1 11.4751 4.59374 2.92341 6.00954 -190258 -112635 27193.1 33842.9 15689.6 -37780.4 -7.41705 
425 1 10.7335 3.38492 2.91549 6.00912 -173867 -130862 -17666 50841.8 -129.404 -22632.1 -7.41403 
426 1 11.4073 2.13732 2.91815 6.003 -171565 -133265 12947.7 40298.6 11751.7 -34447.1 -7.41603 
427 1 10.6645 0.929174 2.91198 6.0097 -158883 -145604 -4375.22 54161.1 -8247.72 -25844.8 -7.41465 
489 1 13.0228 9.47451 2.94723 5.991 -215667 -83895.1 -55595.8 25833.8 15710.5 -10841 -7.41301 
490 1 13.6972 8.22686 2.94742 5.99741 -215074 -77704.9 58005.1 26737.3 18366.5 -41208.9 -7.4199 
491 1 12.9586 7.0162 2.93876 5.99895 -200783 -101567 -46816.1 50321.7 8300.56 -16962.8 -7.41318 
492 1 13.6327 5.76858 2.93989 6.00403 -200043 -98510 44931.9 46645.4 18709.3 -40618.6 -7.41882 
493 1 12.8922 4.5589 2.9318 6.00628 -185533 -118941 -32718.7 66963.7 -319.511 -22123 -7.41372 
494 1 13.5663 3.31145 2.93422 5.99765 -182856 -120121 27209.4 58392.7 16637.8 -38414.1 -7.41754 
495 1 12.8244 2.10256 2.9274 6.00602 -169402 -135587 -15095.7 75029.4 -8743.89 -26393.2 -7.41456 
496 1 13.4988 0.855443 2.93121 5.99182 -163357 -141759 6924.11 61881.6 13054.2 -34886.9 -7.41622 
558 1 15.8518 9.40487 2.9607 5.99433 -213424 -69548.9 78139.1 30064.5 17024.6 -37957.5 -7.42182 
559 1 15.1143 8.19341 2.95315 5.99886 -206442 -91344.7 -66954.3 55630.8 6545.53 -13401.7 -7.41249 
560 1 15.7891 6.94614 2.95445 5.99993 -202854 -88021.1 64824.8 56173.8 20151.4 -38737 -7.42072 
561 1 15.0498 5.73565 2.94697 6.00646 -193455 -108483 -51463.7 79051.6 -1274.05 -18897.5 -7.41315 
562 1 15.7243 4.48847 2.9491 5.99409 -189847 -108256 45250.6 74395.2 20366.2 -37874.9 -7.41928 
563 1 14.9834 3.27883 2.94244 6.00416 -178958 -125127 -30709.4 93387.1 -9585 -23608.6 -7.41417 
564 1 15.6581 2.0319 2.94558 5.98668 -173778 -129165 21224.4 83216.1 18550 -35415 -7.41767 
565 1 14.916 0.82294 2.94025 5.99606 -162543 -141653 -6864.74 98153.9 -17011.4 -27586.9 -7.41548 
627 1 17.269 9.37267 2.96449 6.00236 -203576 -87628.1 -86531.1 54681.4 4289.4 -9201.7 -7.41174 
628 1 17.9448 8.12592 2.96596 5.99866 -196625 -84067.9 84201.9 60187.9 19903.9 -32719 -7.42252 
629 1 17.2062 6.91481 2.95951 6.00765 -194310 -102481 -71424.8 84347.6 -2463.07 -14120.1 -7.41243 
630 1 17.8816 5.66804 2.96135 5.99064 -189440 -100884 64699.3 84930.6 22581 -33020 -7.42105 
631 1 17.1414 4.45777 2.95537 6.00259 -183761 -117372 -49524.4 105514 -10371.7 -18464.5 -7.41355 
632 1 17.8167 3.21113 2.95781 5.98394 -179199 -118930 38961.2 100299 22732.6 -31792.2 -7.41927 
633 1 17.0753 2.00154 2.95284 5.99228 -171082 -131982 -22552.4 116461 -17879 -22235.3 -7.41503 
634 1 17.7508 0.755177 2.9559 5.97917 -164857 -137368 9262.46 105648 20965.6 -29146.4 -7.41735 
695 1 19.423 10.5532 2.97253 6.00836 -191773 -92050.3 -103087 47384.1 2172.87 -5245.31 -7.41106 
697 1 19.362 8.09569 2.96881 6.0098 -186595 -103493 -89836.2 81661.7 -3321.23 -8958.07 -7.41169 
699 1 19.2987 5.63876 2.96526 6.00129 -181109 -114917 -68847.7 109199 -10592.9 -12293 -7.41279 
701 1 19.2338 3.18246 2.96271 5.9906 -174050 -126119 -41075.6 126815 -18084.5 -15249.9 -7.41434 
703 1 19.168 0.726772 2.96163 5.98247 -163954 -137050 -8912.63 133400 -24206.8 -17827.2 -7.41622 
1938 2 11.0723 10.1295 6.45963 6.00745 -64638.4 -239064 -38726.8 10538.4 20790.9 -7689.95 -7.41365 
1939 2 10.3927 8.88556 6.46764 6.00423 -89987.2 -211579 33436.2 -11902.4 25613.9 -34580.6 -7.41781 
1940 2 11.1363 7.67814 6.46917 6.00294 -85725.7 -218038 -36503.6 -8164.51 14037.6 -14735.3 -7.41349 
1941 2 10.4585 6.43311 6.47708 6.00943 -108495 -193425 29475.2 -29739.2 24389.9 -33215.1 -7.41712 
1942 2 11.2025 5.22578 6.47695 5.9988 -107999 -196084 -28770.8 -23509.8 6416.68 -20713.7 -7.41373 
1943 2 10.5263 3.97984 6.48407 6.00798 -126385 -176380 20874 -43037.9 20579.6 -31148.2 -7.41628 
1944 2 11.2702 2.77242 6.48196 5.99741 -130273 -174502 -16841.6 -34245 -720.28 -25824 -7.41428 
1945 2 10.5951 1.52574 6.48784 6.00872 -143172 -160492 9060.19 -51262.8 15078.5 -28645.6 -7.41542 
1946 2 11.3387 0.318051 6.48367 5.99882 -151648 -153687 -2345.2 -40053.6 -6757.46 -30374.6 -7.41508 
2007 2 12.4903 10.1656 6.45213 5.99909 -71183.1 -224831 52288.5 -13657.5 24350.3 -37066.5 -7.41964 
2008 2 13.2333 8.95788 6.45367 6.00103 -71051.5 -229724 -55719.9 -12306 12094.3 -12336.5 -7.4129 
2009 2 12.554 7.71374 6.46043 6.0027 -91417.9 -205622 47647.7 -36075 26339.5 -36621.3 -7.41893 
2010 2 13.2976 6.50611 6.46072 5.99414 -93698.7 -208044 -46733.8 -32315.6 5102.88 -19202 -7.41324 
2011 2 12.62 5.26099 6.46741 5.99953 -112331 -186730 37117.6 -54678.7 25183.8 -35177.1 -7.41792 
2012 2 13.3637 4.05332 6.46602 5.99014 -117745 -185695 -32190.6 -48041.1 -2057.5 -25176.7 -7.41396 
2013 2 12.6876 2.80736 6.4721 5.99921 -132843 -168930 21968.6 -68005.1 21545.9 -32890.8 -7.41676 
2014 2 13.4311 1.59947 6.46884 5.98935 -141533 -163508 -13632.1 -58114.1 -8227.09 -30399.7 -7.41499 
2015 2 12.7559 0.352848 6.47392 6.00181 -151990 -151993 3882.25 -75048.7 15968.5 -29944.6 -7.41561 
2076 2 15.3318 10.2354 6.44078 6.00311 -63514.3 -231827 -75874 -14207.7 9315.11 -8690.81 -7.41217 
2077 2 14.6512 8.99198 6.44568 5.99811 -78009.7 -210823 67791.8 -38785.4 25097.1 -36148.4 -7.42087 
2078 2 15.3941 7.7839 6.44647 5.9937 -84099 -212822 -66914.5 -38911.1 3278.04 -15498.9 -7.41254 
2079 2 14.7153 6.5395 6.4518 5.99274 -99734.3 -192481 56556.6 -62754.2 27073.7 -35316.2 -7.4198 
2080 2 15.4585 5.33146 6.45132 5.98676 -107571 -192236 -51165.2 -59990 -3740.78 -21559.1 -7.41336 
2081 2 14.7812 4.0862 6.4566 5.9905 -122177 -174772 39240.6 -81748.6 26129.5 -33507.8 -7.41844 
2082 2 15.5245 2.87802 6.45455 5.98316 -131653 -171191 -29769.2 -75186.2 -10214.4 -26947 -7.41456 
2083 2 14.8484 1.63206 6.45939 5.99155 -143622 -157907 17356.4 -93984.2 22666.1 -30890.4 -7.41695 
2084 2 15.5913 0.423578 6.45566 5.9831 -154199 -150094 -4739.97 -83229.8 -15189.2 -31647.3 -7.41604 
2145 2 16.7498 10.2683 6.43398 5.99708 -71649.4 -206817 87220.5 -36719 21100.6 -32085.9 -7.4227 
2146 2 17.4917 9.05967 6.43526 5.99719 -81999.4 -208201 -86516.3 -41346.6 1576.77 -10886.1 -7.41178 
2147 2 16.8119 7.81579 6.43881 5.98929 -91849.9 -190664 76640.5 -65369.3 26059.7 -31611.4 -7.4217 
2148 2 17.5544 6.60723 6.43929 5.98821 -102574 -191493 -71274 -67801.5 -4962.21 -16241.9 -7.41259 
2149 2 16.8761 5.36253 6.44316 5.98454 -114152 -175236 58829.1 -90040.2 28045.6 -30231.2 -7.42027 
2150 2 17.619 4.15397 6.44245 5.98155 -124889 -173807 -48969.9 -88520.5 -11769 -21082.6 -7.41385 
2151 2 16.9419 2.90857 6.4463 5.98333 -135949 -160560 34812.8 -107857 27187 -28130.4 -7.41857 
2152 2 17.6847 1.69984 6.44416 5.97845 -146435 -155618 -21195.5 -101448 -17330.3 -25447.6 -7.41549 
2153 2 17.0085 0.45389 6.44771 5.98584 -155229 -146215 6674.99 -116998 23705.1 -25452.1 -7.41676 
2215 2 18.9096 9.09055 6.42909 5.9902 -91162.6 -180589 94845.1 -61730.5 22685.1 -24815.1 -7.42341 
2217 2 18.9721 6.63698 6.43276 5.98274 -111165 -168792 78197.1 -91356.4 27354.7 -23673.5 -7.42204 
2219 2 19.0364 4.18291 6.43587 5.97871 -131607 -157994 54083.6 -114674 29085.4 -22027.6 -7.42027 
2221 2 19.1019 1.72833 6.43785 5.97852 -149816 -147468 24068.7 -129109 27989.8 -20067.2 -7.41827 
696 1 20.0999 9.30714 2.97413 5.99998 -181504 -88413 100771 57678.9 18065 -23708.1 -7.42405 
698 1 20.0383 6.84946 2.97037 5.99 -180360 -100318 83012.4 88156.8 23140.3 -24797.8 -7.42266 
700 1 19.9747 4.39251 2.96704 5.98205 -177182 -113928 57742.9 110220 25325.7 -24687.8 -7.42084 
702 1 19.9098 1.93633 2.96481 5.97769 -170140 -128259 26605.6 121900 25183.1 -23290 -7.41877 
764 1 22.2551 10.4889 2.97913 6.00378 -158733 -101668 112918 49071 14934.3 -12875.4 -7.42516 
765 1 21.5173 9.27743 2.97491 6.0135 -170643 -112567 -104565 71494.9 -3499.15 -4236.08 -7.41106 
766 1 22.1948 8.03185 2.97617 5.99109 -163103 -107852 98107.9 83502.6 22120.8 -14337.2 -7.42394 
767 1 21.4556 6.82099 2.97195 6.00156 -170315 -119613 -86080.9 103874 -9899.63 -6191.63 -7.41205 
768 1 22.1324 5.57523 2.97312 5.9811 -166839 -115954 75150.4 111476 26273.7 -15078.3 -7.42222 
769 1 21.3919 4.36493 2.96948 5.98999 -169556 -126326 -59722.8 127767 -17228.5 -7939.67 -7.41352 
770 1 22.0684 3.11912 2.97071 5.97557 -167805 -125137 44901.9 129760 27729.5 -14848.5 -7.42014 
771 1 21.3269 1.90926 2.96806 5.98146 -166619 -132617 -27100.3 140766 -23714.7 -9464.3 -7.41542 
772 1 22.0034 0.663508 2.96939 5.9745 -164095 -134370 9789.42 137144 26798.7 -13693.1 -7.41787 
833 1 23.6727 10.4591 2.9781 6.01627 -147856 -129742 -114250 54975.9 -2838.59 -537.903 -7.41062 
834 1 24.3515 9.21429 2.97902 5.99328 -139326 -123454 108465 71592 19832 -2712.83 -7.4248 
835 1 23.6122 8.00353 2.97565 6.002 -152137 -131872 -99291.6 90255.3 -8161.93 -902.64 -7.41143 
836 1 24.2901 6.75835 2.9762 5.98237 -149084 -125631 89151.2 103786 25731.6 -3932.21 -7.42328 
837 1 23.5497 5.54805 2.97323 5.98997 -157320 -133661 -76042 119031 -15107.7 -1229.28 -7.41273 
838 1 24.2269 4.30262 2.97364 5.97563 -157533 -129094 61761.4 127989 28701.9 -4638.76 -7.42131 
839 1 23.4856 3.09268 2.97152 5.98141 -161619 -134959 -45250.6 138163 -21910.9 -1468.75 -7.41452 
840 1 24.1624 1.84712 2.97189 5.97351 -162289 -132915 27900.5 141873 29014.8 -4684.17 -7.41906 
841 1 23.4206 0.637394 2.97092 5.97621 -162839 -135588 -9413.19 146207 -26948 -1633.9 -7.41667 
902 1 26.5087 10.3958 2.97927 5.99699 -112136 -146775 112943 53969.1 16832.7 8962.55 -7.42513 
903 1 25.7691 9.18545 2.97667 6.0033 -128318 -151715 -107148 69829.7 -5367.51 3000.59 -7.411 
904 1 26.4482 7.9409 2.97655 5.98568 -125844 -142802 98126.9 88195.6 24072.2 7745.06 -7.4239 
905 1 25.7076 6.73085 2.97421 5.99117 -138537 -148367 -88122.3 101721 -11678.6 4255.68 -7.41207 
906 1 26.3856 5.48586 2.97377 5.9781 -140419 -140317 75052.1 116804 28362 6500.43 -7.42215 
907 1 25.6442 4.27608 2.97216 5.98203 -149290 -144384 -60968.3 125797 -18626.3 5439.21 -7.41363 
908 1 26.3214 3.03076 2.97157 5.97487 -152844 -138456 44527.9 136542 29788.1 5509.59 -7.42004 
909 1 25.5796 1.82112 2.97104 5.97642 -158265 -139655 -27273.2 139812 -24397.1 6596.28 -7.41563 
910 1 26.2564 0.575586 2.97038 5.97509 -161040 -136551 8997.39 145593 28494.2 4814.12 -7.41776 
971 1 27.9265 10.3659 2.97543 6.00558 -101772 -178071 -108672 45147.9 -1504.77 4959.03 -7.41085 
972 1 28.6068 9.12202 2.97452 5.99004 -100780 -166569 100812 66997.5 21890.5 18749.8 -7.424 
973 1 27.8658 7.9124 2.97273 5.99402 -115263 -169758 -94520.7 77852 -6984.74 7977.24 -7.41163 
974 1 28.5447 6.66791 2.97131 5.98179 -119043 -158128 82983.3 97755.7 27141.3 17514.6 -7.42256 
975 1 27.803 5.45849 2.97017 5.98467 -131087 -160573 -72239.9 105112 -13814.9 10716.4 -7.4129 
976 1 28.4808 4.21347 2.96851 5.97696 -137341 -150620 57383.6 121782 29449.8 16024.1 -7.4207 
977 1 27.7387 3.00412 2.96841 5.978 -146682 -150613 -42624.1 123957 -20210.2 13282.7 -7.41463 
978 1 28.4157 1.75868 2.96668 5.97607 -152801 -143400 25591.9 136514 28926 14468.8 -7.41858 
979 1 27.6736 0.549257 2.96782 5.97495 -159599 -140035 -8111.42 132854 -24721.4 15625.3 -7.41672 
2214 2 19.5901 10.3342 6.42733 6.00337 -88667 -194254 -103086 -38656.7 323.286 -6421.58 -7.41108 
2216 2 19.6511 7.88135 6.43047 5.99276 -104653 -182661 -89778.3 -69735.9 -5268.04 -10547.2 -7.4118 
2218 2 19.7142 5.42791 6.43336 5.98447 -123221 -169925 -68564.7 -95952 -12102.5 -14281.4 -7.413 
2220 2 19.7788 2.97383 6.43533 5.97866 -141922 -156416 -40305.1 -114184 -18435.6 -17731.8 -7.41465 
2222 2 19.8442 0.519098 6.436 5.97617 -158258 -142432 -7372.76 -123091 -22922 -20837.4 -7.41663 
2283 2 21.008 10.3646 6.42263 5.99576 -98616.7 -163182 109245 -51877.9 17702.5 -15914.2 -7.42476 
2284 2 21.7482 9.15468 6.42478 6.00064 -114528 -166614 -104556 -65012 -4612.77 -5389.47 -7.41111 
2285 2 21.0688 7.9104 6.42559 5.98572 -114707 -155785 95037.8 -85254.9 24621.2 -14832.6 -7.42356 
2286 2 21.8099 6.70071 6.42737 5.98942 -127975 -159615 -85980.3 -96057 -10948.3 -7717.9 -7.41215 
2287 2 21.1317 5.45587 6.42855 5.97868 -132081 -149612 72702.3 -113458 28613.7 -13471.7 -7.42186 
2288 2 21.8735 4.24636 6.42951 5.98124 -142345 -151760 -59389.4 -119688 -17818.8 -9879.03 -7.41369 
2289 2 21.1961 3.0011 6.43084 5.97538 -147829 -144006 43072.2 -133133 29715.3 -12105.3 -7.41981 
2290 2 21.9382 1.79163 6.43067 5.97583 -155186 -143236 -26376.7 -133708 -23445.9 -11922.6 -7.41565 
2291 2 21.2614 0.546068 6.43204 5.97627 -159697 -138437 8547.47 -142496 28047.7 -10808.4 -7.41759 
2352 2 23.8453 10.4282 6.42185 6.01194 -131904 -145170 -114251 -53547.5 -3100.68 -1368.99 -7.41062 
2353 2 23.1659 9.18371 6.42142 5.99148 -125322 -137443 107626 -72027.9 20476.3 -4719.14 -7.4247 
2354 2 23.9058 7.9733 6.42422 5.9984 -139471 -143882 -99280.2 -88326.6 -8441.81 -2130.76 -7.41144 
2355 2 23.2274 6.7284 6.42422 5.98141 -138318 -136010 88463.3 -104183 26336.7 -3455.52 -7.42319 
2356 2 23.9683 5.51835 6.42655 5.98719 -148416 -142006 -75988 -116968 -15327.4 -2826.35 -7.41276 
2357 2 23.2908 4.27311 6.42676 5.97561 -150494 -135734 61222 -128669 29257.2 -2454.1 -7.42122 
2358 2 24.0323 3.06332 6.42819 5.97949 -156725 -139391 -45114.8 -136192 -21960.9 -3529.58 -7.41457 
2359 2 23.3554 1.81785 6.42847 5.97426 -159211 -135765 27507.6 -142930 29436.4 -1882.85 -7.41898 
2360 2 24.0973 0.608172 6.42874 5.97523 -161901 -136400 -9159.34 -144564 -26753.3 -4216.03 -7.41673 
2421 2 25.263 10.4578 6.41987 6.0015 -142760 -115797 114772 -52589.4 15462.4 5688.66 -7.42533 
2422 2 26.0013 9.24662 6.4235 6.01121 -156903 -124485 -107152 -73093.8 -4811.73 1937.79 -7.41098 
2423 2 25.3232 8.00143 6.42258 5.98835 -150470 -118615 99658.1 -87355.7 22828.2 7077.82 -7.42409 
2424 2 26.0629 6.79078 6.42614 5.99754 -160133 -128195 -88176.7 -105751 -11153.4 2824.47 -7.41202 
2425 2 25.3856 5.54533 6.42542 5.97913 -158102 -123263 76277.7 -115889 27188.5 7988.7 -7.42234 
2426 2 26.1264 4.33514 6.42835 5.98676 -163232 -131371 -61147 -129933 -18330.7 3601.07 -7.41355 
2427 2 25.4496 3.08954 6.42767 5.97427 -163096 -128824 45452.7 -134789 28786.6 8156.4 -7.42021 
2428 2 26.1911 1.87969 6.42959 5.9794 -164144 -134271 -27652.5 -143376 -24533.8 4241.98 -7.41552 
2429 2 25.5145 0.63407 6.42891 5.97397 -163219 -134420 9636.24 -142866 27863 7601.52 -7.4179 
2490 2 28.0964 10.5215 6.42475 6.01521 -178426 -102864 -108671 -51767.1 -183.511 3949.82 -7.41083 
2491 2 27.4188 9.27583 6.42323 5.99826 -167933 -98662.5 105039 -64227.2 18615.5 17160.6 -7.42447 
2492 2 28.1571 8.06454 6.42786 6.00853 -176273 -111440 -94568.4 -86811.7 -5585.63 6565.49 -7.41155 
2493 2 27.4802 6.81868 6.42652 5.98709 -170506 -107531 86432.7 -95633.3 24112.2 18283.7 -7.42302 
2494 2 28.22 5.60805 6.43087 5.99759 -174133 -119990 -72472.6 -115128 -12724.4 8922.5 -7.41274 
2495 2 27.5436 4.3621 6.42946 5.97895 -171219 -118097 60040.1 -118640 26708.7 18421.4 -7.42112 
2496 2 28.2846 3.15203 6.43302 5.98709 -170518 -128251 -43235.4 -133418 -19960.9 11012.6 -7.4144 
2497 2 27.6083 1.90613 6.43145 5.97531 -167874 -129123 27476.7 -131178 26862.8 17464.9 -7.41895 
2498 2 28.35 0.69647 6.43387 5.97944 -163849 -136004 -9291.68 -140590 -25671.2 12836.8 -7.41641 
1040 1 30.766 10.301 2.9707 5.99534 -77878.4 -194119 96313.9 43033.7 19861.8 27724.8 -7.42354 
1041 1 30.0246 9.09196 2.96924 5.99732 -90937.2 -195534 -94196.1 50426.2 -1103.01 9425.56 -7.4115 
1042 1 30.7044 7.84801 2.9667 5.98685 -97334.6 -180306 84232.8 73573.6 25627.7 27042.4 -7.42245 
1043 1 29.9623 6.63907 2.96587 5.98808 -109692 -181710 -77507.6 78706.1 -7552.67 13845.6 -7.41241 
1044 1 30.6407 5.39439 2.96297 5.98142 -118748 -167658 64546.6 99709.5 28461.9 25624.7 -7.42091 
1045 1 29.8982 4.1855 2.96318 5.98113 -130003 -167041 -53343.1 100600 -14346.5 17876.8 -7.4138 
1046 1 30.5755 2.9402 2.96022 5.97959 -139303 -155594 38199.6 118464 28411.7 23693 -7.41907 
1047 1 29.8329 1.7312 2.96173 5.97712 -149143 -151727 -23296.9 114128 -19860.2 21562.4 -7.41558 
1048 1 30.5094 0.48542 2.9589 5.9817 -156812 -143642 7399.34 127982 25632.8 21374.7 -7.41709 
1109 1 32.184 10.2691 2.96449 6.00232 -69116.7 -222062 -86532.6 22825 5824.5 8314.71 -7.41174 
1110 1 32.8647 9.02565 2.9607 5.9943 -79458.9 -203478 78140.5 47404.5 24359.4 33722.2 -7.42182 
1111 1 32.1222 7.81723 2.95985 5.99272 -88707.6 -204852 -75819.5 49866.9 -46.0544 14407.3 -7.41225 
1112 1 32.8012 6.57291 2.95557 5.98832 -101257 -186608 64817.4 73454 27360.4 32830.4 -7.42064 
1113 1 32.0583 5.36454 2.95582 5.98497 -111285 -186334 -57885 72837.5 -6966.55 19872.5 -7.41323 
1114 1 32.7358 4.11942 2.95145 5.98564 -123917 -170580 44900 94144.8 27425.6 31049.7 -7.41912 
1115 1 31.9928 2.91094 2.9531 5.98047 -134373 -167265 -33774.8 89260.9 -13329 24794.8 -7.41461 
1116 1 32.6693 1.66517 2.94898 5.9864 -145133 -155199 19917.5 107387 24815.1 28551.3 -7.41744 
1117 1 31.9266 0.456425 2.95218 5.97964 -155609 -147898 -5640.66 97775 -18044.4 29121 -7.41629 
1178 1 35.0254 10.2007 2.95445 5.99994 -68152.5 -222761 64826.2 21736.8 23470.9 36820 -7.42072 
1179 1 34.2826 8.9927 2.95315 5.99881 -71822.9 -225919 -66956.1 21939.4 8333.19 12368.9 -7.41249 
1180 1 34.9622 7.74873 2.94742 5.99739 -88825.9 -203792 58006.4 46261.5 26504 36510.5 -7.41991 
1181 1 34.2189 6.54084 2.94723 5.99096 -94356.5 -205092 -55597.4 44076.2 1532.39 19025.8 -7.41301 
1182 1 34.8968 5.29591 2.9414 5.99384 -110832 -185057 44839.6 66980.5 26431 35158.7 -7.41874 
1183 1 34.1533 4.08797 2.94273 5.98616 -118695 -183448 -38174.5 61602.2 -5451.46 24905.6 -7.41394 
1184 1 34.8299 2.84223 2.93726 5.99338 -132797 -167542 26530.2 81929.9 23703.6 32902.3 -7.41739 
1185 1 34.0866 1.63407 2.94032 5.98466 -142571 -161904 -16256.6 72740.6 -11349.9 30084.7 -7.41519 
1186 1 34.7621 0.387693 2.93558 5.99611 -152891 -150703 4890.1 89843.4 18751.9 29907.1 -7.41601 
1247 1 36.4434 10.1656 2.94697 6.00648 -61214.7 -240648 -51463.9 -2827.66 17002.4 8345.12 -7.41315 
1248 1 37.1234 8.92194 2.93989 6.00403 -83558.6 -214986 44932.3 20695.7 25821.9 36512.8 -7.41882 
1249 1 36.38 7.71437 2.93876 5.99894 -82606.3 -219630 -46817.8 17641.5 10539.5 15669.8 -7.41318 
1250 1 37.0582 6.46961 2.93154 6.00362 -103435 -195903 38457.1 40462.3 25629.3 35447.4 -7.418 
1251 1 36.3144 5.2621 2.93197 5.99385 -105848 -197138 -36271.7 34771.5 3171.4 22020 -7.41361 
1252 1 36.991 4.01642 2.92524 6.00199 -123506 -177603 26911.1 55553.9 22668.8 33508.3 -7.41698 
1253 1 36.2472 2.80878 2.92753 5.99187 -129693 -174780 -21111.3 46984.2 -3710.18 27518.5 -7.41439 
1254 1 36.9227 1.56234 2.92176 6.00312 -142679 -160602 11763.5 65078 17682.5 30904.9 -7.41592 
1255 1 36.1793 0.354408 2.92602 5.99296 -152317 -153159 -3073.35 53583.6 -9393.73 32332.2 -7.41542 
1317 1 38.5412 8.88554 2.9318 6.00631 -77539.2 -226838 -32719.3 -4770.98 19318.8 10785.4 -7.41372 
1319 1 38.4758 6.43359 2.92243 6.00296 -98645.2 -205500 -28918.8 11662.8 11775.1 17005.1 -7.41366 
1320 1 39.1525 5.18793 2.91467 6.01128 -119800 -182998 22085.7 31636.1 21791.8 30600.6 -7.41633 
1321 1 38.4084 3.98067 2.91558 6.00054 -120186 -184004 -20383.2 24067.4 4135.3 22202.8 -7.41396 
1322 1 39.0838 2.73419 2.90901 6.01098 -135889 -167341 13209.1 41566.3 16785.9 28284.6 -7.41556 
1323 1 38.34 1.52676 2.91201 6.00085 -141319 -163584 -8602.66 31744.5 -2603.16 26747.7 -7.41454 
1324 1 39.0144 0.279681 2.90697 6.01109 -151023 -153016 2026.08 46655.5 10525.1 25774.3 -7.41483 
2559 2 29.5137 10.5522 6.42564 6.0002 -189124 -78193.6 103671 -36917.5 14220 25777.4 -7.42425 
2560 2 30.2507 9.34031 6.43115 6.00748 -194577 -93692.6 -94213.5 -62079.5 1107.8 7934.86 -7.41144 
2561 2 29.5744 8.09394 6.42959 5.9958 -186734 -90219.6 90363.5 -69626.9 20619.6 27393.1 -7.42315 
2562 2 30.313 6.88283 6.43526 6.00777 -187870 -106573 -77654.6 -92997.4 -5497.58 11953.4 -7.41225 
2563 2 29.6372 5.63641 6.43352 5.98748 -182968 -104678 69355.6 -95728.9 23917 27844.7 -7.42158 
2564 2 30.3774 4.42606 6.43869 5.99818 -180121 -119281 -53863.7 -115324 -13194.6 15531.7 -7.41352 
2565 2 29.7017 3.17971 6.43656 5.98103 -176054 -120183 41669.2 -112207 24641.8 26920.9 -7.41966 
2566 2 30.4431 1.96998 6.44074 5.98793 -170181 -131629 -24515.3 -127132 -20346.3 18667 -7.41518 
2567 2 29.7672 0.723857 6.4382 5.97701 -164881 -136046 9631.23 -118259 23290 24707.4 -7.4176 
2629 2 31.6679 9.37155 6.43398 5.99705 -204821 -73574.4 87222.9 -40221.7 17236.7 34315.4 -7.4227 
2630 2 32.4055 8.16 6.44078 6.00308 -202122 -93251.7 -75875.2 -65730.3 2868.69 12412.5 -7.41217 
2631 2 31.7302 6.91305 6.43923 5.99611 -196926 -90403.8 72118.5 -68018 21105.6 35275.3 -7.42149 
2632 2 32.4695 5.70242 6.44592 6.00831 -191081 -109116 -58192.8 -90811.9 -4740.6 17395.4 -7.413 
2633 2 31.7945 4.45555 6.44376 5.98972 -186742 -109021 50284.5 -87656 22074.9 34695.7 -7.41991 
2634 2 32.5354 3.24571 6.44968 5.9993 -178373 -124659 -34696.6 -106414 -12779 21732 -7.41422 
2635 2 31.8602 1.99905 6.44676 5.98268 -173138 -128373 23463.2 -97493.5 20926.1 32555.1 -7.41812 
2636 2 32.6022 0.789854 6.45144 5.99094 -163323 -139958 -7648.83 -111787 -19789.5 25441.2 -7.41575 
2698 2 34.4974 9.43971 6.44646 5.99367 -214247 -82514.8 -66916.5 -36139.6 11783.8 10588.4 -7.41254 
2699 2 33.8226 8.1923 6.44568 5.9981 -211178 -77655.5 67793.9 -38187.4 18756 39808.7 -7.42087 
2700 2 34.5611 6.98142 6.45367 6.00104 -200761 -99989.1 -55721.8 -62461.2 4636.26 16641.9 -7.4129 
2701 2 33.8866 5.73404 6.45213 5.99907 -198214 -97750.4 52288.8 -59837.2 19925.6 39620.6 -7.41964 
2702 2 34.6269 4.5241 6.45963 6.00744 -186456 -117261 -38727.1 -80754.3 -3737.04 21850.3 -7.41365 