ITEM: TIMESTEP
0
ITEM: NUMBER OF ATOMS
3176
ITEM: BOX BOUNDS pp pp pp
0.0000000000000000e+00 4.8935453299999999e+01
0.0000000000000000e+00 8.4758691400000004e+01
0.0000000000000000e+00 1.5000000000000000e+01
ITEM: ATOMS id type x y z c_csym c_2[1] c_2[2] c_2[3] c_2[4] c_2[5] c_2[6] c_3 
74 1 0.247 9.821 3 6.02132 -111587 -184791 -97697.2 16950.9 54551.3 -2126.48 -7.41351 
75 1 0.924 8.576 3 6.01789 -150048 -160383 -140333 13387.4 32079.7 -7827.45 -7.41167 
76 1 0.185 7.366 3 6.02358 -142351 -128207 -127047 -10845.5 40119.1 -1865.08 -7.41207 
77 1 0.863 6.12 3 6.02659 -170563 -94110.1 -147864 1156.41 23806.9 -7023.36 -7.41093 
78 1 0.123 4.91 3 6.02227 -135205 -141825 -146234 13269.9 24568.8 -1401.18 -7.41156 
79 1 0.801 3.665 3 6.02489 -126988 -151566 -154044 -4541.47 14328.7 -5427.13 -7.41058 
80 1 0.062 2.455 3 6.02592 -143324 -158928 -156264 75.5145 11026 -885.31 -7.41069 
81 1 0.74 1.21 3 6.02194 -161833 -133459 -158219 13248.6 4678.25 -3612.1 -7.41091 
82 1 0 0 3 6.02694 -132952 -113064 -159067 2419.53 -1.789 -20.5287 -7.41039 
144 1 3.082 9.75 3 6.02196 -184864 -130952 -128167 12641.4 34689.9 -21972.5 -7.41219 
145 1 2.342 8.54 3 6.02658 -113862 -152765 -115162 18541.2 46295.2 -8033.7 -7.4124 
146 1 3.02 7.295 3 6.02283 -177567 -130336 -136452 13638.2 28838.7 -20674.6 -7.41197 
147 1 2.28 6.085 3 6.02659 -154640 -110549 -138131 6190.78 30895.3 -8534.66 -7.41145 
148 1 2.958 4.839 3 6.02479 -126571 -115985 -145078 -16611.1 19852.4 -18123.7 -7.41071 
149 1 2.219 3.629 3 6.02393 -116930 -159344 -151695 3972.01 16068.1 -8849.89 -7.41108 
150 1 2.897 2.384 3 6.02606 -163148 -136161 -152118 9712.71 10051.6 -14767.3 -7.41105 
151 1 2.157 1.174 3 6.02513 -160112 -152623 -156871 22564.3 3848.26 -8931.46 -7.41062 
213 1 4.499 9.714 3 6.02479 -163610 -155489 -103497 23046 50539.3 -12380 -7.41333 
214 1 5.177 8.469 3 6.02527 -131078 -137191 -115402 9662.89 32986.1 -34230.3 -7.41255 
215 1 4.437 7.259 3 6.02327 -159421 -151417 -129307 23751.2 36550.3 -14882.1 -7.4122 
216 1 5.115 6.014 3 6.02258 -130999 -152391 -126549 -1498.42 26217.7 -31763 -7.41256 
217 1 4.376 4.804 3 6.02479 -114660 -130146 -144635 -5322.58 21449.9 -16557.4 -7.41071 
218 1 5.054 3.558 3 6.02659 -163118 -101137 -137720 -3122.03 16827.9 -27975.1 -7.41149 
219 1 4.314 2.348 3 6.02131 -157470 -141283 -151635 22576.5 7570.08 -17827.6 -7.4114 
220 1 4.992 1.103 3 6.02659 -124028 -169967 -146348 -14407.8 6377.08 -23636.8 -7.41101 
282 1 7.334 9.643 3 6.02582 -142894 -157535 -84642.4 -3659.37 34497 -45021 -7.41416 
283 1 6.595 8.433 3 6.02507 -119853 -174986 -120652 13056.5 40341.4 -18798.2 -7.41241 
284 1 7.273 7.188 3 6.02196 -175770 -139901 -98206.8 11666.3 31207.4 -44430.5 -7.41386 
285 1 6.533 5.978 3 6.02658 -109880 -155315 -137473 24793.4 26000.9 -22996 -7.41136 
286 1 7.211 4.733 3 6.02283 -169635 -139819 -113468 11117.6 23974.8 -41440.2 -7.41323 
287 1 6.471 3.523 3 6.02659 -155468 -112515 -144544 13019.8 11618 -26049.6 -7.41105 
288 1 7.149 2.277 3 6.0238 -120542 -126904 -127504 -21019.1 14317.7 -37135.4 -7.4116 
289 1 6.41 1.067 3 6.02163 -122025 -172953 -143801 15036.8 -1180.83 -28705.2 -7.41145 
351 1 8.752 9.607 3 6.02393 -123285 -174680 -115856 16154.8 40572.3 -18969.3 -7.41278 
352 1 9.43 8.362 3 6.0261 -178294 -143693 -61177.5 11560.8 33216.6 -52955 -7.41582 
353 1 8.69 7.152 3 6.02479 -161186 -158648 -131175 30288.3 28625.6 -26059.7 -7.41178 
354 1 9.368 5.907 3 6.02527 -125229 -147616 -79713.7 9774.92 29448.1 -52346.6 -7.41427 
355 1 8.628 4.697 3 6.02327 -159657 -154907 -137949 29886.8 14656.5 -31761.3 -7.41166 
356 1 9.306 3.452 3 6.02258 -127573 -163401 -99066 -6642.65 21991.5 -49303.7 -7.41381 
357 1 8.567 2.242 3 6.02479 -116984 -134891 -135693 -664.342 1298.53 -36361.5 -7.41106 
358 1 9.245 0.996 3 6.02466 -162218 -124035 -116309 -14341.1 12121.2 -44953.7 -7.41259 
1597 2 0.493 8.611 6.4 6.02679 -120972 -168534 -113536 -9963.5 47895.9 -16.2996 -7.41291 
1598 2 0.555 6.156 6.4 6.02602 -153712 -113648 -137607 11730.6 32621.7 -641.132 -7.41153 
1599 2 0.616 3.701 6.4 6.02099 -121271 -158388 -152200 21057 17816.5 -1245.36 -7.4107 
1600 2 0.678 1.245 6.4 6.02519 -162821 -146445 -158216 -8666.74 5556.83 -2154.64 -7.41094 
1601 2 0 0 6.4 6.02721 -138058 -145903 -159072 -11161.3 19.2405 8.81333 -7.41108 
1662 2 2.589 9.892 6.4 6.02327 -162618 -153020 -98193.5 -8696.91 54103.7 -4849.65 -7.41386 
1663 2 1.911 8.647 6.4 6.02258 -142605 -145888 -137259 -992.828 32969.6 -11072.8 -7.41169 
1664 2 2.65 7.437 6.4 6.02324 -113686 -134723 -126570 19764.5 40661.3 -6748.16 -7.41166 
1665 2 1.972 6.191 6.4 6.02058 -179157 -126339 -144969 17709 24989.8 -10100.1 -7.41137 
1666 2 2.712 4.982 6.4 6.02213 -161404 -141660 -145188 21678.4 25540.4 -8238.89 -7.41141 
1667 2 2.034 3.736 6.4 6.02396 -121571 -118119 -151536 11181.3 15716.3 -9522.21 -7.41038 
1668 2 2.773 2.526 6.4 6.02105 -114450 -159243 -154177 3425.3 11897 -9602.63 -7.41116 
1669 2 2.095 1.281 6.4 6.02177 -163124 -134351 -156203 -15695.1 6253.29 -9076.67 -7.41086 
1670 2 2.835 0.071 6.4 6.02547 -104414 -118709 -155866 3688.78 239.38 -11746.2 -7.41024 
1731 2 4.006 9.928 6.4 6.02283 -185379 -130571 -120744 -15038.1 36471.3 -25511.3 -7.41274 
1732 2 4.746 8.718 6.4 6.02658 -155387 -119860 -115322 8678.1 46142.1 -11475.7 -7.41259 
1733 2 4.068 7.472 6.4 6.02283 -142915 -147495 -129139 31165.3 31196 -24191 -7.41181 
1734 2 4.807 6.263 6.4 6.02283 -122812 -165912 -136568 41522.4 32316.1 -14553.9 -7.41141 
1735 2 4.129 5.017 6.4 6.02658 -165078 -100100 -138249 -3240.08 22973 -22397.9 -7.41146 
1736 2 4.869 3.807 6.4 6.02283 -156903 -146344 -147592 -6525.48 17998.9 -17247 -7.4114 
1737 2 4.191 2.562 6.4 6.02658 -114740 -139615 -146157 -15279.9 13553.6 -20627.7 -7.41103 
1738 2 4.931 1.352 6.4 6.02332 -157178 -144988 -150281 -6537.27 4926.11 -20038.9 -7.41111 
1739 2 4.253 0.107 6.4 6.02335 -120784 -167695 -151339 -788.637 3764.27 -19018.6 -7.41121 
1800 2 6.841 9.999 6.4 6.02527 -117237 -141234 -105911 26919.3 47500.3 -13240.7 -7.41288 
1801 2 6.163 8.753 6.4 6.02213 -185811 -131564 -103497 16057.1 36011.3 -37585.8 -7.41354 
1802 2 6.903 7.544 6.4 6.02213 -164173 -151753 -127947 30060.5 36385.2 -19012.8 -7.41218 
1803 2 6.225 6.298 6.4 6.02396 -128781 -122315 -115001 12266.4 30108.8 -36080.4 -7.41228 
1804 2 6.964 5.088 6.4 6.02258 -118126 -169541 -140440 13391.4 22865.1 -23728.9 -7.41154 
1805 2 6.286 3.843 6.4 6.02327 -167371 -139740 -127118 -18317.2 21651.5 -33839.2 -7.41238 
1806 2 7.026 2.633 6.4 6.02658 -110850 -152308 -143109 -1747.39 9177.67 -28098 -7.41088 
1807 2 6.348 1.388 6.4 6.02283 -162458 -141590 -137227 -22233.8 12089.3 -31288.4 -7.41195 
1808 2 7.088 0.178 6.4 6.02663 -158866 -121406 -138180 2303.12 -3225.06 -32406.7 -7.41145 
1869 2 8.259 10.034 6.4 6.02283 -147390 -155263 -69782.5 32015.2 37342.8 -47470.9 -7.41494 
1870 2 8.998 8.825 6.4 6.02283 -125486 -174816 -122174 48114.9 36447.1 -19900 -7.41207 
1871 2 8.32 7.579 6.4 6.02658 -171498 -107247 -82437.3 -2382.94 35109.2 -47566.9 -7.41438 
1872 2 9.06 6.369 6.4 6.02283 -159057 -155425 -134299 1323.69 24939.7 -27447.1 -7.41218 
1873 2 8.382 5.124 6.4 6.02582 -131683 -160143 -97764.5 -1702.01 29027.4 -46121.2 -7.41373 
1874 2 9.121 3.914 6.4 6.02299 -125375 -189522 -136470 3556.71 11955.6 -33768.8 -7.41173 
1875 2 8.444 2.669 6.4 6.0205 -132433 -176070 -113553 -20538.8 20631.6 -43534.1 -7.41343 
1876 2 9.183 1.459 6.4 6.02612 -116097 -134177 -129626 26584.2 -740.608 -39569.3 -7.41174 
1877 2 8.505 0.213 6.4 6.02466 -161708 -122259 -126898 -5541.36 10390.8 -40237.6 -7.41202 
420 1 11.587 9.536 3 6.02658 -172880 -113523 -20041.6 606.308 31313.5 -55578.3 -7.4177 
421 1 10.847 8.326 3 6.02283 -161827 -156207 -128644 33775.7 28000.6 -24717.5 -7.41246 
422 1 11.525 7.081 3 6.02582 -135050 -166100 -39123.8 -4110.42 31874.1 -57712 -7.41685 
423 1 10.786 5.871 3 6.02299 -127666 -191934 -132981 30108.5 15959.8 -32852.3 -7.41186 
424 1 11.463 4.626 3 6.02299 -136766 -184516 -62107.1 6565.8 27714.8 -57203.9 -7.41578 
425 1 10.724 3.416 3 6.02582 -122205 -173512 -128767 14719.2 2913.52 -39873.8 -7.41195 
426 1 11.402 2.171 3 6.02283 -165976 -150967 -85692.7 6369.82 20279.2 -54184.9 -7.41483 
427 1 10.662 0.961 3 6.02663 -160259 -128362 -117318 18639.5 -9184.61 -45464.2 -7.41272 
489 1 13.004 9.501 3 6.02213 -166312 -153673 -129788 1806.23 24428.9 -19560.7 -7.41204 
490 1 13.682 8.255 3 6.02396 -129772 -136460 3295.02 -15173.2 30743.5 -56567.4 -7.41859 
491 1 12.943 7.045 3 6.02258 -121576 -175395 -132179 18771.1 14607 -29275.7 -7.41188 
492 1 13.621 5.8 3 6.02327 -171959 -153788 -20369.5 10810 30485.8 -58483.9 -7.41802 
493 1 12.881 4.59 3 6.02527 -114916 -161521 -125124 31534.7 2904.53 -37890.1 -7.41171 
494 1 13.559 3.345 3 6.02479 -169515 -157225 -47960.4 6588.05 26491 -57666.8 -7.41631 
495 1 12.819 2.135 3 6.02608 -165227 -156045 -110195 28743.1 -8676.67 -45153.6 -7.4132 
496 1 13.497 0.89 3 6.02223 -121475 -153047 -76070.6 186.689 19740.3 -54017.6 -7.41455 
558 1 15.839 9.429 3 6.02041 -138710 -166470 43071.4 -31724.9 26758 -49755.6 -7.42119 
559 1 15.1 8.22 3 6.02283 -125516 -171551 -134941 -14395.6 11445.3 -22404.1 -7.4114 
560 1 15.778 6.974 3 6.02658 -168569 -120048 20788.9 -434.006 30320.5 -53333.1 -7.41979 
561 1 15.038 5.764 3 6.02283 -161885 -157327 -125828 33091.3 1231.01 -31482.5 -7.41241 
562 1 15.716 4.519 3 6.02658 -122050 -158961 -8024.49 6813.82 29932.1 -54411.8 -7.41831 
563 1 14.976 3.309 3 6.02196 -163687 -159543 -108186 30341.9 -9381.18 -39388.1 -7.41322 
564 1 15.654 2.064 3 6.02507 -128326 -176138 -40223.9 -8784.11 26390.8 -52690.7 -7.41683 
565 1 14.915 0.854 3 6.02525 -124421 -152573 -82857.6 -71.0979 -18623.9 -45603.1 -7.4139 
627 1 17.257 9.394 3 6.02527 -120653 -171249 -140961 16506.1 7467.85 -14843.8 -7.41116 
628 1 17.935 8.149 3 6.02283 -174679 -150353 56956.5 16255.3 27681 -43383.9 -7.42234 
629 1 17.195 6.939 3 6.02462 -157345 -118630 -130670 16142.5 -1007.61 -22690 -7.41173 
630 1 17.873 5.693 3 6.02479 -129680 -137701 29840.7 -16849.7 30733.6 -45564.7 -7.42004 
631 1 17.134 4.483 3 6.02258 -121122 -173993 -111175 15978.3 -10587.3 -29893.3 -7.41327 
632 1 17.812 3.238 3 6.02327 -171318 -157389 -3717.15 8565.74 30257.7 -45522 -7.41892 
633 1 17.072 2.028 3 6.02641 -116483 -161823 -83440.3 24436.9 -19415.5 -35953.8 -7.41417 
634 1 17.75 0.783 3 6.02434 -171730 -167834 -40208.6 842.07 27097.3 -43183.7 -7.4171 
695 1 19.414 10.568 3 6.02527 -108383 -149365 -147638 20900.8 3800.94 -8095.56 -7.41088 
697 1 19.352 8.113 3 6.0261 -159147 -150071 -137808 23770.3 -2982.85 -13983.2 -7.41173 
699 1 19.291 5.658 3 6.02479 -118407 -136207 -118680 -2954.11 -11600.2 -19485.1 -7.41203 
701 1 19.229 3.202 3 6.02283 -165361 -154446 -89704.7 26020.6 -20118.3 -24188.2 -7.41442 
703 1 19.167 0.747 3 6.02237 -170609 -168478 -54785.8 28765.9 -26756.7 -28221.5 -7.41618 
1938 2 11.094 10.106 6.4 6.02213 -165728 -156332 -120270 33329.9 32614.1 -16907.9 -7.41255 
1939 2 10.416 8.86 6.4 6.02396 -133002 -130689 -43162.9 13908.9 36386.2 -54064.5 -7.41608 
1940 2 11.155 7.65 6.4 6.02393 -119856 -177226 -131165 18425.2 23747.1 -26681.5 -7.41194 
1941 2 10.477 6.405 6.4 6.0261 -174049 -146942 -59981.4 -15460 33902.1 -54252.2 -7.4159 
1942 2 11.217 5.195 6.4 6.0261 -159703 -161812 -131993 4220.29 12171.2 -35355 -7.41171 
1943 2 10.539 3.95 6.4 6.02338 -121827 -148607 -79931.3 -21066.4 27895.6 -52729.9 -7.41462 
1944 2 11.279 2.74 6.4 6.02306 -154616 -124611 -123221 13346 169.472 -42848.7 -7.4121 
1945 2 10.601 1.494 6.4 6.02266 -130185 -166859 -99958.7 22181.4 19312.4 -49781.7 -7.41331 
1946 2 11.34 0.285 6.4 6.02174 -128336 -181425 -106896 40294.5 -10913 -49169.3 -7.41322 
2007 2 12.511 10.141 6.4 6.02658 -172683 -114711 -1979.11 -827.572 33312.3 -54625.2 -7.41868 
2008 2 13.251 8.931 6.4 6.02283 -159599 -157139 -131734 2504.92 19754.2 -22045.3 -7.4123 
2009 2 12.573 7.686 6.4 6.02582 -135598 -169319 -17929.5 1286.15 34873.1 -56318.4 -7.41776 
2010 2 13.312 6.476 6.4 6.02506 -117679 -180692 -131172 18861.8 10215.1 -31970.6 -7.41178 
2011 2 12.634 5.231 6.4 6.02196 -171261 -149687 -39713.4 -20139.1 32260.2 -56332.1 -7.41735 
2012 2 13.374 4.021 6.4 6.0261 -105693 -129640 -120476 17334.1 -677.248 -40908.2 -7.41186 
2013 2 12.696 2.775 6.4 6.02213 -173470 -151405 -64627.7 8091.92 26506.4 -54432.5 -7.41541 
2014 2 13.436 1.566 6.4 6.02213 -167671 -155882 -101192 30659.8 -11023.1 -48386.9 -7.41356 
2015 2 12.758 0.32 6.4 6.02305 -123173 -151795 -88770.6 8072.48 18605.1 -50628.8 -7.41361 
2076 2 15.346 10.212 6.4 6.02393 -119088 -172140 -136314 15464.5 14545.5 -15241.5 -7.41173 
2077 2 14.668 8.967 6.4 6.0261 -175424 -151658 23458.4 -13180 31900.7 -52497.8 -7.42039 
2078 2 15.408 7.757 6.4 6.0261 -159180 -160173 -134093 3085.78 6744.77 -25200.7 -7.41162 
2079 2 14.73 6.512 6.4 6.02338 -123547 -153586 2431.18 -15783.3 33097.1 -53496.7 -7.41924 
2080 2 15.47 5.302 6.4 6.02306 -154468 -126414 -122264 14094.2 -2844.26 -34389.4 -7.41214 
2081 2 14.792 4.056 6.4 6.02283 -133810 -170894 -24686.4 24514.1 30868.2 -52813.8 -7.41758 
2082 2 15.531 2.847 6.4 6.02283 -128187 -175209 -100820 46496.7 -12285 -42197.5 -7.41322 
2083 2 14.853 1.601 6.4 6.02583 -163232 -123783 -54205.4 -10669.2 25962.6 -50154.5 -7.4158 
2084 2 15.593 0.391 6.4 6.02494 -168374 -168185 -72389.9 -9037.64 -20319.7 -48503.9 -7.41555 
2145 2 16.764 10.248 6.4 6.02582 -134358 -170658 60125.3 2705.95 26032.3 -44175.4 -7.42202 
2146 2 17.503 9.038 6.4 6.02582 -118356 -172388 -140479 15504.2 3472.19 -17190.3 -7.41117 
2147 2 16.825 7.793 6.4 6.02196 -172877 -150889 41674.6 -17037 30648.9 -45553.6 -7.42175 
2148 2 17.565 6.583 6.4 6.02603 -106400 -124614 -127994 12245.6 -4920.38 -25148.6 -7.4113 
2149 2 16.887 5.337 6.4 6.02213 -177487 -152422 15194.1 12720.3 32001.5 -45441.9 -7.41972 
2150 2 17.627 4.128 6.4 6.02213 -167170 -153648 -105987 29470.7 -13818.2 -32401.8 -7.41336 
2151 2 16.949 2.882 6.4 6.02396 -126253 -141803 -16530.4 7607.76 30364.3 -43871.8 -7.41751 
2152 2 17.688 1.672 6.4 6.02489 -125854 -175887 -75867.2 11658 -21474.8 -38576 -7.41493 
2153 2 17.01 0.427 6.4 6.02613 -171887 -165554 -50574.9 -19195.4 26109.1 -40708.7 -7.41674 
2215 2 18.921 9.074 6.4 6.02393 -132982 -165889 74429.8 -250.087 26065 -34205.3 -7.42339 
2217 2 18.983 6.618 6.4 6.02056 -144160 -182640 50548.1 16248.3 30577.5 -34201 -7.42187 
2219 2 19.044 4.163 6.4 6.02658 -167697 -120879 19570.7 -4952.72 31930.8 -33178 -7.41987 
2221 2 19.106 1.708 6.4 6.02582 -133316 -173685 -16868.8 -4256.33 30719.4 -31164.6 -7.4179 
696 1 20.092 9.323 3 6.02479 -172270 -152485 85439.6 13135 23371.7 -30441.8 -7.4236 
698 1 20.03 6.868 3 6.02393 -133250 -168916 61361.1 -1606.63 29319.4 -33113.3 -7.42246 
700 1 19.969 4.412 3 6.02659 -169865 -118254 29583.9 -1842.48 31666.2 -34110.7 -7.42043 
702 1 19.907 1.957 3 6.02656 -124125 -159360 -8376.22 7833.05 31180.3 -33258.1 -7.41806 
764 1 22.249 10.497 3 6.02658 -123445 -151268 104990 13172.5 18162.5 -16061.3 -7.42433 
765 1 21.509 9.287 3 6.02196 -156873 -146148 -145208 20152.1 -3970.04 -6497.03 -7.41139 
766 1 22.187 8.042 3 6.02506 -132810 -169568 85270.6 -2881.79 26370.2 -18544.7 -7.42343 
767 1 21.448 6.832 3 6.02582 -119968 -168357 -127922 4313.25 -11549.1 -9814.06 -7.4119 
768 1 22.126 5.587 3 6.02283 -173632 -149387 56279.2 13833.7 31035.3 -20158.7 -7.42259 
769 1 21.386 4.377 3 6.02659 -160061 -115896 -100791 8006.21 -19921.9 -12632.1 -7.41339 
770 1 22.064 3.131 3 6.0261 -130405 -134816 19980.7 -16111.6 32839.7 -20371 -7.41976 
771 1 21.325 1.921 3 6.01897 -133620 -185723 -65491.6 19822.6 -26813.6 -14988.7 -7.41593 
772 1 22.002 0.676 3 6.02266 -140273 -198923 -21055.3 1918.79 31710.8 -19236.3 -7.41802 
833 1 23.667 10.461 3 6.0205 -122642 -173253 -151564 15254.6 -3417.82 -983.015 -7.41144 
834 1 24.344 9.216 3 6.02299 -137879 -182741 99782.6 11425.9 22631.9 -3104.55 -7.42463 
835 1 23.605 8.006 3 6.02582 -118231 -163374 -137506 2.23897 -9956.67 -1754.16 -7.41163 
836 1 24.283 6.761 3 6.02479 -173417 -150701 75396.9 12840.8 29080.6 -4728.16 -7.42328 
837 1 23.543 5.551 3 6.0261 -161339 -149505 -113434 15231.9 -18099.5 -2361.47 -7.41306 
838 1 24.221 4.306 3 6.02393 -134234 -168741 41952.4 -615.039 32597.1 -5750.6 -7.42143 
839 1 23.482 3.096 3 6.02479 -122423 -134943 -80776.9 -11993.7 -25521.1 -2898.45 -7.4141 
840 1 24.16 1.85 3 6.0222 -168644 -118511 2667.47 1747.74 33147 -5846.65 -7.41896 
841 1 23.42 0.64 3 6.0211 -124433 -164518 -40643.3 22970.5 -30730.6 -3245.93 -7.41677 
902 1 26.502 10.39 3 6.02306 -164619 -115250 104869 2066.35 18956.6 12005 -7.42458 
903 1 25.762 9.18 3 6.02338 -109070 -144534 -145188 12819.3 -6799.54 4073.19 -7.41119 
904 1 26.44 7.935 3 6.0261 -172623 -152109 85135.4 13548.3 26676.7 10952.9 -7.4236 
905 1 25.7 6.725 3 6.02479 -159266 -148363 -126268 10500 -14353.3 5915.39 -7.41238 
906 1 26.378 5.48 3 6.02582 -134202 -171206 56368.9 -1520.62 31303.8 9850.27 -7.42184 
907 1 25.639 4.27 3 6.02582 -123581 -170424 -97524.7 -4809.86 -22207.4 7548 -7.41353 
908 1 26.317 3.025 3 6.02283 -173801 -150495 19924.5 16889 32989.7 8816.01 -7.4206 
909 1 25.577 1.815 3 6.02658 -163993 -119434 -60487 -494.463 -28639.3 8985.11 -7.41532 
910 1 26.255 0.569 3 6.02454 -120923 -131128 -20996.6 -3574.17 32008.7 8080.28 -7.41736 
971 1 27.919 10.355 3 6.02213 -161136 -142537 -149314 -22379.8 -1787.29 7300.96 -7.41096 
972 1 28.597 9.109 3 6.0261 -116761 -119543 85522.7 -273.404 24669.1 25644.2 -7.42313 
973 1 27.857 7.899 3 6.02196 -157092 -146613 -136504 9200.27 -8588.33 11741.7 -7.41219 
974 1 28.535 6.654 3 6.02507 -131267 -172194 61406.6 403.596 29979.5 25120 -7.42231 
975 1 27.796 5.444 3 6.02582 -121306 -171138 -114097 -9446.79 -16609.1 15740.8 -7.41262 
976 1 28.474 4.199 3 6.02479 -173858 -154019 29530.9 15891.7 32152.4 24005.8 -7.42074 
977 1 27.734 2.989 3 6.0261 -165519 -154106 -81731.7 6530.09 -24193.5 19351.7 -7.41473 
978 1 28.412 1.744 3 6.02393 -132258 -172156 -8581.54 4450.11 31842.5 22464 -7.41861 
979 1 27.673 0.534 3 6.0249 -124277 -149527 -43168.1 -14008.2 -29532.6 22401.6 -7.41658 
2214 2 19.599 10.319 6.4 6.0261 -157211 -147340 -147409 -4102.85 886.891 -9844.79 -7.41125 
2216 2 19.66 7.864 6.4 6.02048 -118711 -150530 -136354 9956.36 -6031.67 -15879.2 -7.4115 
2218 2 19.722 5.409 6.4 6.02283 -125839 -166913 -115171 41179.4 -14386.4 -21335.9 -7.41274 
2220 2 19.784 2.953 6.4 6.02283 -165000 -153042 -84876.7 -6023.5 -22191.8 -26460.7 -7.4149 
2222 2 19.845 0.498 6.4 6.02372 -124538 -152878 -48057.7 20999 -27965.7 -30592.2 -7.41584 
2283 2 21.016 10.355 6.4 6.02283 -171294 -146576 98524.8 -14949.5 20047.1 -21093.6 -7.4249 
2284 2 21.756 9.145 6.4 6.02658 -151156 -113843 -144710 3803.02 -5808.58 -7849 -7.41089 
2285 2 21.078 7.899 6.4 6.02224 -129715 -149217 78925.5 15631.1 27300.8 -20801.9 -7.42287 
2286 2 21.818 6.69 6.4 6.01795 -163036 -145868 -126366 20856.8 -13417.1 -11212.5 -7.41237 
2287 2 21.14 5.444 6.4 6.02396 -128279 -137915 50371.4 12590 31367.6 -19876.4 -7.42118 
2288 2 21.879 4.234 6.4 6.02393 -123246 -168722 -98143.6 5738.41 -21320.6 -14248.3 -7.41384 
2289 2 21.201 2.989 6.4 6.0261 -173747 -154109 14627.5 -16204.1 32590.9 -18580.5 -7.41994 
2290 2 21.941 1.779 6.4 6.02612 -167439 -154861 -61955.9 -8352.74 -27848.4 -17111.9 -7.41576 
2291 2 21.263 0.534 6.4 6.02546 -134760 -180073 -25661.5 1279.57 31187.2 -16999 -7.41785 
2352 2 23.851 10.426 6.4 6.02396 -108490 -128235 -151598 13621.5 -3879.27 -1892.67 -7.41059 
2353 2 23.173 9.18 6.4 6.01795 -175502 -145411 98194.1 15346.8 22935.7 -6658.63 -7.42454 
2354 2 23.913 7.971 6.4 6.02224 -112351 -144913 -137295 18881.5 -10428.6 -2837.54 -7.41145 
2355 2 23.235 6.725 6.4 6.02658 -167612 -118689 73780.7 -1794.18 29229.6 -5438.94 -7.42266 
2356 2 23.975 5.515 6.4 6.02283 -161013 -146749 -112994 -14150.8 -18519.2 -3739.15 -7.41345 
2357 2 23.297 4.27 6.4 6.02582 -134472 -171698 40582.2 1629.31 32566.1 -4363.28 -7.42098 
2358 2 24.036 3.06 6.4 6.02582 -125989 -171161 -79809.4 3241.23 -25811.8 -4524.07 -7.41447 
2359 2 23.358 1.815 6.4 6.02283 -172713 -151309 1462.62 -16355.9 33013.3 -3697.01 -7.41957 
2360 2 24.098 0.605 6.4 6.02663 -168522 -130339 -39734.1 -6700.09 -30958.3 -5437.86 -7.41651 
2421 2 25.269 10.461 6.4 6.02224 -125360 -146887 108165 17989.8 18040.3 6927.85 -7.42473 
2422 2 26.009 9.252 6.4 6.01795 -160890 -140778 -145503 12029.3 -5880.75 3029.37 -7.41138 
2423 2 25.331 8.006 6.4 6.02396 -124568 -135664 88326.5 12802.2 26366 8896.67 -7.4235 
2424 2 26.07 6.796 6.4 6.02393 -119449 -164501 -127058 -3332.02 -13364.2 4599.77 -7.41233 
2425 2 25.392 5.551 6.4 6.0261 -174000 -151708 59258.1 -12446.1 31145.8 10293.6 -7.42239 
2426 2 26.132 4.341 6.4 6.0261 -163575 -151126 -98786.9 -16754.7 -21520.7 6001.27 -7.41384 
2427 2 25.454 3.096 6.4 6.02393 -133954 -169487 22649.7 1379.82 33134.3 10792.1 -7.42037 
2428 2 26.193 1.886 6.4 6.02396 -121210 -137015 -62329 9235.52 -28105.2 7131.33 -7.41539 
2429 2 25.515 0.64 6.4 6.02144 -170083 -128644 -18622.2 5313.33 32300.2 10135.4 -7.41786 
2490 2 28.104 10.533 6.4 6.02224 -114387 -142553 -149894 9125.87 417.321 6036.51 -7.41056 
2491 2 27.426 9.287 6.4 6.02658 -166107 -117572 93485 -1275.24 22851.7 21886.8 -7.42374 
2492 2 28.166 8.077 6.4 6.02283 -158442 -145349 -137576 -23037.5 -6358.47 10153.7 -7.41212 
2493 2 27.488 6.832 6.4 6.02582 -133509 -170887 68976.8 3386.57 29240 24226.1 -7.42253 
2494 2 28.227 5.622 6.4 6.02582 -121822 -170679 -116441 -5913.28 -14564.6 14031 -7.41249 
2495 2 27.549 4.377 6.4 6.02283 -173634 -150692 36541.6 -12867.2 32083.4 25193.7 -7.4215 
2496 2 28.289 3.167 6.4 6.02658 -160003 -121662 -85624.6 -9449.1 -22646.8 17426.5 -7.41399 
2497 2 27.611 1.921 6.4 6.02283 -126863 -154206 -2242.01 21803.3 32236 24470.4 -7.41862 
2498 2 28.351 0.712 6.4 6.01874 -174002 -162169 -48334.2 4716.72 -28597.9 20283.2 -7.41679 
1040 1 30.754 10.283 3 6.02283 -137684 -165984 75815.3 -32009.3 23678.6 37552.4 -7.42288 
1041 1 30.015 9.074 3 6.02283 -119860 -166021 -142366 -40806 -626.729 14467.5 -7.4113 
1042 1 30.693 7.828 3 6.02306 -166964 -119253 57009.5 3006.73 29252.5 38468.2 -7.42192 
1043 1 29.953 6.618 3 6.02338 -109517 -153947 -127426 2270.02 -8595.43 21038.5 -7.41226 
1044 1 30.631 5.373 3 6.0261 -173352 -156395 29736.7 16186.6 31718.6 37968.3 -7.42052 
1045 1 29.891 4.163 3 6.02479 -163001 -156071 -102380 2158.31 -17098.8 26930.2 -7.41358 
1046 1 30.569 2.918 3 6.02582 -132825 -175288 -3787.6 3216.94 31340.3 36485.7 -7.41852 
1047 1 29.83 1.708 3 6.02658 -128201 -174650 -69415.2 -11977.2 -24175.2 32059.7 -7.41506 
1048 1 30.508 0.463 3 6.02192 -165404 -133290 -40348.9 34941.6 28190.8 33728.9 -7.41687 
1109 1 32.172 10.248 3 6.02396 -112805 -138074 -141054 -27611.8 9152.75 13881.5 -7.41083 
1110 1 32.85 9.002 3 6.01995 -178279 -147452 42929.4 -15955.9 29759.1 48027.7 -7.42156 
1111 1 32.11 7.793 3 6.02213 -163261 -153481 -135189 -30627.7 1652.61 22814.1 -7.41159 
1112 1 32.788 6.547 3 6.02603 -120883 -122869 20829.4 3704.86 32214.7 48847.7 -7.41921 
1113 1 32.048 5.337 3 6.02196 -160160 -156047 -119199 1514.37 -7340.42 30981.2 -7.41301 
1114 1 32.726 4.092 3 6.02582 -132483 -175052 -7938.73 2734.63 31477.8 47977 -7.41828 
1115 1 31.987 2.882 3 6.02582 -124402 -178493 -94505.7 -15716.9 -16034.7 38119.6 -7.41359 
1116 1 32.665 1.637 3 6.02477 -171467 -155769 -40044.3 22074.9 27818.8 45415.6 -7.41701 
1117 1 31.925 0.427 3 6.02741 -165006 -134061 -62775.8 -8838.56 -23281.5 44007.3 -7.41539 
1178 1 35.007 10.177 3 6.02283 -175258 -150044 20666 14447.8 30946.8 52963.2 -7.42048 
1179 1 34.267 8.967 3 6.02666 -160270 -158446 -135106 1400.12 13784.8 21116.9 -7.41178 
1180 1 34.945 7.722 3 6.02144 -136370 -166889 3619.8 3062.15 33707.5 54795.9 -7.41925 
1181 1 34.206 6.512 3 6.02048 -122557 -157374 -129808 -17410.2 4739.86 30822.8 -7.41173 
1182 1 34.883 5.266 3 6.02048 -135114 -151131 -20495.5 3738.22 32478.5 55010.8 -7.41769 
1183 1 34.144 4.056 3 6.02393 -121950 -175038 -115097 -16188.3 -5222.4 39694.8 -7.41304 
1184 1 34.822 2.811 3 6.0261 -170106 -155692 -47417.9 20773.5 28066.4 53187.4 -7.41654 
1185 1 34.082 1.601 3 6.02612 -164246 -160865 -91733.4 -795.155 -14704.4 47073.2 -7.41407 
1186 1 34.76 0.356 3 6.02546 -129932 -184443 -75434.9 5563.4 21356.6 49504.3 -7.415 
1247 1 36.424 10.141 3 6.02479 -160641 -159858 -126019 -3972.86 26586.6 16891.7 -7.41225 
1248 1 37.102 8.896 3 6.02582 -137689 -167470 -20412 -2174.63 35399.9 55719.9 -7.41763 
1249 1 36.363 7.686 3 6.02582 -119964 -180094 -131985 -20669.1 18133.4 27260.1 -7.41153 
1250 1 37.041 6.441 3 6.02196 -172983 -147566 -39004.8 18577.9 34177.9 56392.9 -7.41738 
1251 1 36.301 5.231 3 6.02603 -109088 -127184 -128350 -16370.3 7381.08 36574.1 -7.41121 
1252 1 36.979 3.985 3 6.02658 -166590 -117291 -61504.1 7408.94 29147.5 55280.1 -7.41528 
1253 1 36.239 2.775 3 6.02283 -161754 -156861 -115651 -797.394 -3851.45 44693.8 -7.41317 
1254 1 36.917 1.53 3 6.02582 -126915 -173838 -84615.7 7513.62 21730.5 52377.6 -7.41412 
1255 1 36.178 0.32 3 6.02371 -126571 -188480 -95010 -9279.89 -13976.4 51238.7 -7.4136 
1317 1 38.52 8.86 3 6.02582 -120814 -179996 -125019 -19853.5 31449.1 21473.7 -7.41191 
1319 1 38.458 6.405 3 6.0261 -159478 -161866 -133094 -4326.94 20602 30333.5 -7.41165 
1320 1 39.136 5.16 3 6.02338 -121553 -146461 -79357.2 17456.6 30599.6 51707.4 -7.41487 
1321 1 38.396 3.95 3 6.02299 -155636 -122540 -131169 -14084.8 8111.2 37864.3 -7.41166 
1322 1 39.074 2.704 3 6.02479 -121426 -131998 -98248.1 -5041.31 22803.4 49281.3 -7.41336 
1323 1 38.335 1.494 3 6.0224 -121062 -172764 -120952 -14041.1 -3757.57 44303.6 -7.41252 
1324 1 39.013 0.249 3 6.02606 -166408 -161593 -115337 18353.7 13105.8 45738.5 -7.41294 
2559 2 29.522 10.568 6.4 6.02048 -132707 -149829 88805.9 198.698 19534.8 32390.6 -7.42367 
2560 2 30.261 9.358 6.4 6.02393 -118847 -163779 -143275 -11581 2816.22 12497.7 -7.41163 
2561 2 29.583 8.113 6.4 6.0261 -172995 -151933 69480 -12342.7 26939.3 35994.6 -7.42293 
2562 2 30.323 6.903 6.4 6.0261 -160541 -152793 -129595 -25492.6 -5327.23 18843.8 -7.41213 
2563 2 29.645 5.658 6.4 6.02393 -133330 -170387 41359.9 2624.16 30887.6 38118.6 -7.42136 
2564 2 30.384 4.448 6.4 6.02396 -118064 -140486 -107022 1855.15 -14308.2 24735 -7.41263 
2565 2 29.706 3.202 6.4 6.01795 -176453 -152153 6751.23 19947.1 31330.6 38041 -7.4195 
2566 2 30.446 1.993 6.4 6.02224 -123750 -155764 -76229.1 5033.64 -22377.8 29796.2 -7.41436 
2567 2 29.768 0.747 6.4 6.02466 -167043 -135416 -31556.5 11683.8 29086.4 36040.8 -7.4169 
2629 2 31.679 9.394 6.4 6.02582 -133926 -171104 60140.1 2611.92 25310.5 44609 -7.42201 
2630 2 32.418 8.184 6.4 6.02582 -120540 -173723 -136607 -13187.1 6029.62 20229.4 -7.41135 
2631 2 31.74 6.939 6.4 6.02283 -173202 -151005 37017.1 -13437.2 29788.4 48013.3 -7.42149 
2632 2 32.48 5.729 6.4 6.02658 -156441 -122880 -123264 -17196.3 -3501.47 28404.9 -7.41211 
2633 2 31.802 4.483 6.4 6.02283 -137151 -168998 6728.78 35588.8 30667.2 49126.7 -7.4193 
2634 2 32.541 3.274 6.4 6.02056 -135581 -187635 -101434 2884.46 -13223 35492 -7.41359 
2635 2 31.864 2.028 6.4 6.01974 -130576 -158207 -27575.1 7826.02 28265.4 47764.5 -7.41726 
2636 2 32.603 0.818 6.4 6.02371 -129876 -184220 -72180.9 -18268.3 -21651.2 41234.9 -7.41539 
2698 2 34.514 9.465 6.4 6.0261 -161155 -156419 -134137 -30323.4 18412.9 18465.6 -7.41183 
2699 2 33.836 8.22 6.4 6.02393 -134554 -168851 23252.9 1201.59 29590.6 53887.5 -7.42035 
2700 2 34.575 7.01 6.4 6.02396 -115876 -143368 -132114 -4136.2 9229.81 28074.5 -7.41122 
2701 2 33.897 5.764 6.4 6.02213 -177191 -150093 -1563.4 19495.4 30578.6 56032.9 -7.41902 
2702 2 34.637 4.555 6.4 6.02213 -167314 -156505 -120416 -1701.98 -1671.82 36769.9 -7.41232 
2703 2 33.959 3.309 6.4 6.02603 -117074 -125145 -31536.7 5081.55 27959 55745.6 -7.4165 
2704 2 34.699 2.099 6.4 6.02337 -163855 -157273 -100538 -31622.4 -12341.4 43992.5 -7.41396 
2705 2 34.021 0.854 6.4 6.02659 -129954 -185645 -63092.8 16736.1 22397.6 52500 -7.41568 
2767 2 35.931 9.501 6.4 6.02283 -177029 -146923 1996.24 -14716.5 29796.4 55471.7 -7.41958 
2768 2 36.671 8.291 6.4 6.02658 -156039 -124922 -131162 -20141.7 22673.4 24854 -7.41164 
2769 2 35.993 7.045 6.4 6.02283 -138850 -166213 -17930.2 33777.6 31503 58298.3 -7.41776 
2770 2 36.732 5.836 6.4 6.02283 -124004 -174559 -130851 11149.9 11390.7 33787.7 -7.41179 
2771 2 36.054 4.59 6.4 6.02306 -164484 -119817 -42858.5 2725.34 28581.8 58611.7 -7.41649 
2772 2 36.794 3.38 6.4 6.02338 -112770 -158126 -121944 -30761.3 -948.82 41588.5 -7.41247 
2773 2 36.116 2.135 6.4 6.02615 -168491 -155726 -70142 -4784.16 22431.4 56100.6 -7.41519 
2774 2 36.856 0.925 6.4 6.02721 -159819 -133232 -105755 -15930.2 -12303.9 47818.9 -7.41307 
2836 2 38.766 9.572 6.4 6.02396 -117359 -144152 -120393 -3503.96 35800.6 19901.5 -7.41185 
2837 2 38.088 8.326 6.4 6.02213 -181712 -142400 -39708.2 17614.5 32685.9 56102.2 -7.41697 
2838 2 38.828 7.117 6.4 6.02213 -165870 -155719 -131639 -2344.6 24574 28245 -7.41172 
2839 2 38.15 5.871 6.4 6.0261 -117063 -117250 -59988.3 3818.99 30075.8 56553.1 -7.41521 
2840 2 38.89 4.661 6.4 6.02196 -160256 -154221 -134080 -33447.8 11195.2 35396.9 -7.4122 
2841 2 38.212 3.416 6.4 6.02506 -125947 -170207 -82508.8 7431.26 23547 54265 -7.41452 
2842 2 38.951 2.206 6.4 6.02506 -121706 -173830 -128046 -12399.8 -1717.47 41110.3 -7.41177 
2843 2 38.273 0.961 6.4 6.02434 -167146 -160983 -103663 1399.83 14571.2 50006.5 -7.41381 
1316 1 39.259 10.07 3 6.02582 -141600 -162719 -47907.3 -2690.98 36683.8 51800.7 -7.41614 
1318 1 39.198 7.615 3 6.02479 -176679 -144620 -61983.4 14253.7 35698.7 52629.2 -7.41579 
1385 1 40.677 10.034 3 6.02393 -122311 -176018 -109975 -15313.1 43417.5 15141.5 -7.41311 
1386 1 41.355 8.789 3 6.0261 -180614 -139109 -85538.6 13385.3 36775.2 44721 -7.41451 
1387 1 40.615 7.579 3 6.02479 -159878 -158301 -128647 -2718.5 33140.7 22486.4 -7.41212 
1388 1 41.293 6.334 3 6.02582 -134470 -159576 -98652 -199.952 31873.3 43747.6 -7.41347 
1389 1 40.554 5.124 3 6.02506 -116511 -175724 -137915 -15877.6 20159.6 28594.9 -7.41148 
1390 1 41.232 3.879 3 6.02196 -167635 -140078 -113277 21078.5 23920.7 41558.3 -7.41346 
1391 1 40.492 2.669 3 6.02603 -105789 -119577 -137294 -13596.6 6841.23 34036.9 -7.41104 
1392 1 41.17 1.423 3 6.02583 -159914 -111188 -126779 9519.55 14464.9 38605.4 -7.4118 