ITEM: TIMESTEP
221
ITEM: NUMBER OF ATOMS
16856
ITEM: BOX BOUNDS pp pp pp
0.0000000000000000e+00 1.1273548200000000e+02
0.0000000000000000e+00 1.9526358200000001e+02
0.0000000000000000e+00 1.8399999999999999e+01
ITEM: ATOMS id type x y z c_csym c_2[1] c_2[2] c_2[3] c_2[4] c_2[5] c_2[6] c_3 
180 1 0.878666 8.57929 7.38647 6.01797 -168303 -149429 -3303.57 -17020.2 12080 -2991.85 -7.41378 
181 1 0.146417 7.36535 7.38343 6.02413 -154912 -163209 2323.18 -11794.4 13768.8 -1303.75 -7.41395 
182 1 0.831161 6.12386 7.38096 6.02263 -165080 -152471 -1063.52 -8221.29 8300.42 -2489.6 -7.4137 
183 1 0.0982777 4.91025 7.37887 6.02652 -155911 -161646 853.283 -4887.11 8114.92 -876.579 -7.41371 
184 1 0.782583 3.66854 7.37738 6.02592 -162181 -155102 -8.01995 -3019.67 4771.59 -1880.06 -7.41362 
185 1 0.0493249 2.45514 7.37622 6.02847 -157236 -160092 348.74 -1201.82 3603.07 -449.658 -7.41359 
186 1 0.733417 1.21333 7.37565 6.0287 -159663 -157318 286.232 -632.846 1513.88 -1253.62 -7.41357 
187 1 -4.70254e-07 -1.03496e-06 7.37536 6.02996 -158716 -158609 295.231 115.9 0.0405862 0.04795 -7.41356 
340 1 2.29618 8.55092 7.38713 6.01986 -162615 -155682 2748.8 -14057.3 16636.2 -3950.35 -7.41411 
341 1 2.98097 7.30938 7.38463 6.02005 -173556 -144242 -977.783 -11780 10228.2 -7331.28 -7.41383 
342 1 2.24865 6.09544 7.38158 6.02308 -160787 -157070 870.309 -5348.49 10417.2 -3614.84 -7.41381 
343 1 2.93299 4.85371 7.38006 6.02369 -167996 -149721 233.874 -4905.49 6542.51 -6141.97 -7.41372 
344 1 2.20006 3.64011 7.37797 6.02567 -159489 -157796 182.736 -303.18 5274.53 -3285.73 -7.41365 
345 1 2.88417 2.39828 7.37738 6.02693 -162889 -154311 490.175 -1356.1 3092.91 -4972.88 -7.41364 
346 1 2.15089 1.18487 7.37622 6.02745 -158833 -158553 182.308 2044.99 1208.7 -3029.18 -7.41358 
499 1 5.12994 8.49571 7.39024 6.0172 -185087 -133081 391.196 -14085.9 12550.8 -12907.9 -7.41409 
500 1 4.39844 7.28128 7.3862 6.01725 -168609 -149542 -152.197 -4677.67 13023.5 -6414.11 -7.41394 
501 1 5.08281 6.03952 7.38467 6.02103 -176569 -141433 1482.36 -5493.74 8881.57 -11274.7 -7.41395 
502 1 4.35045 4.82556 7.38157 6.02157 -164514 -153117 -779.592 2007.91 7235.6 -6256.77 -7.41373 
503 1 5.03458 3.58372 7.38098 6.02464 -168856 -148869 1414.13 -486.57 5241.79 -9592.98 -7.41381 
504 1 4.30164 2.37009 7.37885 6.02438 -161112 -156105 -472.77 5490.76 2508.04 -6159.69 -7.41365 
505 1 4.98573 1.12827 7.37916 6.02544 -161854 -155726 641.061 1594.36 1693.2 -8076.97 -7.41371 
657 1 7.27777 9.68331 7.39765 6.01193 -199786 -118947 3431.31 -14819.2 14929.7 -18940.4 -7.41451 
658 1 6.54737 8.46821 7.39271 6.00988 -179611 -138836 -2604.61 -2602.11 15720.5 -9122.65 -7.41405 
659 1 7.23179 7.2264 7.39123 6.01717 -188182 -130149 4189.46 -4485.44 11564.5 -17144.1 -7.41432 
660 1 6.50025 6.01193 7.38712 6.01562 -172516 -145512 -2957.09 5856.61 9460.1 -9347.19 -7.41383 
661 1 7.18441 4.77006 7.38654 6.02197 -177485 -140579 3553.95 2146 7917.99 -15145 -7.41412 
662 1 6.45202 3.55606 7.38339 6.02009 -166349 -151292 -2115.66 10762.1 4050.47 -9523.57 -7.41374 
663 1 7.13615 2.31423 7.38373 6.0229 -167614 -150170 1985.84 5499.28 4211.66 -13192.8 -7.41394 
664 1 6.40319 1.10055 7.38157 6.02219 -160938 -156532 -603.113 12772.8 -450.907 -9827.78 -7.41374 
816 1 8.69515 9.65669 7.40089 6.00137 -193781 -124947 -6776.83 1061.65 18134.6 -11398.1 -7.41413 
817 1 9.37964 8.41484 7.39952 6.01034 -203001 -115735 8663.46 -1499.17 14242.5 -23264 -7.41485 
818 1 8.64918 7.19967 7.39453 6.00827 -183534 -134548 -6691.06 11562.3 11699.6 -12247.3 -7.41391 
819 1 9.3334 5.95777 7.39399 6.01671 -189583 -129215 7308.44 6831.74 10877.4 -21252.1 -7.41459 
820 1 8.60182 4.74322 7.38987 6.01486 -174371 -143516 -5135.83 18076.9 5770.97 -12904 -7.41382 
821 1 9.28599 3.50139 7.39023 6.02001 -176651 -141848 4748.12 11629.1 7201.2 -19088.5 -7.41432 
822 1 8.55359 2.28731 7.38709 6.01845 -166030 -151668 -2622.26 21337.4 617.635 -13550.5 -7.41384 
823 1 9.23791 1.04563 7.38837 6.01662 -164332 -153896 1496.34 13391.8 3332.84 -17003.6 -7.4141 
975 1 11.5261 9.60529 7.40908 6.00235 -219528 -98919 14981.7 3249.33 16573.6 -28976.3 -7.41554 
976 1 10.797 8.38925 7.40344 6.00008 -197840 -120631 -12190.2 18836.9 13596.7 -14546.1 -7.41393 
977 1 11.4813 7.14734 7.40297 6.01001 -203866 -114824 12885.6 13659.1 13787.2 -27258.9 -7.41522 
978 1 10.7508 5.93207 7.39805 6.00796 -185811 -132451 -9822.07 27460.3 7425.23 -15871.1 -7.41386 
979 1 11.435 4.69024 7.39843 6.01616 -188440 -130410 9255.43 20169.1 10413.7 -25179.8 -7.41487 
980 1 10.7034 3.47559 7.39441 6.0138 -174365 -143698 -6175.18 32319 1773.59 -17029.3 -7.41391 
981 1 11.3878 2.23393 7.39571 6.01235 -173220 -145500 4621.61 23253.7 6670.54 -22948.9 -7.41454 
982 1 10.6554 1.01977 7.39266 6.01561 -163575 -154650 -1813.84 34072.4 -3215.89 -18181.7 -7.41407 
1134 1 12.9434 9.5811 7.41327 5.99164 -213765 -104334 -19444.3 27328.7 14851.5 -15940.4 -7.41387 
1135 1 13.6278 8.3392 7.41285 6.00236 -219904 -98380.2 20225.6 22075.7 16337.3 -32472.8 -7.41601 
1136 1 12.8986 7.12306 7.40741 6.00028 -199556 -118809 -16286 38320.2 8728.03 -18009.6 -7.41384 
1137 1 13.5829 5.88125 7.40779 6.00971 -202551 -116479 15600.7 30687.7 13535.9 -30742.5 -7.41558 
1138 1 12.8523 4.66587 7.40313 6.00853 -185587 -132958 -11490.4 45213.1 2820.93 -19794.6 -7.41394 
1139 1 13.5368 3.42425 7.40439 6.00826 -184908 -134297 9595.48 35536.3 10156.8 -28637.4 -7.41514 
1140 1 12.8052 2.2095 7.40063 6.0121 -171809 -146688 -5623.04 48520.7 -2579.95 -21414.1 -7.41415 
1141 1 13.49 0.968167 7.40278 6.00341 -167225 -151919 2801.44 37014.4 6344.83 -26322.6 -7.41472 
1293 1 15.7728 9.53366 7.42291 5.99438 -236183 -80827.9 28996 31527.3 18323.2 -36378.6 -7.4169 
1294 1 15.045 8.31654 7.41726 5.99271 -214883 -103103 -24388.4 49939.4 9476.33 -19095.6 -7.41372 
1295 1 15.7295 7.07479 7.41757 6.00257 -217755 -100617 23595.5 42499 16296 -35154.9 -7.41642 
1296 1 15.0002 5.85855 7.41257 6.00216 -198977 -119675 -18577.2 59279.9 3565.02 -21504.1 -7.41388 
1297 1 15.6848 4.61699 7.41372 6.00359 -198538 -120680 16398.4 49481.9 13502.3 -33396.1 -7.41589 
1298 1 14.9542 3.4015 7.40954 6.00875 -182819 -136023 -11287.2 64606.4 -2049.47 -23637.2 -7.41416 
1299 1 15.6391 2.16025 7.41157 5.99845 -178774 -140731 7993.29 52654.1 10131.9 -31218.7 -7.41534 
1300 1 14.9075 0.945382 7.40826 6.00638 -166618 -152313 -3157.55 66273.5 -7150.2 -25583.2 -7.41453 
1452 1 17.19 9.51272 7.42688 5.98581 -230422 -86621.9 -33725 61325.9 9620.67 -19150.1 -7.41352 
1453 1 17.8748 8.27108 7.42703 5.99537 -232701 -84017.9 32798.8 54652.4 18514.4 -38065.1 -7.41734 
1454 1 17.1468 7.0539 7.42198 5.99555 -213383 -104791 -27170.5 73440.7 3905.55 -22058.6 -7.41373 
1455 1 17.8316 5.81245 7.42293 5.99805 -212857 -105553 24730.1 64078.7 16464.9 -36766.9 -7.41674 
1456 1 17.1021 4.59611 7.41862 6.00461 -195698 -123245 -18707.8 81217.6 -1726.8 -24647 -7.41407 
1457 1 17.7873 3.35496 7.42044 5.99427 -191888 -127398 15000.6 69422.2 13699.2 -34911.1 -7.41609 
1458 1 17.0565 2.13937 7.41694 6.00218 -177486 -141660 -8962.28 84896.6 -6970.11 -26960.2 -7.41452 
1459 1 17.7422 0.898626 7.41957 5.98824 -170277 -149492 4274.66 70836.6 10343.5 -32590.1 -7.41545 
1611 1 20.0186 9.47021 7.43563 5.9886 -246343 -67962.4 42632.2 66159.9 20111.3 -39428.5 -7.41829 
1612 1 19.2919 8.25204 7.43069 5.98966 -227513 -89563.5 -36766.4 86607.9 3859.33 -21587 -7.41349 
1613 1 19.9771 7.01076 7.43136 5.99307 -226774 -90022.2 34079.2 78293.1 18885.5 -38592.3 -7.41765 
1614 1 19.2488 5.79352 7.42715 5.99992 -209157 -109268 -27509 97179.7 -1635.72 -24490.3 -7.41388 
1615 1 19.9342 4.55251 7.42868 5.98969 -205682 -112918 23438.3 86116.9 16830.8 -37145.5 -7.41693 
1616 1 19.2046 3.3361 7.42525 5.99879 -189805 -129223 -16507.7 103262 -6890.19 -27087.2 -7.41441 
1617 1 19.8905 2.09549 7.42762 5.98387 -183237 -136225 11322.5 89645.5 14091 -35129.8 -7.41617 
1618 1 19.1596 0.879792 7.42494 5.99204 -169837 -149404 -4478.6 105034 -11643.3 -29409.9 -7.41504 
1770 1 21.4357 9.45297 7.43828 5.98486 -240245 -74915.2 -46751.8 98029.8 3525.23 -20347.7 -7.41319 
1771 1 22.1212 8.2119 7.4386 5.98726 -238995 -75174 43854.5 91143.4 20693.1 -38980.6 -7.41857 
1772 1 21.3942 6.99374 7.43459 5.99497 -222104 -95114.2 -37123.7 111420 -1729.79 -23395 -7.41362 
1773 1 22.08 5.75293 7.43577 5.98459 -218574 -98250.4 32756 101635 19394.7 -37937.8 -7.4178 
1774 1 21.3515 4.53566 7.43257 5.99634 -202650 -115921 -25330.5 120227 -6894.06 -26146 -7.4142 
1775 1 22.0376 3.29521 7.43462 5.98068 -196465 -122063 19739.1 107656 17329.1 -36296.4 -7.41696 
1776 1 21.3078 2.07873 7.43219 5.9882 -181980 -137039 -12028.4 124407 -11654.6 -28609.1 -7.41489 
1777 1 21.9946 0.838751 7.43498 5.9741 -173080 -146428 5512.28 109220 14580.9 -34105.9 -7.41609 
1929 1 24.2641 9.41576 7.44449 5.98204 -248936 -61895.7 53518.9 102015 21886.2 -38201.4 -7.41945 
1930 1 23.5383 8.19671 7.44069 5.99059 -233321 -81809.6 -46944.9 123283 -1926.9 -21659.9 -7.4133 
1931 1 24.2245 6.95614 7.44147 5.98047 -229971 -84429.9 42375.1 115171 21335.5 -37496.2 -7.41866 
1932 1 23.4972 5.738 7.43853 5.99309 -214505 -102730 -34836.1 134877 -6930.74 -24431.7 -7.4139 
1933 1 24.1837 4.49776 7.44024 5.97687 -208991 -108082 28957.6 123807 19957.9 -36224.3 -7.41777 
1934 1 23.4549 3.28046 7.43815 5.98545 -194243 -124182 -20784.5 141654 -11648.2 -26931.5 -7.41464 
1935 1 24.142 2.04065 7.44067 5.97112 -186184 -132367 13874.4 127807 17848.4 -34395.1 -7.41683 
1936 1 23.412 0.824101 7.43926 5.97782 -172775 -145948 -5543.23 143619 -15808.6 -29169.4 -7.41549 
2088 1 25.6812 9.40222 7.44546 5.98649 -242332 -70158.2 -56462.2 132430 -2146.9 -19565.7 -7.41297 
2089 1 26.3678 8.16194 7.44581 5.97736 -238931 -72263.1 51804.2 126242 22663.5 -36113.8 -7.41949 
2090 1 25.6416 6.94298 7.44308 5.98966 -224830 -90511.9 -44448.3 146677 -6947.14 -22249.7 -7.41357 
2091 1 26.3286 5.70299 7.44442 5.97293 -219740 -95041.8 38421 137500 21953.3 -35159 -7.41858 
2092 1 25.6009 4.48488 7.44263 5.98374 -205648 -111664 -30151.4 156176 -11584.4 -24693.9 -7.41432 
2093 1 26.2883 3.24527 7.44488 5.96932 -198457 -118746 23004 144070 20474.1 -33684.5 -7.41758 
2094 1 25.5593 2.02795 7.44388 5.97504 -184876 -133236 -14219.2 160689 -15755.8 -26895 -7.4152 
2095 1 26.2473 0.788802 7.44682 5.9628 -175374 -142950 6267.32 145892 18270.7 -31724.2 -7.41656 
2248 1 27.7849 8.15037 7.44638 5.98708 -232712 -79895.2 -53717 155475 -6901.67 -19851.5 -7.41321 
2250 1 27.7457 5.69179 7.44573 5.98191 -215227 -100207 -39595.2 167578 -11430.7 -22173.1 -7.41395 
2252 1 27.7055 3.23433 7.44702 5.97335 -195967 -121054 -23483 174740 -15601.6 -24280.2 -7.41484 
2254 1 27.6646 0.778012 7.4498 5.96552 -175132 -142344 -6121.04 176854 -19161 -26176 -7.41583 
2247 1 28.51 9.3701 7.44904 5.97519 -245190 -62147.3 60697.6 134631 23431.7 -34084.6 -7.42024 
2249 1 28.4724 6.91066 7.44735 5.97004 -228259 -83619.5 47679.9 148381 23345.5 -33373.2 -7.41934 
2251 1 28.4335 4.45241 7.44771 5.96644 -209081 -106168 32368.8 157544 22467.4 -32210 -7.41833 
2253 1 28.3938 1.99536 7.4498 5.96126 -187784 -129413 15351.6 161866 20853.3 -30599.2 -7.41726 
2406 1 29.9271 9.35993 7.44875 5.98501 -238075 -71446.4 -62354.2 161323 -6772.51 -17416 -7.41287 
2407 1 30.6151 8.12053 7.44937 5.96811 -234101 -74280 56429.8 156447 24199.9 -31113 -7.42005 
2408 1 29.8895 6.90095 7.44775 5.97939 -222624 -90387 -48718.3 175872 -11170.3 -19571.3 -7.41358 
2409 1 30.5777 5.66183 7.44945 5.96378 -217392 -95296.9 41554 168055 23881.1 -30200.1 -7.41905 
2410 1 29.8507 4.44305 7.4489 5.97256 -205385 -110144 -32841.8 185606 -15325 -21548.3 -7.41445 
2411 1 30.5393 3.20428 7.45151 5.9597 -198364 -117161 24686.3 174939 22822.1 -28899.4 -7.41796 
2412 1 29.811 1.98622 7.45181 5.96397 -186336 -130341 -15338.3 190318 -18958.4 -23336.7 -7.41544 
2413 1 30.5003 0.747882 7.45502 5.95408 -177237 -139522 6515.58 177004 21037.9 -27239.8 -7.41684 
2565 1 32.7569 9.33231 7.45088 5.96701 -237240 -67185.3 64505.5 161735 24596 -28576.1 -7.4207 
2566 1 32.0322 8.11211 7.44909 5.97771 -227399 -82572.4 -57272.7 181200 -10799 -17019.7 -7.41321 
2567 1 32.7209 6.87327 7.45052 5.96204 -223202 -86393 50286.9 175681 24790.4 -27849.5 -7.41972 
2568 1 31.9948 5.65384 7.44989 5.97246 -212463 -100867 -41936.5 193386 -14917.3 -18845.3 -7.41404 
2569 1 32.6838 4.41529 7.45231 5.95859 -206866 -106596 33887.4 185037 24245.1 -26805.8 -7.41864 
2570 1 31.9565 3.19659 7.45271 5.96329 -195620 -119665 -24692.7 200630 -18616.9 -20510.9 -7.41501 
2571 1 32.646 1.9584 7.45583 5.95262 -188162 -127352 15866.6 189588 22987.8 -25452.7 -7.4175 
2572 1 31.9176 0.740352 7.45698 5.95584 -176933 -138850 -6236.09 202867 -21675.4 -22014 -7.41608 
2724 1 34.174 9.32498 7.45016 5.97674 -229606 -76923.3 -65137.9 183833 -10323.8 -14595.2 -7.41287 
2725 1 34.8633 8.08646 7.45134 5.96111 -226303 -79688.2 58421.6 180565 25276.9 -25310.3 -7.42035 
2726 1 34.138 6.86645 7.45045 5.9709 -217127 -93500.3 -50544.6 198246 -14381.1 -16255.7 -7.41364 
2727 1 34.8275 5.62815 7.45267 5.95699 -212740 -97967.7 42706.1 192256 25203 -24467.3 -7.41928 
2728 1 34.101 4.40885 7.45291 5.96329 -202830 -110729 -33853.7 207957 -18129.5 -17790.4 -7.41457 
2729 1 34.7908 3.17085 7.45592 5.952 -196855 -116993 25139.2 199269 24430.8 -23372.4 -7.41815 
2730 1 34.0632 1.95219 7.4571 5.9553 -186561 -128370 -15634.3 212738 -21322.8 -19183 -7.41561 
2731 1 34.7535 0.714559 7.46054 5.94695 -178587 -136430 6369.76 201550 22955.3 -22050.8 -7.417 
2883 1 37.0049 9.30111 7.4523 5.96088 -226733 -75240.4 65908.5 182949 25415.6 -22693.5 -7.42092 
2884 1 36.2804 8.08061 7.45098 5.97005 -219175 -88245.1 -58557.2 200486 -13725.2 -13824.4 -7.41327 
2885 1 36.9704 6.84259 7.45299 5.95617 -216056 -91499.4 51011.3 196799 25773.3 -22000 -7.41989 
2886 1 36.2446 5.62276 7.45288 5.96375 -207461 -103699 -42616.1 212474 -17497.5 -15221.4 -7.41414 
2887 1 36.9348 4.38497 7.45572 5.95187 -203042 -108546 34107.6 206182 25445 -21113.2 -7.41878 
2888 1 36.208 3.16577 7.45669 5.95538 -193879 -119608 -24912.3 219716 -20811.2 -16503.2 -7.41514 
2889 1 36.8985 1.92827 7.46004 5.94637 -187654 -126095 15728 210918 24437.5 -20044.3 -7.41762 
2890 1 36.1708 0.709636 7.46184 5.94866 -178183 -135736 -6085.2 222066 -23477 -17661.6 -7.41624 
3042 1 38.422 9.29608 7.45182 5.96984 -218681 -85128.9 -65943 200381 -12962.7 -11573.7 -7.41294 
3043 1 39.1125 8.05834 7.45364 5.95601 -216631 -87208.4 58755.6 198905 26024.4 -19488.3 -7.42046 
3044 1 38.3875 6.83807 7.45302 5.96415 -209628 -98718.6 -50872.3 214474 -16728.8 -12825.2 -7.41374 
3045 1 39.0781 5.60051 7.45567 5.95183 -206611 -102214 42649 210518 26102.7 -18763.9 -7.41937 
3046 1 38.352 4.38083 7.45621 5.95589 -198762 -112811 -33875.7 224058 -20140.8 -13992.7 -7.41468 
3047 1 39.0428 3.14349 7.45941 5.94641 -194270 -117820 24860.9 217620 25522.4 -17902.1 -7.41823 
3048 1 38.3158 1.92436 7.46092 5.94879 -185903 -127188 -15478.8 228869 -22984.1 -15056.4 -7.41574 
3049 1 39.007 0.687313 7.46433 5.94212 -179444 -133709 5999.05 220111 24266 -16922.2 -7.41707 
3201 1 41.2542 9.27516 7.45486 5.95645 -214724 -85039.5 65941.5 198795 26010.6 -16988 -7.42099 
3202 1 40.5297 8.05452 7.45364 5.96401 -209165 -95790.6 -58585.9 214205 -15834.6 -10610.8 -7.41337 
3203 1 41.2208 6.81721 7.45609 5.95202 -207583 -98032.4 50714.2 212462 26464 -16388.8 -7.41994 
3204 1 40.4952 5.59713 7.45603 5.95669 -201094 -108052 -42419.8 225953 -19316.7 -11656.8 -7.41425 
3205 1 41.1864 4.35998 7.45904 5.94649 -198211 -111602 33654.3 221857 26274.5 -15693.4 -7.41882 
3206 1 40.46 3.14042 7.46006 5.94935 -191134 -120535 -24639.7 233145 -22320.3 -12624 -7.41525 
3207 1 41.1514 1.90349 7.46331 5.94213 -186479 -125499 15267.7 226735 25434.8 -14912.3 -7.41766 
3208 1 40.4242 0.684388 7.46521 5.94358 -178998 -133207 -5835.72 235644 -24684.6 -13500.5 -7.41635 
3360 1 42.6714 9.27189 7.45492 5.96442 -206354 -94910.6 -65761.1 211846 -14828.6 -8580.19 -7.41303 
3361 1 43.3629 8.03485 7.45717 5.95247 -205943 -95888.9 58297.7 212250 26574.3 -14028.9 -7.42048 
3362 1 42.6379 6.81444 7.45645 5.9577 -200893 -105239 -50500.2 225642 -18347.7 -9496.42 -7.41384 
3363 1 43.3295 5.5775 7.45922 5.94673 -199570 -107415 42057.4 223789 26745.4 -13467 -7.41939 
3364 1 42.6036 4.35758 7.4596 5.95015 -193724 -115856 -33464.2 235083 -21488.7 -10360.7 -7.41478 
3365 1 43.2953 3.12079 7.46264 5.94239 -190980 -119346 24286.2 230956 26287.6 -12848.4 -7.41824 
3366 1 42.5686 1.90131 7.464 5.94412 -184597 -126671 -15145.5 239959 -24062.9 -11153.3 -7.41584 
3367 1 43.2606 0.664715 7.467 5.93913 -179875 -131485 5557.73 233661 25176.9 -12184.8 -7.41709 
3519 1 45.5047 9.25318 7.45899 5.95311 -201854 -95731.9 65412.5 209976 26467.1 -11704.6 -7.421 
3520 1 44.7801 8.03253 7.45759 5.95848 -198248 -104450 -58107.9 223289 -17246.1 -7509.68 -7.41346 
3521 1 45.4721 6.79581 7.46014 5.94709 -198357 -105354 50051.9 223545 26975.3 -11251.7 -7.41994 
3522 1 44.7467 5.57562 7.4598 5.95117 -193889 -113277 -41902 234853 -20496.1 -8262.25 -7.41434 
3523 1 45.4387 4.33898 7.46258 5.94259 -192783 -115348 32997.3 232950 26870.3 -10766.5 -7.41882 
3524 1 44.7125 3.11919 7.46326 5.94489 -187745 -122222 -24202.2 242016 -23264.2 -8965 -7.41534 
3525 1 45.4046 1.88269 7.46604 5.93944 -184860 -125496 14735.5 237992 26136.3 -10255.8 -7.41767 
3526 1 44.6778 0.66325 7.4676 5.94018 -179358 -131168 -5564.59 244659 -25409.8 -9606.05 -7.41643 
3678 1 46.922 9.25119 7.45951 5.95922 -193301 -105632 -65252.1 218976 -16025.9 -5691.29 -7.41311 
3680 1 46.8893 6.7943 7.46077 5.95195 -191516 -112593 -49934.1 232604 -19351.7 -6324.69 -7.41392 
3682 1 46.8559 4.33782 7.46321 5.94586 -188168 -119669 -32951.8 241976 -22292.2 -6929.49 -7.41486 
3684 1 46.8218 1.88173 7.46658 5.9409 -182887 -126842 -14777.2 246948 -24676.7 -7489.01 -7.4159 
3679 1 47.6144 8.0147 7.46184 5.94768 -194547 -105229 57638.2 221309 26992.4 -9059.44 -7.42046 
3681 1 47.5817 5.55785 7.4633 5.94287 -191918 -113289 41376.9 232854 27217.6 -8686.2 -7.41937 
3683 1 47.5482 3.10144 7.46573 5.93961 -187118 -121526 23694.4 240128 26833.1 -8303.08 -7.41823 
3685 1 47.5143 0.645471 7.46887 5.93753 -179934 -129921 5141.75 243039 25812.2 -7914.54 -7.41709 
3837 1 49.7565 9.23396 7.46429 5.94842 -188452 -107018 64821.3 217119 26815 -6888.48 -7.42097 
3838 1 49.0317 8.01343 7.46254 5.95271 -186715 -113860 -57557.1 228436 -18067.2 -4541.41 -7.41354 
3839 1 49.7244 6.77717 7.46482 5.94334 -188627 -113275 49411.2 230721 27354.2 -6612.24 -7.41991 
3840 1 48.9989 5.55698 7.46398 5.94664 -186114 -119230 -41367.4 239940 -21152.9 -5040.56 -7.41441 
3841 1 49.6915 4.32074 7.46622 5.93979 -186813 -119674 32399.9 240237 27297.9 -6338.18 -7.4188 
3842 1 48.9654 3.10084 7.4663 5.94178 -183777 -124560 -23767.1 247175 -23762.6 -5511.4 -7.4154 
3843 1 49.658 1.86465 7.46833 5.93778 -182726 -126148 14262.5 245454 26625.4 -6068.13 -7.41766 
3844 1 48.9315 0.644991 7.46926 5.93811 -179340 -129898 -5292.7 250016 -25767.4 -5943.67 -7.41647 
3996 1 51.1738 9.23278 7.46506 5.9536 -179749 -116965 -64770.9 222418 -16657 -2903.44 -7.41318 
3997 1 51.867 7.99675 7.46712 5.94399 -182771 -115120 57092.7 226684 27297.8 -4539.16 -7.42044 
3998 1 51.1417 6.77646 7.46557 5.94734 -181677 -120639 -49432.4 236005 -19854.5 -3291.01 -7.41398 
3999 1 51.8346 5.54038 7.46755 5.94012 -183863 -119734 40829.9 238367 27554 -4360.78 -7.41935 
4000 1 51.1088 4.32036 7.46684 5.9425 -182124 -124236 -32499.2 245465 -22669.4 -3665.98 -7.41492 
4001 1 51.8016 3.08427 7.46859 5.93782 -182882 -124428 23214.2 245847 27210.2 -4193.57 -7.41822 
4002 1 51.0753 1.86446 7.46874 5.93888 -180703 -127850 -14434.1 250615 -24940.1 -4014.86 -7.41595 
4003 1 51.7681 0.628418 7.47013 5.93701 -179599 -129215 4785.6 249005 26239 -4038.24 -7.41709 
4155 1 54.0095 9.21637 7.47008 5.94483 -174652 -118799 64413.6 220779 27058.8 -2454.4 -7.42095 
4156 1 53.2843 7.99606 7.46791 5.94818 -174804 -123878 -57138.3 230205 -18406.7 -1671.47 -7.41358 
4157 1 53.9777 6.76016 7.46967 5.94063 -178430 -121712 48966 234538 27617.4 -2362.41 -7.41989 
4158 1 53.2519 5.54009 7.46823 5.9431 -177938 -125891 -40951 241818 -21400.1 -1943.97 -7.41446 
4159 1 53.945 4.30412 7.46971 5.938 -180375 -124675 31967.3 244284 27587.5 -2286.56 -7.41878 
4160 1 53.2188 3.08424 7.46907 5.9395 -179435 -127723 -23402.6 249240 -23925 -2202.82 -7.41544 
4161 1 53.9117 1.84825 7.47019 5.93694 -180140 -127620 13891 249759 26945.8 -2226.92 -7.41764 
4162 1 53.1853 0.628497 7.47034 5.9371 -178917 -129522 -5023.9 252326 -25857.4 -2439.21 -7.4165 
4314 1 55.427 9.21559 7.47088 5.9492 -165836 -129067 -64474.8 222575 -16821.1 -172.463 -7.41321 
4315 1 56.1207 7.97989 7.47246 5.94135 -170574 -125650 56789 228832 27498.5 -329.701 -7.42042 
4316 1 55.395 6.75983 7.47038 5.94386 -171404 -129467 -49102.4 236303 -19959.4 -336.121 -7.41402 
4317 1 56.0883 5.52401 7.47164 5.93835 -175365 -126916 40494.7 240778 27772.4 -336.698 -7.41933 
4318 1 55.3622 4.30412 7.47025 5.93998 -175640 -129668 -32168.3 245959 -22719.8 -497.752 -7.41495 
4319 1 56.0553 3.06821 7.47111 5.93693 -178221 -128178 22881.5 248534 27446.5 -363.007 -7.4182 
4320 1 55.329 1.84843 7.47046 5.93763 -178082 -129775 -14137.8 251343 -24943.2 -646.172 -7.41597 
4321 1 56.022 0.612489 7.47087 5.93659 -178811 -129437 4489.51 251972 26493.7 -408.764 -7.41707 
4473 1 58.2638 9.19936 7.47576 5.94229 -160402 -131391 64277.3 221208 27202.5 1753.59 -7.42094 
4474 1 57.5381 7.97939 7.47318 5.94478 -162505 -134887 -56932.7 228877 -18353.1 1165.63 -7.41361 
4475 1 58.2318 6.74372 7.47426 5.9389 -167810 -131049 48769.6 235299 27775.4 1669.32 -7.41988 
4476 1 57.5057 5.5239 7.47221 5.94061 -169363 -133500 -40702.9 240733 -21322.8 1109.41 -7.41448 
4477 1 58.199 4.2881 7.47285 5.93688 -173518 -130626 31724.3 245348 27755.7 1564.59 -7.41876 
4478 1 57.4726 3.06835 7.47144 5.93795 -174733 -131949 -23132.8 248415 -23827.7 1057.16 -7.41546 
4479 1 58.1657 1.83246 7.4716 5.93614 -177204 -130201 13623.8 251114 27118.8 1437.78 -7.41763 
4480 1 57.4392 0.612732 7.47093 5.93683 -178087 -130205 -4758.52 251695 -25743.8 1017.38 -7.41652 
4632 1 59.6813 9.19855 7.4764 5.94593 -151495 -142271 -64417.6 219546 -16588.8 2564.86 -7.41322 
4633 1 60.3754 7.96308 7.47739 5.93967 -157885 -137166 56757.2 227879 27601.2 3746.88 -7.42041 
4634 1 59.6492 6.74338 7.47482 5.94142 -160709 -139362 -48978 233566 -19733.3 2624.79 -7.41403 
4635 1 60.3428 5.5077 7.47529 5.93695 -166408 -135107 40384.8 240197 27882.2 3568.7 -7.41932 
4636 1 59.6163 4.28807 7.47322 5.93842 -168711 -136100 -31977 243509 -22502.8 2678.93 -7.41496 
4637 1 60.3095 3.05224 7.47314 5.93585 -173061 -132898 22696 248291 27552.7 3367.66 -7.41818 
4638 1 59.5829 1.8326 7.47171 5.93699 -175049 -132675 -13891.7 249155 -24734.8 2738.42 -7.41599 
4639 1 60.2759 0.596665 7.47112 5.93635 -177641 -130724 4244.48 251961 26586 3140.54 -7.41705 
4791 1 62.5192 9.18188 7.48074 5.94041 -145677 -145148 64412.2 218461 27247.9 5913.87 -7.42094 
4792 1 61.7929 7.96236 7.47786 5.94246 -149762 -147090 -56957.5 224421 -17951.7 4048.02 -7.4136 
4793 1 62.4868 6.72684 7.47822 5.93725 -156707 -141538 48819.3 232990 27830.7 5663.56 -7.41987 
4794 1 61.7601 5.50737 7.47564 5.9391 -160384 -142357 -40632.7 236623 -20960.3 4222.43 -7.41448 
4795 1 62.4536 4.27164 7.47539 5.93575 -166269 -137748 31665 243455 27803.2 5392.36 -7.41875 
4796 1 61.7268 3.05215 7.47329 5.93731 -169547 -137227 -22959.4 244586 -23501.9 4393.91 -7.41546 
4797 1 62.4199 1.81625 7.47246 5.93589 -173853 -133772 13452.5 249529 27141.6 5093.77 -7.41761 
4798 1 61.6932 0.596683 7.47101 5.93676 -176870 -131923 -4491.46 248132 -25448.8 4570.82 -7.41653 
4950 1 63.9368 9.18065 7.481 5.94379 -136713 -156796 -64588.4 213266 -15982 5370.17 -7.4132 
4951 1 64.6311 7.9453 7.48136 5.93787 -144742 -149899 56966.2 223782 27599.9 7865.89 -7.42041 
4952 1 63.9042 6.72607 7.47846 5.94 -149532 -150488 -49052.4 227694 -19192.9 5682.81 -7.41402 
4953 1 64.5979 5.49045 7.47811 5.9359 -156918 -144448 40478.7 236571 27874.7 7524.96 -7.41931 
4954 1 63.8709 4.27119 7.4755 5.93782 -161374 -143722 -31917.7 237997 -22029.5 5983.77 -7.41495 
4955 1 64.5641 3.03533 7.47449 5.93562 -167480 -138788 22643.6 245053 27513.4 7158.64 -7.41817 
4956 1 63.8372 1.81597 7.47237 5.93673 -171625 -136712 -13687.8 243941 -24320.3 6282.78 -7.41599 
4957 1 64.53 0.579932 7.4708 5.93705 -176024 -133016 4043.05 249050 26491.9 6757.01 -7.41703 
5109 1 66.7758 9.16291 7.48429 5.9389 -130651 -160163 64730.9 212487 27180.2 10198.1 -7.42093 
5110 1 66.0487 7.94396 7.48134 5.94122 -136608 -160621 -57169.9 216698 -17196.3 7045 -7.41358 
5111 1 66.7426 6.70848 7.48099 5.93638 -145212 -153205 49058.7 227555 27764.8 9781.34 -7.41986 
5112 1 66.0153 5.4895 7.47807 5.93859 -150849 -152337 -40711.6 229310 -20301.8 7497.19 -7.41446 
5113 1 66.7087 4.25372 7.47697 5.93563 -158534 -145894 31755.4 238486 27704 9346.34 -7.41873 
5114 1 65.9814 3.03463 7.47434 5.93699 -163898 -143601 -22861.9 237647 -22934.3 7939.69 -7.41545 
5115 1 66.6743 1.7986 7.47258 5.93663 -170067 -138376 13360.7 244931 26976.6 8877.52 -7.41758 
5116 1 65.9472 0.579325 7.47047 5.93703 -175198 -134647 -4209.62 241492 -24957.8 8377.82 -7.41653 
5268 1 68.1935 9.16085 7.48385 5.94283 -121679 -172551 -64879.3 203573 -14971.7 8284.1 -7.41316 
5269 1 68.8878 7.92554 7.48359 5.9373 -131306 -163712 57288.5 216392 27464.6 12184.6 -7.42039 
5270 1 68.1602 6.70688 7.48066 5.93969 -138003 -162805 -49254 218487 -18305.2 8913.24 -7.41398 
5271 1 68.8537 5.47121 7.47954 5.93598 -147154 -154924 40696.1 229700 27711.1 11673 -7.41929 
5272 1 68.1261 4.25244 7.47663 5.93762 -153614 -152480 -31946 229173 -21266.1 9524.9 -7.41493 
5273 1 68.8191 3.01646 7.47476 5.9365 -161513 -145675 22681 238646 27278.4 11135.1 -7.41814 
5274 1 68.0916 1.7975 7.47216 5.93714 -167787 -141768 -13501.1 235476 -23668 10124.5 -7.41598 
5275 1 68.7841 0.561248 7.46972 5.93882 -173979 -136266 3871.87 242992 26147.6 10551.4 -7.41698 
5427 1 71.0335 9.14142 7.48543 5.93878 -115663 -176110 64992.2 203020 26960.1 14763.5 -7.42089 
5428 1 70.3055 7.92315 7.48278 5.94122 -123223 -175172 -57415.5 205400 -16031.3 10199.6 -7.41353 
5429 1 70.9993 6.6876 7.48176 5.93683 -133604 -165762 49320.3 218652 27527.8 14161.6 -7.41983 
5430 1 70.2713 5.46921 7.47886 5.93875 -141045 -163305 -40838.3 218455 -19291.8 11009.9 -7.41442 
5431 1 70.9644 4.2333 7.47698 5.93676 -150582 -154958 31893.5 230056 27395.7 13545.2 -7.41869 
5432 1 70.2364 3.01471 7.47413 5.93765 -157872 -150894 -22783.9 227160 -22073 11800.9 -7.41542 
5433 1 70.929 1.77846 7.47157 5.93859 -165896 -143805 13301.8 236907 26547.8 12890.1 -7.41753 
5434 1 70.2014 0.559586 7.46909 5.93843 -173085 -138227 -3896.6 231339 -24225.9 12569.1 -7.41652 
5586 1 72.4513 9.13809 7.48396 5.94329 -106825 -189231 -65003.4 190071 -13478.6 11314.8 -7.41311 
5587 1 73.1455 7.9027 7.48313 5.93829 -118150 -178325 57419.3 205250 27142.2 16840.1 -7.42033 
5588 1 72.417 6.68473 7.48055 5.94052 -126467 -175953 -49381.4 205392 -16991.3 12355 -7.41393 
5589 1 73.1103 5.4489 7.47876 5.93756 -137414 -166037 40829 219066 27322.6 16130.2 -7.41923 
5590 1 72.3818 4.23074 7.47595 5.93871 -145668 -161976 -31938.7 216492 -20137.7 13369.9 -7.41489 
5591 1 73.0744 2.99451 7.47338 5.9388 -155435 -153273 22691.1 228438 26763.4 15393.2 -7.41808 
5592 1 72.3463 1.77607 7.47068 5.93886 -163600 -147552 -13281.8 223124 -22711.2 14353.9 -7.41595 
5593 1 73.0383 0.539489 7.46758 5.94199 -171654 -140215 3696.71 233132 25454.7 14600.8 -7.41691 
5746 1 74.5632 7.8988 7.48122 5.9428 -110204 -190288 -57341.5 189909 -14352.4 13511.4 -7.41348 
5748 1 74.5278 5.44539 7.47717 5.94046 -131389 -174865 -40776.8 203351 -17829.6 14783.2 -7.41437 
5750 1 74.4918 2.99123 7.47206 5.93987 -151797 -158784 -22603.8 212413 -20824.8 16018.4 -7.41538 
5752 1 74.4556 0.53629 7.46652 5.9413 -170704 -142395 -3541.49 216881 -23171.6 17196.3 -7.41648 
5745 1 75.2922 9.11632 7.48317 5.9405 -101326 -192526 64709.1 189500 26547.5 19731.4 -7.42079 
5747 1 75.2568 6.66309 7.47963 5.93904 -122333 -178763 49241.4 205580 27054.4 18914.1 -7.41973 
5749 1 75.2205 4.20921 7.47469 5.9396 -142699 -164500 31844.4 217449 26792.9 18080.2 -7.4186 
5751 1 75.1838 1.75463 7.46895 5.94218 -161606 -149833 13167.4 224666 25753.9 17201.3 -7.41744 
5904 1 76.7102 9.11121 7.48042 5.94561 -92762.1 -206101 -64405.9 172093 -11371.3 14421 -7.41306 
5905 1 77.404 7.87564 7.47912 5.94134 -105961 -192996 56802.5 189585 26592.7 21907.5 -7.42018 
5906 1 76.6745 6.65844 7.47729 5.94304 -115405 -189379 -49027.6 187682 -15122.9 15982.7 -7.41388 
5907 1 77.3674 5.42233 7.47501 5.94113 -128208 -177336 40479 203803 26637.7 20965.5 -7.4191 
5908 1 76.6381 4.20487 7.47275 5.94165 -137897 -171830 -31648.1 199109 -18520.9 17502.7 -7.41483 
5909 1 77.3301 2.96827 7.46973 5.94302 -149466 -161142 22444.7 213569 25874.1 19986.7 -7.41795 
5910 1 76.6012 1.75045 7.46741 5.94234 -159325 -153777 -12943.6 206072 -21335 18958.2 -7.41589 
5911 1 77.2924 0.513411 7.46397 5.94697 -169143 -144651 3460.41 218587 24303.5 18938.9 -7.41679 
6063 1 79.5519 9.08638 7.47696 5.94461 -88771.3 -208375 63117.9 171177 25956 25083.8 -7.42055 
6064 1 78.8219 7.86968 7.47594 5.94606 -98296 -205152 -56328.4 169523 -12001.6 16900.8 -7.41343 
6065 1 79.5149 6.63368 7.47393 5.94357 -112272 -191444 48227.1 187475 26308.8 24041.1 -7.41953 
6066 1 78.785 5.41675 7.4723 5.9443 -122385 -186370 -40100.6 183153 -15759.3 18737.3 -7.4143 
6067 1 79.4771 4.18018 7.46946 5.94466 -135423 -173922 31215.5 199671 25822.8 22955.5 -7.41843 
6068 1 78.7475 2.96291 7.46753 5.94416 -145930 -166830 -22106.6 192517 -19037.6 20504.1 -7.41531 
6069 1 79.4387 1.72583 7.46417 5.94788 -157377 -156023 12784.9 207230 24497 21805.1 -7.41728 
6070 1 78.7097 0.508122 7.4623 5.94614 -168165 -146923 -3145.85 197260 -21651.3 22158.2 -7.41641 
6222 1 80.9699 9.07893 7.47293 5.94903 -80671.3 -221945 -62243.9 149079 -8461.88 17457.8 -7.41305 
6223 1 81.6632 7.84305 7.47124 5.94709 -95830.8 -206529 54649 168643 25837.6 27246.3 -7.41987 
6224 1 80.9327 6.62667 7.47038 5.94695 -105687 -202074 -47551.3 164644 -12512.3 19640.8 -7.41383 
6225 1 81.6249 5.39015 7.46779 5.94731 -120281 -187919 39068.9 182958 25621.4 26069.4 -7.41883 