ITEM: TIMESTEP
0
ITEM: NUMBER OF ATOMS
16856
ITEM: BOX BOUNDS pp pp pp
0.0000000000000000e+00 1.1273548200000000e+02
0.0000000000000000e+00 1.9526358200000001e+02
0.0000000000000000e+00 1.8399999999999999e+01
ITEM: ATOMS id type x y z c_csym c_2[1] c_2[2] c_2[3] c_2[4] c_2[5] c_2[6] c_3 
180 1 0.802578 8.58777 7.5 6.03193 -144631 -132361 -153595 -428.808 14660.4 -2390.2 -7.41077 
181 1 0.0802578 7.36756 7.5 6.03193 -134399 -141650 -153180 144.531 14890 -482.996 -7.41081 
182 1 0.775826 6.13191 7.5 6.03193 -141893 -133494 -155611 -429.632 10467.3 -2051.09 -7.41068 
183 1 0.0535052 4.91171 7.5 6.03193 -134790 -139991 -156020 97.3539 9450.69 -350.506 -7.41067 
184 1 0.749073 3.67606 7.5 6.03193 -139555 -134757 -157092 -430.52 6312.04 -1716.32 -7.41061 
185 1 0.0267526 2.45585 7.5 6.03193 -135627 -138379 -157579 49.3313 4522.15 -189.593 -7.41059 
186 1 0.72232 1.2202 7.5 6.03191 -137629 -136146 -157907 -430.952 2111.18 -1403.77 -7.41057 
187 1 0 0 7.5 6.03191 -136919 -136931 -158057 48.3441 0.0134211 0.064785 -7.41057 
340 1 2.22047 8.57232 7.5 6.03194 -134397 -142619 -151121 1920.14 17544.8 -3801.33 -7.41091 
341 1 2.91603 7.33667 7.5 6.03194 -143199 -133225 -153738 -1276.44 12683.8 -6869.46 -7.41077 
342 1 2.19371 6.11647 7.5 6.03194 -134564 -140944 -154605 1754.1 11831.6 -3796.87 -7.41074 
343 1 2.88928 4.88082 7.5 6.03194 -140671 -134421 -155631 -1423.87 8477.71 -6215.9 -7.41068 
344 1 2.16696 3.66061 7.5 6.03194 -135179 -139302 -156710 1575.04 6655.33 -3793.22 -7.41063 
345 1 2.86253 2.42496 7.5 6.03192 -138548 -135752 -156918 -1573.51 4265.87 -5606.47 -7.41062 
346 1 2.14021 1.20476 7.5 6.03192 -136251 -137815 -157637 1435.56 1946.29 -3798.95 -7.41059 
499 1 5.05624 8.54143 7.5 6.03194 -144617 -133315 -150460 -1958.92 15219.8 -12072.1 -7.41094 
500 1 4.33392 7.32123 7.5 6.03194 -134593 -142236 -152598 3529.09 14254 -7206.14 -7.41083 
501 1 5.02949 6.08558 7.5 6.03194 -141924 -134439 -152878 -2251.59 10953.9 -11108 -7.41082 
502 1 4.30717 4.86537 7.5 6.03194 -134984 -140567 -155181 3229.01 8787.84 -7341.79 -7.4107 
503 1 5.00274 3.62972 7.5 6.03194 -139624 -135698 -154748 -2550.8 6689.18 -10190.1 -7.41073 
504 1 4.28042 2.40952 7.5 6.03192 -135810 -138953 -156482 2908.37 3824.83 -7511.59 -7.41064 
505 1 4.97598 1.17387 7.5 6.03192 -137752 -137174 -155933 -2899.4 2355.94 -9358.57 -7.41067 
657 1 7.19645 9.74619 7.5 6.03194 -146109 -133765 -145587 -2464.3 18030 -17654.4 -7.41118 
658 1 6.47413 8.52598 7.5 6.03194 -134809 -143853 -150125 5403.37 16728.8 -10622.5 -7.41095 
659 1 7.1697 7.29033 7.5 6.03194 -143287 -134810 -148634 -2899.07 13734.9 -16424 -7.41104 
660 1 6.44738 6.07013 7.5 6.03194 -134985 -142167 -153121 4996.95 10963.4 -10906.9 -7.4108 
661 1 7.14295 4.83448 7.5 6.03194 -140831 -135997 -151193 -3349.11 9410.88 -15217.7 -7.41091 
662 1 6.42063 3.61428 7.5 6.03194 -135592 -140513 -154730 4551.75 5703.55 -11230.7 -7.41072 
663 1 7.11619 2.37863 7.5 6.03192 -138765 -137325 -153127 -3804.63 5032.67 -14092.1 -7.41081 
664 1 6.39387 1.15842 7.5 6.03192 -136642 -139017 -155151 4128.27 892.245 -11620.7 -7.41071 
816 1 8.61434 9.73074 7.5 6.03194 -135194 -145763 -147307 7350.19 19221 -14022.1 -7.41108 
817 1 9.30991 8.49509 7.5 6.03194 -144727 -135529 -142719 -3353.23 16763.1 -22117.1 -7.41134 
818 1 8.58759 7.27489 7.5 6.03194 -135170 -144076 -150649 6858.36 13184.6 -14494.7 -7.41091 
819 1 9.28315 6.03924 7.5 6.03194 -142147 -136637 -146060 -3951.37 12413.6 -20678.6 -7.41117 
820 1 8.56083 4.81903 7.5 6.03194 -135565 -142400 -152503 6303.82 7619.25 -14990.3 -7.41082 
821 1 9.2564 3.58338 7.5 6.03194 -139937 -137887 -148841 -4564.12 7989.4 -19289.2 -7.41103 
822 1 8.53408 2.36318 7.5 6.03192 -136372 -140779 -153062 5703.79 2515.94 -15547.4 -7.4108 
823 1 9.22965 1.12753 7.5 6.03192 -138137 -139360 -150913 -5226.01 3447.09 -18005.3 -7.41092 
975 1 11.4501 9.69985 7.5 6.03194 -146208 -136579 -134993 -3607.47 19931.1 -28057.5 -7.41174 
976 1 10.7278 8.47965 7.5 6.03194 -135520 -146244 -147881 8781.22 15409 -18039 -7.41104 
977 1 11.4234 7.244 7.5 6.03194 -143543 -137602 -139184 -4346.35 15628.8 -26477.4 -7.41152 
978 1 10.701 6.02379 7.5 6.03194 -135720 -144568 -149916 8138.89 9567.03 -18751.7 -7.41094 
979 1 11.3966 4.78814 7.5 6.03194 -141216 -138773 -142895 -5114.52 11197.2 -24890 -7.41133 
980 1 10.6743 3.56794 7.5 6.03194 -136321 -142919 -150552 7425.34 4166.18 -19499.3 -7.41092 
981 1 11.3699 2.33229 7.5 6.03192 -139253 -140091 -145967 -5892.24 6636.04 -23365.3 -7.41117 
982 1 10.6475 1.11208 7.5 6.03192 -137337 -141426 -149979 6708.99 -825.994 -20318.5 -7.41096 
1134 1 12.868 9.68441 7.5 6.03194 -136000 -148595 -144941 10720.6 17552.2 -21407.7 -7.41117 
1135 1 13.5636 8.44876 7.5 6.03194 -144984 -138864 -130452 -4528.86 18941.6 -32436.9 -7.41198 
1136 1 12.8413 7.22855 7.5 6.03194 -136035 -146952 -147087 10020.8 11498.4 -22404.5 -7.41107 
1137 1 13.5368 5.9929 7.5 6.03194 -142578 -139952 -135144 -5443.1 14578 -30748.4 -7.41173 
1138 1 12.8145 4.7727 7.5 6.03194 -136448 -145309 -147737 9218.21 5831.15 -23390.9 -7.41104 
1139 1 13.5101 3.53705 7.5 6.03194 -140508 -141185 -139285 -6381.39 10042.2 -29055.8 -7.41151 
1140 1 12.7877 2.31684 7.5 6.03192 -137236 -143712 -147075 8337.95 564.916 -24411.1 -7.41109 
1141 1 13.4833 1.08119 7.5 6.03192 -138811 -142641 -142705 -7368.33 5322.65 -27422.1 -7.41133 
1293 1 15.7038 9.65352 7.5 6.03194 -146429 -140378 -119821 -4504.24 22202.8 -38315.3 -7.41253 
1294 1 14.9815 8.43331 7.5 6.03194 -136473 -149460 -144143 11898.6 13328.2 -25781.4 -7.4112 
1295 1 15.677 7.19766 7.5 6.03194 -143989 -141383 -125510 -5547.52 18011.9 -36644.1 -7.41224 
1296 1 14.9547 5.97746 7.5 6.03194 -136729 -147861 -144742 11039.6 7458.69 -27071.1 -7.41118 
1297 1 15.6503 4.74181 7.5 6.03194 -141844 -142533 -130755 -6636.49 13579.3 -34884.3 -7.41196 
1298 1 14.928 3.5216 7.5 6.03194 -137339 -146273 -143934 10068.8 1952.25 -28340.6 -7.41123 
1299 1 15.6235 2.28595 7.5 6.03192 -140018 -143826 -135376 -7739.64 8931.2 -33107.2 -7.41171 
1300 1 14.9012 1.06575 7.5 6.03192 -138319 -144827 -141907 9063.92 -3193.17 -29625.5 -7.41135 
1452 1 17.1217 9.63807 7.5 6.03194 -136989 -151971 -141229 13706.3 14947.6 -28684.7 -7.41133 
1453 1 17.8172 8.40242 7.5 6.03194 -145409 -143007 -113990 -5437.39 21350.8 -42306 -7.41284 
1454 1 17.0949 7.18222 7.5 6.03194 -137125 -150468 -141705 12832.2 8965.26 -30346.3 -7.41131 
1455 1 17.7905 5.94657 7.5 6.03194 -143234 -144077 -120336 -6657.01 17124.7 -40596.1 -7.4125 
1456 1 17.0682 4.72636 7.5 6.03194 -137587 -148938 -140690 11807.7 3282.05 -31924.5 -7.41138 
1457 1 17.7637 3.49071 7.5 6.03194 -141340 -145279 -126176 -7911.53 12627.3 -38777.9 -7.41219 
1458 1 17.0414 2.27051 7.5 6.03192 -138372 -147432 -138362 10666.5 -2062.46 -33456.9 -7.41152 
1459 1 17.737 1.03486 7.5 6.03192 -139767 -146690 -131317 -9212.07 7876.62 -36911.9 -7.4119 
1611 1 19.9574 9.60718 7.5 6.03194 -146796 -144747 -100670 -5134.59 24436.8 -47444.7 -7.41355 
1612 1 19.2351 8.38697 7.5 6.03194 -137587 -152997 -138779 14526 10250.8 -33010.2 -7.41144 
1613 1 19.9307 7.15132 7.5 6.03194 -144637 -145743 -108067 -6456.01 20533.6 -45903.8 -7.41315 
1614 1 19.2084 5.93112 7.5 6.03194 -137943 -151580 -137494 13492.6 4475.02 -34955 -7.41153 
1615 1 19.9039 4.69547 7.5 6.03194 -142716 -146865 -115103 -7839.36 16286.8 -44158.6 -7.41277 
1616 1 19.1816 3.47527 7.5 6.03194 -138594 -150141 -134814 12301.9 -1007.13 -36787.4 -7.41168 
1617 1 19.8772 2.23962 7.5 6.03192 -141050 -148106 -121572 -9240.16 11742.7 -42271.3 -7.41241 
1618 1 19.1549 1.01941 7.5 6.03192 -139555 -148814 -130930 11040.5 -6168.63 -38533 -7.4119 
1770 1 21.3753 9.59173 7.5 6.03194 -138062 -155303 -136124 16041.7 11216.9 -34877.5 -7.41156 
1771 1 22.0709 8.35608 7.5 6.03194 -146014 -147449 -94080.7 -6059.37 23658 -50521.5 -7.41389 
1772 1 21.3486 7.13588 7.5 6.03194 -138354 -154059 -134510 15049.2 5442.24 -37231.2 -7.41166 
1773 1 22.0441 5.90023 7.5 6.03194 -144111 -148498 -102244 -7540.04 19770.5 -48960.4 -7.41345 
1774 1 21.3218 4.68002 7.5 6.03194 -138911 -152749 -131427 13857.2 -100.263 -39409.8 -7.41184 
1775 1 22.0174 3.44437 7.5 6.03194 -142419 -149649 -109997 -9064.04 15527.5 -47161.8 -7.41303 
1776 1 21.2951 2.22417 7.5 6.03192 -139725 -151423 -127059 12506.7 -5350.05 -41435.1 -7.41209 
1777 1 21.9906 0.98852 7.5 6.03192 -140973 -150972 -117120 -10628.6 10968.1 -45176.8 -7.41263 
1929 1 24.2111 9.56084 7.5 6.03194 -147319 -149099 -78594.8 -5504.82 26363.3 -54197.3 -7.41472 
1930 1 23.4888 8.34064 7.5 6.03194 -138764 -156232 -131902 16397.5 6102.39 -38591.7 -7.41178 
1931 1 24.1844 7.10499 7.5 6.03194 -145484 -150089 -87770.7 -7043.5 22941.3 -52915.5 -7.41422 
1932 1 23.462 5.88478 7.5 6.03194 -139273 -155111 -128371 15257.2 581.906 -41143.3 -7.41198 
1933 1 24.1576 4.64913 7.5 6.03194 -143808 -151166 -96718.8 -8655.62 19098.2 -51308.6 -7.41373 
1934 1 23.4353 3.42893 7.5 6.03194 -140010 -153922 -123483 13915.9 -4687.85 -43482.5 -7.41226 
1935 1 24.1309 2.19328 7.5 6.03192 -142308 -152319 -105207 -10285 14891.5 -49424.4 -7.41326 
1936 1 23.4085 0.973074 7.5 6.03192 -140983 -152797 -117437 12467.1 -9657.78 -45618.7 -7.4126 
2088 1 25.629 9.5454 7.5 6.03194 -139118 -157962 -129826 17459.5 6397.44 -38939 -7.41188 
2089 1 26.3246 8.30975 7.5 6.03194 -146791 -151545 -71937.7 -6389.42 25679.9 -55806.5 -7.41507 
2090 1 25.6022 7.08954 7.5 6.03194 -139621 -157087 -125815 16423.2 976.148 -41861.9 -7.4121 
2091 1 26.2978 5.85389 7.5 6.03194 -145181 -152563 -81948.4 -8048.54 22329.5 -54475.3 -7.41452 
2092 1 25.5755 4.63369 7.5 6.03194 -140325 -156099 -120379 15146 -4244.67 -44527.6 -7.41241 
2093 1 26.2711 3.39804 7.5 6.03194 -143695 -153633 -91693.1 -9753.38 18562.5 -52787 -7.41399 
2094 1 25.5487 2.17783 7.5 6.03192 -141211 -155042 -113714 13672.1 -9190.79 -46938.7 -7.41278 
2095 1 26.2443 0.942183 7.5 6.03192 -142367 -154822 -100928 -11491.2 14427.6 -50781.3 -7.41348 
2248 1 27.7425 8.2943 7.5 6.03194 -139900 -158558 -123907 17280.9 1045.52 -41514 -7.41219 
2250 1 27.7157 5.83845 7.5 6.03194 -140615 -157824 -117913 16120.4 -4065.74 -44489.5 -7.41252 
2252 1 27.6889 3.38259 7.5 6.03194 -141487 -156967 -110620 14724.4 -8934.39 -47175.3 -7.41293 
2254 1 27.6622 0.926737 7.5 6.03192 -142514 -156118 -102247 13190.1 -13498.6 -49564.4 -7.41339 
2247 1 28.4648 9.5145 7.5 6.03194 -147989 -152783 -55065.5 -5625.25 27897.2 -57487.5 -7.41598 
2249 1 28.438 7.05865 7.5 6.03194 -146494 -153756 -65968.6 -7286.34 25117 -56488.5 -7.41538 
2251 1 28.4113 4.6028 7.5 6.03194 -145068 -154765 -76819.9 -9024.18 21867.7 -55070.2 -7.41479 
2253 1 28.3845 2.14694 7.5 6.03192 -143720 -155790 -87364.9 -10773.9 18206.9 -53265.9 -7.41421 
2406 1 29.8827 9.49906 7.5 6.03194 -140058 -159436 -122763 17769 787.496 -40129.7 -7.41224 
2407 1 30.5782 8.26341 7.5 6.03194 -147704 -154674 -49117.8 -6417.8 27387.3 -57251.8 -7.41629 
2408 1 29.8559 7.0432 7.5 6.03194 -140823 -158996 -116222 16771.3 -4168.08 -43366.7 -7.4126 
2409 1 30.5515 5.80755 7.5 6.03194 -146386 -155638 -60890.9 -8142.69 24717.2 -56150.1 -7.41565 
2410 1 29.8292 4.58735 7.5 6.03194 -141724 -158395 -108312 15506 -8916.49 -46298.6 -7.41304 
2411 1 30.5247 3.3517 7.5 6.03194 -145092 -156595 -72580 -9908.99 21593 -54612.6 -7.415 
2412 1 29.8024 2.1315 7.5 6.03192 -142728 -157668 -99251.3 14017.2 -13377.5 -48910.8 -7.41354 
2413 1 30.498 0.895846 7.5 6.03192 -143853 -157607 -83916.9 -11697.7 18061.4 -52668.4 -7.41438 
2565 1 32.7184 9.46817 7.5 6.03194 -148771 -155269 -31769.1 -5494.55 29101.4 -56749.3 -7.41723 
2566 1 31.9961 8.24796 7.5 6.03194 -140900 -159556 -115405 17045.3 -4535.3 -41237.1 -7.41264 
2567 1 32.6917 7.01231 7.5 6.03194 -147607 -156201 -44253.5 -7160.64 27051.9 -55980.9 -7.41655 
2568 1 31.9694 5.79211 7.5 6.03194 -141866 -159245 -106914 15954.1 -9135.94 -44357.5 -7.41311 
2569 1 32.6649 4.55646 7.5 6.03194 -146411 -157113 -56888.8 -8898.52 24509.8 -54748.4 -7.41585 
2570 1 31.9426 3.33625 7.5 6.03194 -142919 -158761 -97195.4 14609.5 -13469.4 -47154.9 -7.41364 
2571 1 32.6382 2.1006 7.5 6.03192 -145189 -157978 -69400 -10638.9 21524.4 -53073.6 -7.41517 
2572 1 31.9159 0.880401 7.5 6.03192 -144042 -158227 -86493.9 13107.2 -17469.8 -49609.9 -7.41423 
2724 1 34.1363 9.45272 7.5 6.03194 -140811 -159487 -115505 16911.6 -5118.65 -38246.7 -7.41264 
2725 1 34.8319 8.21707 7.5 6.03194 -148692 -156427 -27278.4 -6129.84 28845 -54591.1 -7.41747 
2726 1 34.1096 6.99687 7.5 6.03194 -141869 -159485 -106499 16025.1 -9560.1 -41473.7 -7.41313 
2727 1 34.8051 5.76122 7.5 6.03194 -147641 -157308 -40639.6 -7793.95 26911.1 -53674.7 -7.41674 
2728 1 34.0828 4.54101 7.5 6.03194 -143003 -159280 -96181.8 14866.5 -13756.8 -44392.9 -7.41369 
2729 1 34.7784 3.30536 7.5 6.03194 -146508 -158123 -54115.6 -9489.39 24502.5 -52300.5 -7.416 
2730 1 34.0561 2.08516 7.5 6.03192 -144166 -158899 -84798.5 13474.5 -17628.5 -46979.1 -7.41431 
2731 1 34.7516 0.849509 7.5 6.03192 -145323 -158931 -67415.5 -11196.6 21656.3 -50490.9 -7.41527 
2883 1 36.9721 9.42183 7.5 6.03194 -149608 -156313 -10338.3 -5098.41 30099.2 -52070.7 -7.4184 
2884 1 36.2498 8.20163 7.5 6.03194 -141699 -159129 -107087 15698.2 -10128.2 -37824.9 -7.4131 
2885 1 36.9453 6.96598 7.5 6.03194 -148740 -157176 -24193.5 -6647.65 28780.7 -51457.5 -7.41764 
2886 1 36.223 5.74577 7.5 6.03194 -142940 -159214 -96259 14751.8 -14193.7 -40782.9 -7.41369 
2887 1 36.9186 4.51012 7.5 6.03194 -147739 -157964 -38406 -8256.09 26961.4 -50390.7 -7.41686 
2888 1 36.1963 3.28992 7.5 6.03194 -144204 -159091 -84271.7 13555.2 -17944.8 -43433.4 -7.41434 
2889 1 36.8918 2.05427 7.5 6.03192 -146604 -158649 -52682.8 -9856.3 24677.4 -48885.5 -7.41607 
2890 1 36.1695 0.834064 7.5 6.03192 -145457 -158867 -71401.2 12198.1 -21317.5 -45750.9 -7.41505 
3042 1 38.39 9.40639 7.5 6.03194 -141343 -158236 -108638 14976 -10759.6 -33621.5 -7.41303 
3043 1 39.0856 8.17074 7.5 6.03194 -149677 -156741 -7905.2 -5508.59 30128 -48211.6 -7.41853 
3044 1 38.3632 6.95053 7.5 6.03194 -142698 -158609 -97417.5 14253.2 -14710 -36524.6 -7.41363 
3045 1 39.0588 5.71488 7.5 6.03194 -148847 -157515 -22617.3 -6990.7 28893.9 -47438.3 -7.41772 
3046 1 38.3365 4.49468 7.5 6.03194 -144084 -158754 -84934 13275 -18361.2 -39157.8 -7.41431 
3047 1 39.0321 3.25903 7.5 6.03194 -147835 -158172 -37636.4 -8491.86 27173.4 -46240.5 -7.4169 
3048 1 38.3097 2.03882 7.5 6.03192 -145430 -158689 -71463.7 12074.2 -21635.5 -41492.9 -7.41504 
3049 1 39.0053 0.803172 7.5 6.03192 -146668 -158771 -52650.3 -9996.98 24989.8 -44636.9 -7.41607 
3201 1 41.2258 9.37549 7.5 6.03194 -150426 -156048 7893.05 -4418.96 30982 -44080.6 -7.4194 
3202 1 40.5034 8.15529 7.5 6.03194 -142269 -157544 -99591.4 13381 -15221.6 -31835.5 -7.41353 
3203 1 41.199 6.91964 7.5 6.03194 -149800 -156817 -7083.13 -5741.73 30315.1 -43572.7 -7.41858 
3204 1 40.4767 5.69944 7.5 6.03194 -143782 -157951 -86747.5 12628.6 -18801.3 -34363.5 -7.41422 
3205 1 41.1723 4.46379 7.5 6.03194 -148947 -157467 -22604.5 -7107.43 29145 -42667.9 -7.41772 
3206 1 40.4499 3.24358 7.5 6.03194 -145267 -158127 -72800.1 11650 -22010.7 -36637.2 -7.41498 
3207 1 41.1455 2.00793 7.5 6.03192 -147863 -157972 -38361.8 -8457.05 27493.2 -41379.1 -7.41686 
3208 1 40.4232 0.787727 7.5 6.03192 -146670 -158173 -58057.1 10527.4 -24790.2 -38631.6 -7.41578 
3360 1 42.6437 9.36005 7.5 6.03194 -141662 -156132 -102665 12168.4 -15640.1 -26927.1 -7.41338 
3361 1 43.3392 8.1244 7.5 6.03194 -150571 -155934 7888.03 -4551.53 31256.3 -38938.7 -7.4194 
3362 1 42.6169 6.90419 7.5 6.03194 -143292 -156781 -89620.3 11632 -19179 -29265 -7.41408 
3363 1 43.3125 5.66854 7.5 6.03194 -149910 -156588 -7898.73 -5751.48 30612.3 -38300.9 -7.41853 
3364 1 42.5901 4.44834 7.5 6.03194 -144918 -157193 -75345.4 10878.6 -22361.9 -31395.9 -7.41485 
3365 1 43.2857 3.21269 7.5 6.03194 -148977 -157090 -24157.8 -6959.63 29473 -37311.7 -7.41764 
3366 1 42.5634 1.99249 7.5 6.03192 -146449 -157378 -60145.9 9932.77 -25114.5 -33295.5 -7.41567 
3367 1 43.259 0.756836 7.5 6.03192 -147799 -157499 -40557.5 -8171.23 27847.5 -35988.4 -7.41674 
3519 1 45.4794 9.32916 7.5 6.03194 -151143 -154941 22021.9 -3454.84 31759.1 -33680.6 -7.42018 
3520 1 44.7571 8.10895 7.5 6.03194 -142625 -155365 -93415.2 10320.9 -19409 -24059.7 -7.41389 
3521 1 45.4527 6.8733 7.5 6.03194 -150698 -155606 6195.06 -4465.8 31608.9 -33277.5 -7.41931 
3522 1 44.7304 5.6531 7.5 6.03194 -144379 -155994 -78983.8 9781.13 -22602.8 -25972 -7.41466 
3523 1 45.4259 4.41745 7.5 6.03194 -149947 -156123 -10329 -5503.92 30953.5 -32563.3 -7.4184 
3524 1 44.7036 3.19724 7.5 6.03194 -146067 -156385 -63487 9058.84 -25374.1 -27701.8 -7.4155 
3525 1 45.3992 1.96159 7.5 6.03192 -148882 -156466 -27227.2 -6523.03 29800.7 -31550.1 -7.41748 
3526 1 44.6769 0.74139 7.5 6.03192 -147617 -156634 -47261.6 8227.2 -27668 -29230.2 -7.41638 
3678 1 46.8973 9.31371 7.5 6.03194 -141809 -153833 -97962.6 8746.43 -19415.1 -18913.2 -7.41366 
3680 1 46.8706 6.85786 7.5 6.03194 -143665 -154651 -83559.6 8394.86 -22650.9 -20542.5 -7.41443 
3682 1 46.8438 4.402 7.5 6.03194 -145493 -155236 -67944.7 7882.02 -25483.1 -22034.8 -7.41527 
3684 1 46.8171 1.94615 7.5 6.03192 -147188 -155589 -51447.6 7223.53 -27840.3 -23374.2 -7.41616 
3679 1 47.5929 8.07806 7.5 6.03194 -151293 -154599 19423.1 -3284.71 32177.2 -27726.9 -7.42004 
3681 1 47.5661 5.62221 7.5 6.03194 -150748 -155139 2858.43 -4131.09 31970.8 -27257.8 -7.41913 
3683 1 47.5394 3.16635 7.5 6.03194 -149858 -155506 -14302.8 -4978.57 31260.2 -26530.7 -7.41819 
3685 1 47.5126 0.710499 7.5 6.03192 -148655 -155761 -31713.6 -5838.07 30042.9 -25561.6 -7.41724 
3837 1 49.7331 9.28282 7.5 6.03194 -151686 -153641 31566 -2235.73 32364.6 -21762.6 -7.42072 
3838 1 49.0108 8.06262 7.5 6.03194 -142807 -153288 -88889.4 6768.85 -22435.2 -15248.7 -7.41415 
3839 1 49.7063 6.82697 7.5 6.03194 -151361 -154211 15167.1 -2876.55 32568.8 -21506.3 -7.41981 
3840 1 48.984 5.60676 7.5 6.03194 -144746 -154043 -73348.2 6439.13 -25362.2 -16447.4 -7.41499 
3841 1 49.6796 4.37111 7.5 6.03194 -150670 -154618 -2034.56 -3531.84 32264.3 -21036.5 -7.41887 
3842 1 48.9573 3.15091 7.5 6.03194 -146595 -154563 -56763.4 5985.23 -27827.4 -17537.1 -7.41588 
3843 1 49.6528 1.91526 7.5 6.03192 -149606 -154836 -19705.3 -4172.47 31448.7 -20364.5 -7.4179 
3844 1 48.9305 0.695053 7.5 6.03192 -148267 -154938 -39494 5470.59 -29779.6 -18508.3 -7.41682 
3996 1 51.151 9.26737 7.5 6.03194 -141845 -152019 -94774.7 4958.83 -21900.4 -10194.9 -7.41385 
3997 1 51.8466 8.03172 7.5 6.03194 -151776 -153403 26389 -1768.43 32796.9 -15404.1 -7.42043 
3998 1 51.1242 6.81152 7.5 6.03194 -143857 -152917 -79503.4 4777.37 -24944.3 -11056.6 -7.41467 
3999 1 51.8198 5.57587 7.5 6.03194 -151299 -153856 9351.9 -2217.54 32859 -15159.3 -7.4195 
4000 1 51.0975 4.35567 7.5 6.03194 -145827 -153590 -63027.6 4502.23 -27553 -11846.8 -7.41555 
4001 1 51.793 3.12002 7.5 6.03194 -150430 -154125 -8358.35 -2666.1 32409 -14755.5 -7.41853 
4002 1 51.0707 1.89981 7.5 6.03192 -147639 -154034 -45693.7 4140.67 -29657.2 -12560 -7.41649 
4003 1 51.7663 0.664162 7.5 6.03192 -149202 -154274 -26384.1 -3143.71 31436.3 -14205.9 -7.41754 
4155 1 53.9868 9.23648 7.5 6.03194 -151998 -152762 36345 -828.156 32709.5 -9034.03 -7.42099 
4156 1 53.2644 8.01628 7.5 6.03194 -142865 -151953 -86204.8 2948.96 -24177.7 -5945.29 -7.41431 
4157 1 53.96 6.78063 7.5 6.03194 -151734 -153268 19655.3 -1065.02 33096.7 -8978.49 -7.42007 
4158 1 53.2377 5.56042 7.5 6.03194 -144916 -152757 -70039.1 2818.07 -26953.3 -6397.41 -7.41518 
4159 1 53.9333 4.32477 7.5 6.03194 -151073 -153603 2108.66 -1308.29 32972.3 -8809.24 -7.4191 
4160 1 53.2109 3.10457 7.5 6.03194 -146862 -153332 -52840.2 2630.4 -29245.5 -6807.87 -7.41611 
4161 1 53.9065 1.86892 7.5 6.03192 -150007 -153743 -15955.4 -1547.57 32327.2 -8535.57 -7.41811 
4162 1 53.1842 0.648716 7.5 6.03192 -148610 -153764 -34980.1 2440.76 -31005.5 -7177.69 -7.41708 
4314 1 55.4046 9.22104 7.5 6.03194 -141822 -151218 -93243.2 1004.58 -23025.6 -1170.75 -7.41394 
4315 1 56.1002 7.98539 7.5 6.03194 -151978 -152878 28698.4 -97.9073 33036 -2566.58 -7.42056 
4316 1 55.3779 6.76518 7.5 6.03194 -143904 -152134 -77587.1 980.585 -25978.6 -1255.17 -7.41478 
4317 1 56.0735 5.52953 7.5 6.03194 -151525 -153285 11497.5 -128.586 33194.2 -2593.3 -7.41962 
4318 1 55.3511 4.30933 7.5 6.03194 -145940 -152829 -60728.7 935.438 -28483.2 -1327.35 -7.41569 
4319 1 56.0467 3.07368 7.5 6.03194 -150665 -153504 -6403.09 -161.991 32836.1 -2559.78 -7.41864 
4320 1 55.3244 1.85347 7.5 6.03192 -147807 -153298 -43022.4 870.505 -30472 -1392.49 -7.41664 
4321 1 56.02 0.617825 7.5 6.03192 -149428 -153601 -24641.8 -246.238 31946.6 -2475.27 -7.41764 
4473 1 58.2404 9.19015 7.5 6.03194 -152046 -152688 36327.9 669.489 32742.4 4001.48 -7.42099 
4474 1 57.5181 7.96994 7.5 6.03194 -142837 -151767 -85457.6 -961.311 -24592.3 3531.94 -7.41436 
4475 1 58.2137 6.73429 7.5 6.03194 -151788 -153173 19630.3 849.341 33138.3 3824 -7.42006 
4476 1 57.4914 5.51409 7.5 6.03194 -144913 -152566 -69145.1 -899.722 -27321.9 3826.39 -7.41523 
4477 1 58.1869 4.27844 7.5 6.03194 -151133 -153485 2074.29 1028.75 33022.5 3659.84 -7.4191 
4478 1 57.4646 3.05823 7.5 6.03194 -146882 -153137 -51801.9 -823.296 -29565 4099.1 -7.41617 
4479 1 58.1602 1.82258 7.5 6.03192 -150070 -153602 -16000.4 1198.66 32383.2 3503 -7.41811 
4480 1 57.4378 0.602379 7.5 6.03192 -148648 -153564 -33803.4 -686.608 -31274.8 4338.53 -7.41714 
4632 1 59.6583 9.1747 7.5 6.03194 -141766 -151672 -93436.6 -2962.93 -22768.9 7923.33 -7.41393 
4633 1 60.3539 7.93905 7.5 6.03194 -151877 -153241 26351.1 1609.14 32875.7 10364 -7.42043 
4634 1 59.6316 6.71885 7.5 6.03194 -143826 -152561 -77871 -2829.91 -25724.6 8608.34 -7.41476 
4635 1 60.3271 5.4832 7.5 6.03194 -151412 -153652 9297.36 2000.04 32954.8 10052.2 -7.41949 
4636 1 59.6048 4.26299 7.5 6.03194 -145845 -153226 -61102.7 -2645.15 -28237.1 9246.6 -7.41566 
4637 1 60.3004 3.02734 7.5 6.03194 -150553 -153876 -8432.33 2384.23 32518.9 9700.45 -7.41852 
4638 1 59.5781 1.80714 7.5 6.03192 -147697 -153662 -43484.6 -2412.84 -30240.8 9822.58 -7.41662 
4639 1 60.2736 0.571488 7.5 6.03192 -149328 -153977 -26479.9 2694.19 31552.7 9304.33 -7.41754 
4791 1 62.4941 9.14381 7.5 6.03194 -151821 -153445 31527.8 2143.96 32483.1 16930.2 -7.42072 
4792 1 61.7718 7.92361 7.5 6.03194 -142728 -152808 -86685.8 -4811.41 -23664.1 12973.7 -7.41428 
4793 1 62.4673 6.68796 7.5 6.03194 -151518 -153957 15108.1 2735.28 32709 16528.3 -7.41981 
4794 1 61.745 5.46775 7.5 6.03194 -144741 -153554 -70701.8 -4551.26 -26450.7 14001.3 -7.41514 
4795 1 62.4406 4.2321 7.5 6.03194 -150845 -154300 -2119.01 3332.58 32426.3 16036.5 -7.41886 
4796 1 61.7183 3.0119 7.5 6.03194 -146656 -154065 -53682 -4207.85 -28766.1 14940.4 -7.41606 
4797 1 62.4138 1.77625 7.5 6.03192 -149793 -154450 -19819.3 3906.95 31625.1 15452.3 -7.4179 
4798 1 61.6915 0.556042 7.5 6.03192 -148381 -154431 -35995.4 -3743.61 -30564.3 15769.9 -7.41702 
4950 1 63.912 9.12836 7.5 6.03194 -141663 -153280 -95367.2 -6801.21 -21121.2 16871.1 -7.41381 
4951 1 64.6075 7.89271 7.5 6.03194 -151480 -154331 19374.5 3228.06 32366.5 22975.9 -7.42004 
4952 1 63.8852 6.67251 7.5 6.03194 -143615 -154093 -80371.2 -6498.93 -24177.6 18308.8 -7.41461 
4953 1 64.5808 5.43686 7.5 6.03194 -150963 -154795 2782.13 4026.35 32186 22405.9 -7.41913 
4954 1 63.8585 4.21666 7.5 6.03194 -145535 -154671 -64167.8 -6075.89 -26813.5 19634.1 -7.41548 
4955 1 64.554 2.98101 7.5 6.03194 -150095 -155078 -14412.9 4815.85 31496.8 21692.6 -7.41819 
4956 1 63.8317 1.7608 7.5 6.03192 -147310 -155018 -47099.1 -5543.76 -28964.9 20822 -7.41641 
4957 1 64.5273 0.525151 7.5 6.03192 -148904 -155244 -31863 5511.14 30288.5 20835.5 -7.41723 
5109 1 66.7478 9.09747 7.5 6.03194 -151342 -154697 21995.2 3484.1 32009.3 29258.7 -7.42018 
5110 1 66.0254 7.87727 7.5 6.03194 -142512 -154798 -89878.3 -8443.94 -21398.1 22105.3 -7.41409 
5111 1 66.721 6.64162 7.5 6.03194 -150939 -155277 6142.81 4460.37 31882 28676.5 -7.41931 
5112 1 65.9987 5.42141 7.5 6.03194 -144382 -155429 -74704.9 -7972.82 -24354.6 23835.1 -7.4149 
5113 1 66.6942 4.18576 7.5 6.03194 -150221 -155700 -10415 5452.24 31251.6 27899.3 -7.4184 
5114 1 65.9719 2.96556 7.5 6.03194 -146176 -155820 -58479.8 -7356.3 -26871.6 25402.3 -7.41578 
5115 1 66.6675 1.72991 7.5 6.03192 -149181 -155941 -27354.5 6413.19 30114.7 26926.8 -7.41747 
5116 1 65.9452 0.509706 7.5 6.03192 -147812 -156065 -41555.8 -6566.75 -28902.7 26777.5 -7.4167 
5268 1 68.1656 9.08203 7.5 6.03194 -141469 -155616 -98985.8 -10340.8 -18101.9 25319.4 -7.41359 
5269 1 68.8612 7.84638 7.5 6.03194 -150816 -155658 7870.53 4643.95 31596.8 34692.5 -7.4194 
5270 1 68.1389 6.62617 7.5 6.03194 -143239 -156281 -85048.9 -9852 -21370.7 27465.4 -7.41433 
5271 1 68.8345 5.39052 7.5 6.03194 -150204 -156213 -7944.92 5812.84 30974.9 33918.3 -7.41853 
5272 1 68.1121 4.17032 7.5 6.03194 -144994 -156706 -69890.1 -9182.46 -24257.6 29426.2 -7.41515 
5273 1 68.8077 2.93467 7.5 6.03194 -149310 -156606 -24242.4 6976.74 29855 32897.9 -7.41764 
5274 1 68.0854 1.71446 7.5 6.03192 -146638 -156898 -53832.5 -8352.32 -26698.8 31169.7 -7.41602 
5275 1 68.781 0.478814 7.5 6.03192 -148160 -156897 -40690.5 8033.19 28235.3 31634.1 -7.41674 
5427 1 71.0014 9.05114 7.5 6.03194 -150651 -155854 7914.05 4598.3 31403.6 40283.9 -7.4194 
5428 1 70.2791 7.83093 7.5 6.03194 -142143 -157166 -94949.2 -11665.8 -17855.3 30442.3 -7.41379 
5429 1 70.9747 6.59528 7.5 6.03194 -150090 -156527 -7081.06 5909.18 30747.3 39575.5 -7.41858 
5430 1 70.2523 5.37508 7.5 6.03194 -143809 -157604 -81071.4 -10974.3 -21107.1 32801.7 -7.41454 
5431 1 70.9479 4.13943 7.5 6.03194 -149293 -157068 -22632.8 7248.16 29594.5 38573.8 -7.41772 
5432 1 70.2256 2.91922 7.5 6.03194 -145432 -157803 -66109.6 -10088.4 -23965.1 34922.5 -7.41535 
5433 1 70.9212 1.68357 7.5 6.03192 -148254 -157451 -38432.2 8554.88 27952.8 37280.1 -7.41686 
5434 1 70.1988 0.463369 7.5 6.03192 -146946 -157863 -50392.6 -8990.51 -26379.9 36769.9 -7.4162 
5586 1 72.4193 9.03569 7.5 6.03194 -141130 -158027 -104153 -13364.1 -13817 32688.9 -7.41328 
5587 1 73.1149 7.80004 7.5 6.03194 -149938 -156561 -7854.84 5767.36 30636.5 44689.3 -7.41853 
5588 1 72.3926 6.57984 7.5 6.03194 -142659 -158453 -91759.1 -12680.6 -17419.5 35437.9 -7.41395 
5589 1 73.0881 5.34419 7.5 6.03194 -149182 -157232 -22584.3 7243.3 29410.2 43765.2 -7.41772 
5590 1 72.3658 4.12398 7.5 6.03194 -144205 -158643 -78113.4 -11770.7 -20691 37932.5 -7.41469 
5591 1 73.0614 2.88833 7.5 6.03194 -148234 -157773 -37633.9 8722.16 27699.4 42506.8 -7.4169 
5592 1 72.339 1.66813 7.5 6.03192 -145689 -158610 -63513.9 -10664.1 -23566 40136.4 -7.41548 
5593 1 73.0346 0.432477 7.5 6.03192 -147117 -158242 -52692.4 10089.5 25514.5 40919.2 -7.41607 
5746 1 74.5328 7.78459 7.5 6.03194 -141579 -159198 -101688 -14248.4 -13212.2 37258.1 -7.4134 
5748 1 74.506 5.32874 7.5 6.03194 -143002 -159352 -89564.1 -13347.1 -16883.5 40106.3 -7.41406 
5750 1 74.4793 2.87289 7.5 6.03194 -144427 -159283 -76304.5 -12219.4 -20214.7 42654.2 -7.41478 
5752 1 74.4525 0.417032 7.5 6.03192 -145810 -159101 -62209.4 -10856.9 -23151.7 44865.8 -7.41555 
5745 1 75.2551 9.0048 7.5 6.03194 -149812 -156258 -10248.1 5426.64 30690.7 49087 -7.4184 
5747 1 75.2283 6.54894 7.5 6.03194 -149035 -157033 -24104 6993.12 29362.4 48285.6 -7.41764 
5749 1 75.2016 4.09309 7.5 6.03194 -148117 -157715 -38330.6 8601.39 27546.5 47116.8 -7.41686 
5751 1 75.1748 1.63724 7.5 6.03192 -147054 -158278 -52636.4 10182.5 25263.5 45583.6 -7.41607 
5904 1 76.673 8.98935 7.5 6.03194 -140599 -159798 -110602 -15626.6 -8524.37 38212.9 -7.41291 
5905 1 77.3685 7.7537 7.5 6.03194 -148918 -156428 -27146.3 6540.77 29489.2 51968.9 -7.41748 
5906 1 76.6462 6.5335 7.5 6.03194 -141856 -159889 -100185 -14763.1 -12570.7 41375 -7.41348 
5907 1 77.3418 5.29785 7.5 6.03194 -147968 -157221 -40501.8 8229.68 27545.8 50926.9 -7.41674 
5908 1 76.6195 4.07764 7.5 6.03194 -143174 -159764 -88469.5 -13647.9 -16342.1 44235.1 -7.41411 
5909 1 77.315 2.84199 7.5 6.03194 -146929 -157930 -53986.9 9931.85 25136.1 49497.3 -7.416 
5910 1 76.5927 1.62179 7.5 6.03192 -144492 -159447 -75725.5 -12317.3 -19769.5 46758.8 -7.41481 
5911 1 77.2883 0.386141 7.5 6.03192 -145823 -158615 -67312.9 11527.5 22282.6 47687.8 -7.41527 
6063 1 79.5087 8.95846 7.5 6.03194 -148899 -155407 -31615.2 5940.01 29802.3 54686.9 -7.41724 
6064 1 78.7864 7.73826 7.5 6.03194 -140801 -160225 -109712 -15966.1 -7804.2 41707.5 -7.41295 
6065 1 79.482 6.50261 7.5 6.03194 -147853 -156275 -44073 7656.51 27724.1 53787.9 -7.41655 
6066 1 78.7597 5.2824 7.5 6.03194 -141968 -160017 -99721 -14895 -11988 44827.1 -7.4135 
6067 1 79.4552 4.04675 7.5 6.03194 -146771 -157102 -56694.7 9426.95 25173.8 52491.3 -7.41586 
6068 1 78.7329 2.82655 7.5 6.03194 -143199 -159621 -88527.8 -13585.9 -15884.7 47620.1 -7.41411 
6069 1 79.4285 1.5909 7.5 6.03192 -145651 -157864 -69208.1 11179.5 22183.9 50803.7 -7.41517 
6070 1 78.7062 0.370695 7.5 6.03192 -144463 -159153 -76401.1 -12036.9 -19436 50054.8 -7.41478 
6222 1 80.9266 8.94302 7.5 6.03194 -139864 -160348 -117909 -16909 -2658.96 41120.1 -7.41251 
6223 1 81.6222 7.70737 7.5 6.03194 -147838 -154894 -48920.4 6938.55 28081.3 55600.1 -7.4163 
6224 1 80.8999 6.48716 7.5 6.03194 -140844 -160034 -109792 -15910.2 -7216.87 44426.5 -7.41295 
6225 1 81.5954 5.25151 7.5 6.03194 -146651 -155798 -60656.9 8722.49 25391.6 54443.6 -7.41565 
6226 1 80.8731 4.03131 7.5 6.03194 -141941 -159540 -100320 -14656 -11549.5 47424.5 -7.41347 
6227 1 81.5687 2.79566 7.5 6.03194 -145482 -156677 -72322.7 10529.6 22262.3 52899.5 -7.41501 
6228 1 80.8464 1.57545 7.5 6.03192 -143111 -158902 -89733.3 -13188 -15585.3 50088 -7.41405 
6229 1 81.5419 0.339804 7.5 6.03192 -144354 -157591 -83652.8 12239.9 18724 50979.5 -7.41439 
6381 1 83.7624 8.91213 7.5 6.03194 -147986 -153122 -54880.1 6135.28 28593.5 56322.2 -7.41598 
6382 1 83.0401 7.69192 7.5 6.03194 -139830 -159819 -118449 -16649.7 -2115.67 43084.6 -7.41248 
6383 1 83.7357 6.45627 7.5 6.03194 -146634 -154063 -65725.2 7879.62 25778.1 55292.2 -7.41539 
6384 1 83.0133 5.23607 7.5 6.03194 -140757 -159210 -110836 -15479.6 -6840.62 46204.5 -7.4129 
6385 1 83.7089 4.00042 7.5 6.03194 -145351 -155021 -76528.3 9684.91 22520.4 53890.8 -7.4148 