ITEM: TIMESTEP
91
ITEM: NUMBER OF ATOMS
6536
ITEM: BOX BOUNDS pp pp pp
0.0000000000000000e+00 7.0200368299999994e+01
0.0000000000000000e+00 1.2159060500000000e+02
0.0000000000000000e+00 1.5000000000000000e+01
ITEM: ATOMS id type x y z c_csym c_2[1] c_2[2] c_2[3] c_2[4] c_2[5] c_2[6] c_3 
109 1 0.222484 9.82025 2.89482 6.01949 -149215 -159780 8195.34 -26329.8 24652.6 -2387.58 -7.41471 
110 1 0.904392 8.57705 2.89006 6.01649 -165676 -142813 -4765.58 -20121.6 14031.6 -3685.04 -7.41386 
111 1 0.168623 7.36519 2.88589 6.02357 -149777 -158922 3779.52 -13902.3 16665.8 -1757.64 -7.41414 
112 1 0.849713 6.12161 2.88247 6.02187 -161505 -146538 -1319.17 -9664.14 9657.97 -3105.29 -7.41376 
113 1 0.113192 4.91014 2.87958 6.02643 -150717 -157276 1597.12 -5702.67 9657.12 -1164.94 -7.4138 
114 1 0.793771 3.66632 2.87754 6.02577 -157981 -149700 332.316 -3488.05 5479.09 -2322.15 -7.41367 
115 1 0.056806 2.45508 2.87594 6.02878 -152006 -155545 893.304 -1334.53 4183.72 -595.403 -7.41363 
116 1 0.737141 1.21114 2.87515 6.02911 -154976 -152426 816.331 -717.432 1706.64 -1487.14 -7.4136 
117 1 -6.1421e-06 1.49149e-06 2.87476 6.0305 -153658 -153658 838.074 -26.5667 -0.0791579 0.145595 -7.41359 
209 1 3.05668 9.7568 2.8964 6.01445 -179447 -129344 -5058.15 -26462.8 15976.6 -10335 -7.41406 
210 1 2.32189 8.54437 2.89099 6.01837 -159279 -149673 4340.42 -16675.1 20162.9 -4766.93 -7.41437 
211 1 3.00304 7.30074 2.88755 6.01871 -171519 -136745 -1164.53 -13946 11912 -9066.09 -7.41395 
212 1 2.26718 6.08889 2.88334 6.02236 -156604 -151739 1546.79 -6369.66 12498 -4330.29 -7.41394 
213 1 2.9478 4.84503 2.88124 6.02315 -164704 -143278 675.848 -5721.7 7593.38 -7508.92 -7.41381 
214 1 2.21122 3.63356 2.87835 6.02547 -154891 -152867 588.133 -315.647 6155.77 -3872.78 -7.41371 
215 1 2.89158 2.3896 2.87754 6.02692 -158793 -148842 1082.7 -1474.09 3532.56 -5931.27 -7.4137 
216 1 2.15459 1.17836 2.87594 6.02766 -153871 -153455 643.521 2262.25 1309.18 -3508.91 -7.41362 
308 1 4.47413 9.72453 2.89856 6.00985 -172482 -136984 2926.92 -18328.4 23641 -7421.95 -7.4146 
309 1 5.15536 8.48082 2.89522 6.01534 -185257 -123488 994.205 -16852.9 14499.6 -15952.6 -7.41433 
310 1 4.42048 7.26839 2.8897 6.01543 -165945 -142836 -101.39 -5729.37 15711.1 -7488.44 -7.4141 
311 1 5.10115 6.02448 2.88759 6.01984 -174831 -133580 2575.65 -6422.68 10398.2 -13878.1 -7.41414 
312 1 4.36523 4.81261 2.88332 6.02067 -160783 -147323 -952.965 2369.66 8568.91 -7337.36 -7.41382 
313 1 5.04561 3.56862 2.8825 6.02432 -165637 -142528 2431.71 -461.818 6136.38 -11643.6 -7.41395 
314 1 4.30901 2.35713 2.87957 6.02397 -156817 -150901 -404.344 6350.56 2792.99 -7208.05 -7.41371 
315 1 4.98935 1.11317 2.87999 6.02521 -157437 -150380 1254 1970.31 1970.76 -9608.1 -7.4138 
407 1 7.30633 9.6624 2.90511 6.00911 -202176 -106854 5764.95 -18001.9 16834.9 -23193.3 -7.41493 
408 1 6.57275 8.44916 2.89852 6.0069 -179103 -130196 -3936.96 -3529.24 18856.2 -10253.4 -7.41423 
409 1 7.25349 7.20521 2.89652 6.01538 -188548 -120382 6764.19 -5221.68 13446.2 -21075.8 -7.41468 
410 1 6.51855 5.99272 2.89093 6.01366 -170263 -138387 -4347.81 6875.54 11282.6 -10808.4 -7.41393 
411 1 7.19898 4.7487 2.89015 6.02103 -175935 -132856 5674.47 2855.63 9357.48 -18539.8 -7.41439 
412 1 6.46302 3.53678 2.88583 6.01897 -162762 -145341 -2958.98 12734.9 4629.47 -11170.7 -7.41381 
413 1 7.14341 2.29281 2.88631 6.02205 -164403 -144162 3225.67 6737.92 5047.42 -15977.8 -7.41413 
414 1 6.40678 1.08126 2.88332 6.02132 -156472 -151508 -602.281 14969.2 -846.021 -11621.5 -7.41383 
506 1 8.72367 9.63176 2.90925 5.99761 -195425 -114083 -10389.9 46.3945 21301.9 -12040.2 -7.41427 
507 1 9.40452 8.38776 2.9075 6.00752 -204757 -103850 13693.9 -2015.27 16154.6 -28200.5 -7.41547 
508 1 8.67084 7.17445 2.90091 6.00547 -183286 -125675 -10110.3 13344.4 13806.3 -13681.1 -7.41398 
509 1 9.35134 5.93041 2.90025 6.01504 -189456 -119641 11444.6 8576.43 12732.8 -25855.8 -7.41509 
510 1 8.61634 4.71784 2.89469 6.01293 -172388 -136256 -7602.19 21553.7 6615.69 -14899.1 -7.41388 
511 1 9.29679 3.47386 2.89523 6.01842 -174629 -134466 7406.93 14490.4 8649.98 -23160.5 -7.41469 
512 1 8.5608 2.26185 2.89093 6.01691 -162566 -145816 -3679.12 25465.7 299.922 -15952.2 -7.41394 
513 1 9.24142 1.01806 2.89268 6.01457 -160520 -148515 2385.85 16423.5 4216.31 -20465.8 -7.41434 
3282 2 0.51301 8.60885 6.50985 6.02103 -146072 -162745 5673.74 20131.2 20733.8 1166.07 -7.41439 
3283 2 0.567707 6.15394 6.5175 6.02422 -147973 -160280 2432.08 9811.39 13151.8 507.672 -7.41395 
3284 2 0.623665 3.69898 6.52246 6.02695 -150182 -157579 1082.68 3555.52 6902.87 -93.215 -7.4137 
3285 2 0.680296 1.24395 6.52485 6.0291 -152509 -155026 816.235 837.841 2141.67 -733.882 -7.4136 
3286 2 -6.86835e-06 -5.48954e-06 6.52524 6.03052 -153774 -153662 838.004 13.6839 0.0819256 0.364526 -7.41359 
3377 2 2.61315 9.88431 6.50348 6.01538 -132887 -176089 6762.7 26922.8 24974.7 -1106.86 -7.41468 
3378 2 1.93058 8.64159 6.50907 6.01366 -152307 -156278 -4348.09 17256.9 15001.4 -4367.23 -7.41392 
3379 2 2.66678 7.42996 6.51241 6.01991 -138312 -170022 2575.16 14668.7 17217.8 -2066.28 -7.41414 
3380 2 1.98522 6.18671 6.51668 6.02061 -152767 -155373 -952.61 7063.85 10638.7 -3752.83 -7.41382 
3381 2 2.72201 4.97538 6.51876 6.02308 -143647 -164305 675.672 6456.07 10299.3 -2821.45 -7.41381 
3382 2 2.04114 3.73176 6.52165 6.02553 -153208 -154612 587.93 748.917 6431.73 -3394.62 -7.41371 
3383 2 2.77823 2.52058 6.52246 6.0258 -148692 -158851 332.301 1900.03 4751.01 -3584.15 -7.41367 
3384 2 2.09775 1.27674 6.52406 6.02879 -153453 -153956 893.289 -2151.96 2607.67 -3325.77 -7.41363 
3385 2 2.8349 0.0655887 6.52366 6.02759 -153507 -153777 728.55 360.821 370.782 -4587.54 -7.41364 
3476 2 4.03082 9.91676 6.50148 6.00689 -139385 -169940 -3936.88 19454.5 18307.5 -11203.9 -7.41423 
3477 2 4.76693 8.70509 6.50478 6.01533 -124456 -184409 993.602 18367.6 21065.1 -4581.07 -7.41433 
3478 2 4.08437 7.46245 6.5103 6.01543 -143685 -165157 -101.26 7218.36 14340.6 -9862.83 -7.4141 
3479 2 4.8211 6.25108 6.51245 6.01875 -133454 -174924 -1164.54 8150.01 13807.6 -5782.65 -7.41395 
3480 2 4.13953 5.00789 6.51666 6.02233 -147402 -160828 1546.67 -1089.59 9998.81 -8658.75 -7.41394 
3481 2 4.87661 3.79668 6.51753 6.02187 -141828 -166044 -1319.23 1648.27 7518.58 -6811.83 -7.41377 
3482 2 4.19571 2.5531 6.52041 6.02651 -150650 -157277 1597.03 -5685.26 5837.53 -7780.78 -7.4138 
3483 2 4.93286 1.34192 6.52002 6.02351 -149676 -158114 -247.34 -1513.83 2387.49 -8002.85 -7.41373 
3484 2 4.25235 0.0980953 6.52165 6.02536 -153531 -154069 708.31 -7363.79 1782.61 -7309.87 -7.41371 
3575 2 6.86852 9.9788 6.49499 6.01053 -106318 -203119 -2936.89 20664.5 24078.4 -6636.61 -7.41446 
3576 2 6.18462 8.73699 6.50144 6.00983 -130121 -179546 2928.05 6199.54 18248.6 -16763.7 -7.4146 
3577 2 6.92129 7.52557 6.5036 6.01439 -118992 -189896 -5057.92 8440.77 16939 -8668.23 -7.41406 
3578 2 6.2387 6.28301 6.50901 6.01837 -137703 -171305 4341.13 -4272.89 14210.2 -15078.7 -7.41437 
3579 2 6.97575 5.07176 6.50993 6.01645 -131012 -177263 -4765.17 -161.294 10207.3 -10309.5 -7.41386 
3580 2 6.29412 3.82863 6.51411 6.02356 -144449 -164011 3779.99 -10940 9854.78 -13554.7 -7.41414 
3581 2 7.03128 2.61741 6.51374 6.01807 -142482 -165591 -2761.39 -5278.59 4380.42 -11881.4 -7.41383 
3582 2 6.35033 1.37387 6.51666 6.0224 -150509 -157460 1898.08 -14367.6 5487.22 -12383.9 -7.41395 
3583 2 7.08734 0.162555 6.51498 6.01952 -153486 -154701 163.048 -7438.56 -577.333 -13719.2 -7.41394 
3674 2 8.28634 10.0098 6.49065 6.00425 -112128 -197869 8673.06 4131.79 21624.5 -23622.5 -7.41533 
3675 2 9.02291 8.79832 6.49276 6.01007 -100849 -208511 -11481.4 7166.51 19149 -10882.7 -7.41408 
3676 2 8.33899 7.55659 6.49895 6.01423 -123631 -185867 9631.37 -8803.79 18478.6 -21941.9 -7.41504 
3677 2 9.07599 6.34528 6.49994 6.01055 -116589 -192264 -10533.7 -3750.33 12373 -13470.2 -7.4139 
3678 2 8.39334 5.1028 6.50518 6.01946 -134232 -174703 8195.38 -17882.6 14393.9 -20155.6 -7.41471 
3679 2 9.13049 3.89152 6.50488 6.01074 -131792 -176844 -7391.14 -11081.7 6105.24 -15738.3 -7.41391 
3680 2 8.44879 2.64846 6.50899 6.01894 -144106 -164427 5013.37 -23452.2 9898.01 -18495 -7.41439 
3681 2 9.18582 1.43707 6.50735 6.01201 -146396 -162366 -2814.75 -15271.4 617.242 -17994 -7.41407 
3682 2 8.50478 0.193574 6.51029 6.01798 -153461 -154997 800.137 -25956 5096.08 -17097.4 -7.41412 
605 1 11.554 9.5726 2.91957 5.99885 -221760 -85543.5 23354.7 2672.39 18038.4 -34188.3 -7.41649 
606 1 10.8218 8.35831 2.91249 5.99699 -198813 -110121 -18510.2 21071.8 15571.6 -15346.3 -7.41392 
607 1 11.5025 7.11427 2.91204 6.00762 -204675 -103661 19992.5 16380.7 15727.2 -32468.4 -7.41602 
608 1 10.7687 5.90088 2.90564 6.00573 -185119 -123792 -14757.3 32417.9 8306.67 -17663.2 -7.41387 
609 1 11.4492 4.65692 2.90626 6.01414 -187778 -121603 14288.5 24823.8 12325.9 -30095.4 -7.4155 
610 1 10.7141 3.44424 2.90089 6.01195 -172089 -136825 -9073.31 38663 1453.82 -19583.1 -7.414 
611 1 11.3948 2.20048 2.90267 6.0094 -170843 -138907 7098.7 28724.2 8267.43 -27358.6 -7.41498 
612 1 10.6588 0.98836 2.89852 6.01364 -159685 -149273 -2346.52 40699.1 -4621.06 -21318.8 -7.41426 
704 1 12.9712 9.54466 2.92462 5.98927 -215070 -93011.7 -29392.4 29096.2 16211.7 -15549.3 -7.41372 
705 1 13.6521 8.30069 2.92445 5.99974 -219987 -86586.4 31042.6 25201.5 17927.4 -37354.9 -7.41717 
706 1 12.9197 7.08634 2.91772 5.99836 -199596 -109186 -24510.4 44117.1 9286.33 -18941.5 -7.41374 
707 1 13.6004 5.84243 2.91845 6.00749 -202011 -106606 23898.9 36991.1 15601.1 -35644.1 -7.41654 
708 1 12.8665 4.62895 2.91245 6.00686 -184399 -124987 -17105.7 53551 2289.18 -21813.1 -7.41395 
709 1 13.5474 3.38525 2.91419 6.00453 -183273 -126461 14625.2 43531.3 12296.9 -33263.4 -7.41585 
710 1 12.8122 2.17246 2.90922 6.00975 -169220 -140358 -8062.3 58002.7 -4216.1 -24285.8 -7.41432 
711 1 13.4934 0.929089 2.91199 5.9992 -164082 -146293 4171.69 45373.6 8314.32 -30428.4 -7.41519 
803 1 15.8003 9.48983 2.9364 5.99249 -232545 -70243 43844.7 33725.6 19132.3 -39937.7 -7.41845 
804 1 15.0693 8.27448 2.92982 5.99228 -213918 -93904.7 -36458.2 55193.1 9375.97 -18656.3 -7.41346 
805 1 15.7504 7.03071 2.93067 6.00043 -215242 -91001.4 35730.9 49462.4 18130.4 -39010.4 -7.41774 
806 1 15.0177 5.81632 2.92452 6.0018 -197648 -111555 -27668.4 68686 2581.22 -22315.5 -7.41376 
807 1 15.6988 4.57274 2.92621 5.99968 -196319 -112451 24786.5 59527.3 15885.5 -37245.4 -7.41693 
808 1 14.9647 3.35917 2.92084 6.0066 -180745 -129022 -16544.4 76291.3 -4058.13 -25481 -7.41424 
809 1 15.6461 2.1159 2.92338 5.99357 -176070 -133934 11939.1 64040.3 12744.2 -34766.3 -7.41608 
810 1 14.9108 0.902999 2.91903 6.00257 -163384 -146397 -4098.29 78617 -10079.7 -28229.4 -7.41487 
902 1 17.2174 9.46534 2.941 5.98827 -225407 -79855.1 -49749.5 64361 8672.63 -17117.6 -7.41307 
903 1 17.899 8.22181 2.94199 5.99422 -225269 -76930.3 48889.9 60697.7 19744.2 -39941 -7.41904 
904 1 17.1676 7.0065 2.93607 5.99731 -209742 -98257.8 -40141 82084.1 2315.64 -21224.3 -7.41343 
905 1 17.849 5.76311 2.93768 5.99401 -207804 -98444.9 36912.7 74881.2 18741.7 -38854.3 -7.41814 
906 1 17.116 4.5487 2.93232 6.00487 -192628 -116725 -27489.4 93788.1 -4206.9 -24846.3 -7.41401 
907 1 17.7977 3.30559 2.9346 5.98907 -188261 -120536 22263.4 82913.4 16640.5 -36933.7 -7.41714 
908 1 17.0634 2.09194 2.93005 5.99792 -174454 -135238 -12736.9 99330.1 -10315.8 -28005.1 -7.41476 
909 1 17.7456 0.849235 2.93299 5.98306 -167024 -143013 6011.97 85139.3 13651.5 -34278.1 -7.41612 
1001 1 20.0464 9.41553 2.95185 5.98968 -230473 -65782.5 62381.9 69435.5 20418.8 -38649.7 -7.42033 
1002 1 19.3161 8.19938 2.94637 5.99495 -218424 -86686.2 -53557.5 92437.7 1652.86 -18968.4 -7.413 
1003 1 19.9981 6.95629 2.9479 5.98951 -215573 -86217.2 50056.1 87874.9 20720.4 -38149.5 -7.41939 
1004 1 19.2662 5.74105 2.94281 6.00243 -202808 -105163 -40113.7 108630 -4576.69 -22721.4 -7.41364 
1005 1 19.9483 4.49818 2.94482 5.9851 -198475 -107919 34380.3 100071 19761.5 -36827 -7.41829 
1006 1 19.215 3.28376 2.94038 5.9944 -185452 -123840 -23787.6 118017 -10631.1 -26047.1 -7.41449 
1007 1 19.8975 2.04123 2.94288 5.97875 -179032 -129878 16284.8 105789 17772.3 -34710.2 -7.41712 
1008 1 19.163 0.827495 2.93928 5.9869 -166494 -142467 -5714.58 120924 -15983.1 -28949.3 -7.41549 
3773 2 11.1262 10.0689 6.4809 6.00574 -80637.2 -228921 -20586.7 4692.59 20099 -11933.2 -7.41397 
3774 2 10.4407 8.82815 6.48726 6.00955 -105892 -203430 17709.6 -14126.2 22035.5 -28262.7 -7.41596 
3775 2 11.1776 7.61673 6.48831 6.00375 -99170.2 -209999 -18915.2 -8806.06 13629.8 -15586.2 -7.41384 
3776 2 10.4937 6.37507 6.49411 6.01288 -120382 -188767 15317.1 -26070 18820.9 -26633.9 -7.41553 
3777 2 11.2308 5.1637 6.49395 6.00255 -117798 -191315 -14549.7 -18799.5 7232.33 -18768 -7.41391 
3778 2 10.5481 3.92129 6.49892 6.01262 -134169 -174819 10678.8 -34361.5 14674.4 -24842.3 -7.41507 
3779 2 11.2851 2.70981 6.49743 6.0032 -136115 -173157 -8199.61 -25376.8 1405.31 -21675.2 -7.41415 
3780 2 10.6033 1.46681 6.50141 6.0134 -147227 -161654 4523.92 -39146.2 9939.23 -23049 -7.41463 
3781 2 11.3399 0.255084 6.49857 6.00553 -153878 -155926 -692.668 -28776.8 -3720.12 -24513.1 -7.41452 
3872 2 12.5442 10.0973 6.475 6.00384 -86226.9 -221769 28351 -19582.9 24233.6 -33180.5 -7.41708 
3873 2 13.2809 8.88574 6.4761 5.99729 -80682.5 -228118 -29772.3 -14764.7 13843.3 -16248.9 -7.41364 
3874 2 12.5955 7.645 6.48187 6.00546 -103638 -204451 25149.8 -34750.6 22392.7 -31998 -7.41658 
3875 2 13.3324 6.43349 6.4819 5.99464 -101748 -207004 -24314.9 -27723.9 7577.8 -20317.5 -7.41378 
3876 2 12.6485 5.19188 6.48719 6.00453 -120914 -187310 19134.8 -46165.6 19165.6 -30410.7 -7.41599 
3877 2 13.3854 3.98027 6.48598 5.9942 -123132 -186154 -16271.9 -37249.5 1608.58 -23962 -7.41411 
3878 2 12.7026 2.73792 6.49057 6.00543 -137831 -171061 11018.3 -53907.6 14957 -28546.2 -7.41538 
3879 2 13.4393 1.52607 6.48807 5.99578 -144166 -166019 -6462.11 -43185.9 -3704.71 -27308.9 -7.4146 
3880 2 12.7574 0.283148 6.4918 6.00804 -153939 -155590 1641.01 -57980.4 9971.46 -26500.9 -7.41481 
3971 2 15.3858 10.1522 6.46439 5.99238 -63145.7 -243766 -42460.4 -20770.2 13141 -15500.9 -7.4133 
3972 2 14.6989 8.91235 6.46956 5.9981 -85919.8 -219286 37165.4 -42752.2 24557.2 -35555.8 -7.4178 
3973 2 15.4356 7.70063 6.46985 5.98807 -85401.3 -221842 -36276.8 -36985.8 7200.17 -20189.5 -7.4135 
3974 2 14.7502 6.45987 6.47488 5.99612 -105875 -200293 30107.7 -57736.6 22699.3 -34359.5 -7.41712 
3975 2 15.487 5.24807 6.47408 5.98609 -108892 -199512 -26890.4 -49771 1239.76 -24431.4 -7.41393 
3976 2 14.803 4.00649 6.47873 5.99627 -125866 -181762 20291.2 -68911.2 19511.1 -32688.2 -7.41636 
3977 2 15.5396 2.79447 6.47674 5.98641 -132381 -177376 -15048.6 -58716.4 -4195.61 -28269.6 -7.41453 
3978 2 14.8568 1.55221 6.48082 5.99841 -145244 -163879 8552.93 -75961.8 15260.6 -30627.9 -7.41559 
3979 2 15.5928 0.339826 6.47761 5.98888 -154910 -155670 -1727.91 -63626.7 -8856.94 -31731.1 -7.41526 
4070 2 16.8039 10.1771 6.45814 5.99179 -69416.5 -231134 50454.7 -49112.5 25126.9 -37051 -7.4191 
4071 2 17.5402 8.96506 6.45871 5.9837 -70963.2 -233451 -49584.6 -45278.5 6328.26 -18644.2 -7.4131 
4072 2 16.8535 7.72515 6.46305 5.98839 -90663.4 -211447 42857.8 -67716 24845.8 -36260 -7.41838 
4073 2 17.59 6.51309 6.46272 5.97992 -95220.9 -211053 -39425 -61674.5 504.889 -23177.2 -7.41359 
4074 2 16.9048 5.2723 6.46696 5.98734 -112832 -191913 31859.1 -82674.6 23027.8 -34904.5 -7.41751 
4075 2 17.6412 4.06007 6.46559 5.97854 -119958 -188353 -26109.2 -74091.8 -5020.07 -27307.6 -7.41429 
4076 2 16.9572 2.81852 6.46954 5.98856 -134670 -172753 18207.8 -93270.5 19893.6 -33042.8 -7.41658 
4077 2 17.6933 1.60597 6.46706 5.97954 -144261 -165588 -10560.3 -82018.8 -9789.5 -31028.6 -7.41515 
4078 2 17.0103 0.363787 6.47057 5.99208 -155319 -153857 2929.21 -98943.2 15613.9 -30733.9 -7.41564 
4170 2 18.9583 8.98783 6.45243 5.98225 -77496.2 -218906 56408.3 -75001.2 25523.5 -36114.7 -7.41969 
4171 2 19.6943 7.77543 6.45262 5.97618 -83517.8 -218829 -52917.5 -71646.2 -327.165 -20657.7 -7.41315 
4172 2 19.0079 6.53538 6.45612 5.97965 -100585 -199443 44877.9 -93807.7 25208.4 -35062.9 -7.41876 
4173 2 19.744 5.32286 6.45544 5.97297 -108513 -196841 -38864.6 -87781 -5883.93 -24791.1 -7.41389 
4174 2 19.0588 4.08203 6.45887 5.97951 -123694 -180305 29992.8 -108234 23420 -33484.8 -7.4177 
4175 2 19.7948 2.86926 6.45722 5.97225 -133470 -174552 -21815.5 -99147.4 -10830.6 -28560.6 -7.41484 
4176 2 19.1107 1.62775 6.46046 5.98193 -146011 -161263 12700.9 -117436 20303.7 -31434.3 -7.41659 
4177 2 19.8461 0.41457 6.4578 5.97423 -157242 -152209 -2947.43 -105298 -14812.9 -31907.2 -7.41594 
1100 1 21.4635 9.39469 2.95507 5.99473 -222450 -78466.9 -66924.2 98754.2 815.959 -16044.9 -7.41253 
1101 1 22.1462 8.15197 2.95656 5.98648 -218488 -77438.4 63277.5 97335.9 21795 -35518.8 -7.42061 
1102 1 21.4153 6.93601 2.95183 5.99895 -209116 -95818.9 -53413.4 119211 -5004.48 -19626.2 -7.41319 
1103 1 22.098 5.69345 2.95361 5.98075 -204769 -97244.1 47352.7 113867 21996.6 -34722.9 -7.41947 
1104 1 21.3656 4.4783 2.94942 5.9921 -194082 -113522 -36365.5 133094 -10903.3 -22849.9 -7.41408 
1105 1 22.0484 3.23601 2.95152 5.97586 -188448 -117952 28283.2 123649 21039.6 -33174.4 -7.41819 
1106 1 21.3148 2.02158 2.94806 5.98312 -177212 -131373 -16736.4 139780 -16271.7 -25709.9 -7.41517 
1107 1 21.9981 0.779663 2.95044 5.97037 -169275 -138964 7227.91 126592 19022.6 -30930.7 -7.41686 
1199 1 24.2935 9.34976 2.96362 5.98499 -215945 -72783.9 75837.1 102445 22020.5 -31446.7 -7.42175 
1200 1 23.5634 8.13319 2.95927 5.99724 -210652 -90023.6 -66475.9 125024 -5332.74 -16054 -7.41269 
1201 1 24.2468 6.89101 2.96086 5.97804 -206222 -90140.2 60317.6 123331 23340.7 -31065.2 -7.4206 
1202 1 23.5152 5.67525 2.95694 5.99017 -198808 -105874 -49490.2 143280 -10998.9 -18959.4 -7.41359 
1203 1 24.1986 4.43325 2.95871 5.97344 -193917 -108575 41103.6 137416 23395.6 -30035.7 -7.41927 
1204 1 23.4657 3.21819 2.95544 5.98067 -184988 -122007 -29214.3 154246 -16354.2 -21577.2 -7.41471 
1205 1 24.1494 1.97648 2.95737 5.96799 -178862 -127419 19128 144359 22306.8 -28366 -7.41784 
1206 1 23.4155 0.762023 2.95487 5.97309 -168759 -138168 -6858.54 157732 -20852 -23903.6 -7.41601 
1298 1 25.7107 9.33214 2.96522 5.99652 -206873 -88194.8 -78645.2 125775 -5451.93 -12376.9 -7.41221 
1299 1 26.3949 8.0904 2.96666 5.97691 -202288 -87178.2 72622.1 127829 23854.1 -26287.6 -7.42166 
1300 1 25.664 6.87416 2.96299 5.98813 -198679 -101845 -62339.6 148106 -10817.3 -14824.2 -7.41306 
1301 1 26.348 5.63251 2.9645 5.97112 -194616 -102766 53948.8 146240 24872.8 -25701.1 -7.42033 
1302 1 25.6158 4.41694 2.9614 5.97942 -188709 -115690 -42224.6 163432 -16126.8 -17054.8 -7.41417 
1303 1 26.2999 3.17548 2.96296 5.96604 -184100 -118799 31892.1 157572 24669.6 -24566.5 -7.41884 
1304 1 25.5666 1.9605 2.96058 5.97083 -176593 -129292 -19257.9 171241 -20759.7 -19066.3 -7.41549 
1305 1 26.2511 0.71931 2.96217 5.96229 -170424 -135041 7660.04 161430 23271.5 -22928.6 -7.4173 
1397 1 28.5426 9.29111 2.97122 5.97745 -192937 -88691.5 83815.8 127420 23623 -20730.1 -7.42262 
1398 1 27.8122 8.07454 2.96775 5.98754 -193377 -101877 -74332.5 147614 -10300.2 -10753.2 -7.41255 
1399 1 28.4969 6.8333 2.96904 5.97047 -189954 -100943 66211.9 149912 25551.3 -20511.7 -7.42132 
1400 1 27.7652 5.61735 2.96606 5.97917 -187652 -112853 -55019.2 167177 -15517.6 -12510.3 -7.4136 
1401 1 28.4499 4.37619 2.96734 5.96412 -184540 -113920 44768.9 165501 26182.2 -19855.3 -7.41983 
1402 1 27.7171 3.16079 2.96503 5.96977 -180009 -123795 -32245.5 179173 -20290.8 -14110.8 -7.4149 
1403 1 28.4019 1.91979 2.96628 5.96024 -175974 -127045 20442.2 173623 25578.4 -18765.4 -7.41823 
1404 1 27.6684 0.704829 2.96473 5.96315 -169713 -134609 -7258.6 183492 -24087.6 -15557.8 -7.41638 
1496 1 29.9599 9.27585 2.97138 5.98837 -182992 -106303 -85079.4 141918 -9428.17 -6940.93 -7.41207 
1498 1 29.9142 6.8189 2.96963 5.97883 -181523 -114252 -67052.4 165234 -14485.9 -8178.44 -7.41304 
1500 1 29.8671 4.36241 2.96839 5.96969 -178566 -122137 -45126.5 181568 -19376.4 -9310.97 -7.41427 
1502 1 29.8192 1.90635 2.9678 5.96245 -173345 -129666 -20277 190207 -23479.1 -10339 -7.41572 
4269 2 21.7999 9.03538 6.44407 5.97525 -75422.4 -221678 -66389.1 -78848.5 -1049.14 -17429.3 -7.41265 
4270 2 21.1123 7.79597 6.44671 5.97401 -90270 -203139 58386.1 -101464 26053 -33381.8 -7.42002 
4271 2 21.8479 6.58309 6.4467 5.97014 -99313.5 -201597 -52332.7 -98678.2 -6522.2 -21296.8 -7.4134 
4272 2 21.1617 5.3429 6.44943 5.97219 -113757 -185052 43039.7 -119721 25663.1 -32071.2 -7.4189 
4273 2 21.8974 4.12985 6.44861 5.9675 -123779 -180940 -34629.3 -113753 -11655.6 -24871 -7.41438 
4274 2 21.2123 2.88899 6.45132 5.9731 -136748 -167132 24537.7 -132650 23833.4 -30332.3 -7.41766 
4275 2 21.9476 1.67561 6.4496 5.96758 -147564 -160003 -14294.1 -123179 -15900.2 -28115.7 -7.41556 
4276 2 21.2635 0.434177 6.45218 5.97674 -158052 -149308 4100.24 -139478 20662.2 -28206.2 -7.41639 
4368 2 23.2179 9.05447 6.43889 5.9709 -83538.3 -202179 71529.2 -105055 25754.2 -30246 -7.42123 
4369 2 23.9529 7.84113 6.43951 5.97019 -93625.8 -201907 -65609.2 -105980 -6791.69 -17372 -7.41286 
4370 2 23.2658 6.60149 6.44148 5.96726 -106203 -186163 56431.7 -127010 26688.4 -29142.2 -7.4201 
4371 2 24.001 5.38807 6.44144 5.96561 -116711 -183806 -48047.5 -124750 -12029.5 -20553.5 -7.41384 
4372 2 23.315 4.14777 6.4435 5.96633 -128771 -170213 37568.1 -143703 26133.8 -27692.8 -7.41879 
4373 2 24.05 2.93414 6.44268 5.96366 -139389 -165200 -27140.3 -137700 -16597.9 -23498.6 -7.41503 
4374 2 23.365 1.69329 6.44476 5.96826 -149954 -154181 15974.6 -154157 24162.2 -25941.1 -7.4174 
4375 2 24.0997 0.479309 6.4431 5.96441 -160487 -146379 -4190.69 -144455 -20061.5 -26142.3 -7.4164 
4467 2 26.0587 9.09748 6.43378 5.97268 -92163.9 -197478 -78016 -109236 -6669.97 -13414.9 -7.41234 
4468 2 25.3708 7.85824 6.43502 5.96506 -101967 -183088 69386.6 -129785 26677.8 -25089 -7.42124 
4469 2 26.1054 6.64439 6.43569 5.96653 -112887 -182582 -61238.5 -131549 -11863.1 -16083.2 -7.41325 
4470 2 25.4186 5.40454 6.4371 5.96215 -123368 -169739 50920.9 -150103 27311.6 -23878.5 -7.41992 
4471 2 26.1533 4.19059 6.4371 5.96246 -133632 -167096 -40581.1 -148172 -16711.7 -18584.8 -7.41442 
4472 2 25.4675 2.95021 6.43861 5.96211 -143551 -156441 29046.9 -164202 26494 -22464.1 -7.41846 
4473 2 26.2021 1.73604 6.43784 5.96083 -153277 -151143 -17091.6 -158254 -20613.4 -20894.5 -7.41579 
4474 2 25.5171 0.495211 6.43941 5.96498 -161527 -142946 5085.1 -171384 24284 -20863 -7.41696 
4566 2 27.4767 9.1137 6.42993 5.9657 -101622 -175721 81322 -128082 25823.5 -20238.1 -7.42228 
4567 2 28.2105 7.89934 6.43123 5.96823 -112775 -177201 -73583.2 -133985 -11175.6 -11769.7 -7.41268 
4568 2 27.5231 6.65979 6.43202 5.96077 -121068 -165575 63858.2 -151748 27532.2 -19222.9 -7.42099 
4569 2 28.2572 5.44546 6.43277 5.96266 -131120 -165280 -53840.8 -154090 -16181.2 -13748 -7.41378 
4570 2 27.5709 4.20542 6.43372 5.95861 -139560 -155418 42479.9 -169372 27780.2 -18091.8 -7.41952 
4571 2 28.3051 2.991 6.43376 5.95895 -148618 -152861 -30629.7 -167703 -20516.7 -15611 -7.41512 
4572 2 27.6195 1.75056 6.43483 5.95938 -156114 -145090 18250.7 -180108 26617.4 -16874.2 -7.41795 
4573 2 28.3535 0.53593 6.43409 5.95817 -163981 -140069 -5286.07 -174342 -23702.8 -17314.6 -7.41663 
4666 2 29.6282 7.91406 6.42814 5.96222 -122216 -157792 75817.4 -148806 26952.9 -13973.6 -7.42198 
4668 2 29.6748 5.45945 6.42997 5.95792 -138676 -150946 55564.4 -169795 28167.9 -13078.9 -7.42053 
4670 2 29.7225 3.00454 6.43133 5.95648 -153342 -144187 31840 -184040 27970.4 -12182.2 -7.41895 
4672 2 29.7708 0.54928 6.4321 5.95801 -165094 -137036 5978.53 -190915 26395.9 -11282.6 -7.41731 
1497 1 30.6455 8.03506 2.97251 5.97046 -180121 -103632 77448.5 148202 25520.2 -14715.3 -7.42221 
1499 1 30.5995 5.57807 2.97067 5.96307 -179693 -113132 57174.7 167961 26940.5 -14478.3 -7.42075 
1501 1 30.5523 3.12163 2.96935 5.9587 -176660 -122827 33443.2 180505 27077.1 -13888 -7.41915 
1503 1 30.5044 0.665697 2.96866 5.95683 -170130 -132615 7507.91 185373 25934.1 -12981.4 -7.4175 
1595 1 32.7941 9.23725 2.97503 5.97116 -165467 -110881 87318.1 141511 24862.5 -8482.56 -7.42299 
1596 1 32.0629 8.02103 2.97224 5.97889 -170502 -119985 -77919.7 158016 -13018.8 -4201.21 -7.41252 
1597 1 32.7489 6.78059 2.97308 5.96315 -169915 -116698 68645 164958 27039.6 -8604.71 -7.4216 
1598 1 32.0168 5.5648 2.97081 5.96957 -172134 -124656 -57363.2 178318 -17970.6 -4832.53 -7.41365 
1599 1 32.7024 4.32428 2.97153 5.958 -172181 -122995 46090.9 181738 27872.7 -8463.36 -7.42003 
1600 1 31.9695 3.10885 2.96994 5.96263 -172100 -129001 -33312.4 191203 -22380.1 -5398.99 -7.41503 
1601 1 32.655 1.86833 2.97053 5.95591 -171351 -129241 20637.4 190974 27407.1 -8057.61 -7.41837 
1602 1 31.9217 0.653137 2.96971 5.95775 -169288 -133069 -7048.14 196349 -25733.2 -5913.88 -7.41659 
1694 1 34.2116 9.22321 2.97398 5.97958 -155057 -130049 -87285.5 145888 -11125.4 -676.03 -7.41206 
1695 1 34.8984 7.98319 2.97464 5.9643 -155404 -124686 78784.9 156728 26560.1 -2360.89 -7.42235 
1696 1 34.1663 6.76743 2.97239 5.96991 -161029 -131428 -68512.3 169619 -16050.7 -777.367 -7.41307 
1697 1 34.8525 5.52722 2.97289 5.95848 -162634 -127384 57892.6 177353 28063.5 -2607.61 -7.42085 
1698 1 34.1198 4.31176 2.97125 5.9627 -165834 -132490 -45822.5 186568 -20730.3 -851.642 -7.41435 
1699 1 34.8056 3.07142 2.9716 5.95562 -167423 -130141 33532.7 190895 28226.2 -2655.99 -7.41921 
1700 1 34.0723 1.85616 2.9707 5.95827 -168470 -133106 -20219 195954 -24542.6 -900.739 -7.41585 
1701 1 34.758 0.615777 2.97089 5.95585 -168799 -132733 6990.61 196707 27059.1 -2527.95 -7.41751 
1793 1 37.0481 9.18532 2.97537 5.96646 -136783 -137125 87202.4 143509 25575.7 4135.99 -7.42295 
1794 1 36.3159 7.96975 2.97318 5.97114 -145512 -142619 -78168.1 155803 -13613.9 2772.86 -7.41255 
1795 1 37.0028 6.72987 2.97345 5.96009 -148609 -136177 68387.9 167518 27730.4 3578.38 -7.42156 
1796 1 36.27 5.51454 2.9718 5.96352 -154787 -140312 -57319.3 176337 -18486.4 3225.7 -7.41371 
1797 1 36.9562 4.27441 2.9719 5.95651 -158390 -135306 45668.4 185063 28489.3 3137.64 -7.41998 
1798 1 36.2229 3.05923 2.97093 5.95856 -162627 -137466 -32981.1 189895 -22746.5 3674.74 -7.4151 
1799 1 36.9087 1.81894 2.97087 5.95541 -165454 -134346 20062.4 195271 27895.9 2823.92 -7.41831 
1800 1 36.1752 0.603794 2.97067 5.95632 -167772 -134227 -6455.48 195778 -25892.5 4096.19 -7.41669 
1892 1 38.4658 9.17119 2.97317 5.97327 -126331 -158090 -85911.5 137427 -10669.3 5724.42 -7.41212 
1893 1 39.1534 7.9317 2.9732 5.96253 -130367 -149184 77096.3 152805 26950.3 9973.97 -7.42213 
1894 1 38.4203 6.71663 2.97157 5.96533 -139595 -152364 -67318.1 161087 -15624.7 6752.37 -7.41313 
1895 1 39.1071 5.47676 2.9714 5.95776 -144871 -144862 56516 173764 28281.8 9225.82 -7.42066 
1896 1 38.3736 4.26179 2.9704 5.95989 -151980 -146233 -44800 178204 -20278.3 7739.99 -7.4144 
1897 1 39.0597 3.02162 2.97007 5.95576 -157150 -140316 32465.1 188005 28217.7 8532.01 -7.41905 
1898 1 38.326 1.80666 2.9698 5.95662 -162462 -139477 -19381.9 188307 -24009.1 8678.52 -7.41589 
1899 1 39.0117 0.56627 2.96931 5.9567 -166323 -135629 6258.48 194745 26787.5 7882.75 -7.41739 
4665 2 30.316 9.15345 6.4279 5.97229 -116871 -167956 -84644.5 -131977 -10041.3 -7788.84 -7.41216 
4667 2 30.3616 6.69928 6.42954 5.96487 -132132 -159849 -66324.3 -155439 -15038.2 -9211 -7.41316 
4669 2 30.4086 4.24472 6.43074 5.95983 -146958 -151159 -44074.3 -172621 -19719 -10565.9 -7.41441 
4671 2 30.4563 1.78973 6.43137 5.95684 -160167 -142050 -18938 -182629 -23462.2 -11843 -7.41588 
4764 2 31.7337 9.1679 6.42531 5.96591 -127211 -146587 86391.3 -141445 25699.4 -8297.24 -7.42286 
4765 2 32.4663 7.9526 6.42728 5.96956 -136930 -150973 -77573.3 -152231 -13355.2 -5094.03 -7.41258 
4766 2 31.7792 6.71285 6.42724 5.96006 -141096 -143306 67738.4 -165535 27791.3 -7600.33 -7.42147 
4767 2 32.5124 5.49774 6.42868 5.96256 -148764 -146212 -56830.9 -172766 -18238.8 -5913.62 -7.41373 
4768 2 31.826 4.25768 6.42881 5.9564 -153421 -140080 45168.4 -183169 28470 -6969.34 -7.41991 
4769 2 32.5595 3.04264 6.42957 5.95825 -159225 -140909 -32598.1 -186319 -22490.6 -6706.55 -7.41512 
4770 2 31.8737 1.80236 6.42986 5.95563 -163232 -136631 19718.4 -193504 27781.4 -6419.13 -7.41826 
4771 2 32.6072 0.587292 6.42985 5.95611 -167145 -135274 -6198.24 -192450 -25613.3 -7444.69 -7.41669 
4863 2 34.571 9.20596 6.4259 5.97692 -145466 -139069 -87217.4 -144444 -11209.3 -1470.05 -7.41207 
4864 2 33.8839 7.96615 6.42544 5.96324 -146875 -132659 78561 -156787 26757.9 -1779.21 -7.42231 
4865 2 34.6162 6.7506 6.42748 5.96782 -153948 -138111 -68400.5 -168180 -16128.5 -1739.08 -7.41309 
4866 2 33.9298 5.51053 6.42719 5.95804 -156665 -132851 57664.7 -177615 28231.7 -1360.15 -7.42081 
4867 2 34.6628 4.2952 6.42862 5.96126 -161448 -136560 -45664.1 -185216 -20780.9 -2014.73 -7.41437 
4868 2 33.9769 3.05495 6.42849 5.95583 -164114 -133194 33297.8 -191238 28346.7 -1094.57 -7.41918 
4869 2 34.7102 1.83975 6.42918 5.95744 -166823 -134904 -20019.4 -194724 -24544.7 -2291.46 -7.41587 
4870 2 34.0245 0.599396 6.42921 5.95586 -168189 -133386 6764.71 -197428 27118.9 -961.43 -7.41749 
4962 2 35.9886 9.21989 6.42447 5.96904 -155944 -119236 87660.7 -143565 25160.1 4280.5 -7.42302 
4963 2 36.72 8.00385 6.42706 5.97579 -162546 -127150 -78344.3 -158800 -13446.3 1894.4 -7.41252 
4964 2 36.0337 6.76363 6.4264 5.96162 -162995 -122939 68837.9 -167306 27356.7 4545.14 -7.42162 
4965 2 36.766 5.54796 6.42846 5.96706 -166914 -129549 -57590.3 -179177 -18352 2163.62 -7.41367 
4966 2 36.0802 4.30761 6.42794 5.95712 -168000 -126908 46127 -184277 28192.6 4594.96 -7.42004 
4967 2 36.8131 3.09222 6.42932 5.96092 -169347 -131551 -33343.8 -192163 -22690 2392.01 -7.41506 
4968 2 36.1275 1.85181 6.42894 5.95538 -169737 -130634 20523.5 -193845 27711.3 4428.12 -7.41837 
4969 2 36.8609 0.636598 6.42955 5.957 -169112 -133165 -6885.77 -197694 -25949.8 2595.95 -7.41664 
5061 2 38.8235 9.25804 6.42737 5.98622 -174198 -113868 -86235.5 -144677 -10239 4905.82 -7.41206 
5062 2 38.1375 8.01754 6.42639 5.96789 -172304 -110407 78241.2 -152484 25941.3 10634.8 -7.4223 