ITEM: TIMESTEP
0
ITEM: NUMBER OF ATOMS
6536
ITEM: BOX BOUNDS pp pp pp
0.0000000000000000e+00 7.0200368299999994e+01
0.0000000000000000e+00 1.2159060500000000e+02
0.0000000000000000e+00 1.5000000000000000e+01
ITEM: ATOMS id type x y z c_csym c_2[1] c_2[2] c_2[3] c_2[4] c_2[5] c_2[6] c_3 
109 1 0.172 9.822 3 6.02026 -108998 -147584 -131447 13852.1 36855.9 -1203.65 -7.41185 
110 1 0.859 8.582 3 6.0272 -152557 -163052 -148018 -6272.96 23423.5 -4835.86 -7.41099 
111 1 0.129 7.367 3 6.02457 -116959 -177685 -144195 -5561.89 26096.1 -1101.6 -7.41126 
112 1 0.816 6.127 3 6.02091 -137732 -130817 -152436 12213.6 16788.4 -3987.98 -7.41085 
113 1 0.086 4.911 3 6.02214 -154334 -140731 -152444 14647.8 16141 -781.364 -7.41125 
114 1 0.773 3.671 3 6.02542 -143702 -162167 -155854 -4217.99 10068.7 -3261.4 -7.41101 
115 1 0.043 2.456 3 6.02189 -158955 -137229 -156946 -16920.1 7501.98 -483.231 -7.41067 
116 1 0.73 1.215 3 6.02027 -132522 -132159 -157940 -19698.8 3343.93 -2401.8 -7.41057 
117 1 0 0 3 6.02658 -162349 -146865 -158280 -12472.5 13.0927 -0.846184 -7.41092 
209 1 3.007 9.773 3 6.02402 -144688 -127799 -142160 10688.8 26962 -14298.4 -7.41167 
210 1 2.277 8.557 3 6.02234 -127012 -145436 -138454 17484 30767.3 -6100.74 -7.41158 
211 1 2.964 7.317 3 6.0247 -145460 -165169 -147453 -7307.03 20469.4 -12862.9 -7.41147 
212 1 2.234 6.102 3 6.02677 -136132 -175822 -148854 -2391.85 20236.7 -6092.46 -7.411 
213 1 2.921 4.862 3 6.0199 -130419 -133742 -151867 11860.7 13616.8 -11241.5 -7.41131 
214 1 2.191 3.646 3 6.02402 -126085 -140093 -154780 16729.9 10916.3 -6185.41 -7.41075 
215 1 2.878 2.406 3 6.0247 -135722 -168702 -155267 -6512.24 6764.48 -9565.32 -7.41121 
216 1 2.148 1.191 3 6.02242 -123769 -136875 -157239 -22023.8 2885.37 -6122.4 -7.41031 
308 1 4.425 9.748 3 6.02721 -129446 -164035 -131902 -9170.54 35269.9 -10810.2 -7.41203 
309 1 5.113 8.508 3 6.02107 -170941 -102016 -137893 13021.8 24807.8 -22332.3 -7.41179 
310 1 4.382 7.292 3 6.02225 -108135 -117287 -143724 21081.4 24452 -11317 -7.4109 
311 1 5.07 6.052 3 6.02406 -175858 -138237 -143757 -6815.05 18131 -20301.9 -7.41125 
312 1 4.339 4.837 3 6.02611 -117830 -147470 -151084 930.373 14426.1 -11855.1 -7.41051 
313 1 5.027 3.597 3 6.02137 -161415 -107017 -149037 11910.1 11136.1 -17868.8 -7.41104 
314 1 4.296 2.381 3 6.02369 -109314 -110349 -154414 19554.4 5681.36 -12223.8 -7.41046 
315 1 4.984 1.141 3 6.02466 -163778 -120026 -152419 2501.9 4026.17 -15803.5 -7.41089 
407 1 7.261 9.698 3 6.01959 -177793 -104451 -123203 -19179.3 28966.1 -32111 -7.41196 
408 1 6.53 8.483 3 6.02433 -167223 -149119 -138561 7690.21 28426 -16231.1 -7.41184 
409 1 7.218 7.243 3 6.0238 -169312 -105789 -131021 12313 22957 -29813.2 -7.41195 
410 1 6.487 6.027 3 6.02137 -156475 -116509 -146357 24364.9 18142.7 -17433.4 -7.41112 
411 1 7.175 4.787 3 6.02406 -174899 -140219 -138474 -8290.11 16199.2 -27184.8 -7.41154 
412 1 6.444 3.572 3 6.02406 -166775 -146720 -150441 3850.42 8627.15 -18328.3 -7.41088 
413 1 7.132 2.332 3 6.02137 -160527 -110164 -144269 9900.48 8958.06 -24469.5 -7.41123 
414 1 6.401 1.116 3 6.02195 -161993 -124060 -150939 28604.9 333.76 -19370.5 -7.41094 
506 1 8.678 9.674 3 6.01959 -161893 -122296 -133132 -4277.43 31863.3 -20236.1 -7.41139 
507 1 9.366 8.433 3 6.02088 -127431 -108745 -113244 -19729.6 27585 -39229.4 -7.41214 
508 1 8.635 7.218 3 6.02406 -166149 -151409 -141650 10094.7 21440.9 -22452.9 -7.41165 
509 1 9.323 5.978 3 6.02545 -119000 -110825 -123002 10245.7 21402.3 -36686.2 -7.41201 
510 1 8.592 4.762 3 6.02137 -156017 -118831 -145867 26399.2 11458 -24177.7 -7.41112 
511 1 9.28 3.522 3 6.02611 -125255 -145472 -131392 -10803.8 14470.3 -33858.2 -7.41153 
512 1 8.549 2.307 3 6.02152 -166386 -148205 -146325 5180.23 2453.9 -25845.1 -7.41125 
513 1 9.237 1.067 3 6.0246 -125515 -142790 -138623 -14018.9 6987.9 -30714.5 -7.41129 
3282 2 0.559 8.607 6.4 6.02028 -168909 -148267 -138466 15890.4 31537 -450.897 -7.41216 
3283 2 0.601 6.151 6.4 6.02005 -114873 -134448 -148898 -13042.7 21126.9 -708.839 -7.41112 
3284 2 0.644 3.696 6.4 6.02462 -125260 -162830 -155225 6081.65 11703.3 -1150.75 -7.41098 
3285 2 0.687 1.24 6.4 6.02167 -121062 -131081 -157907 -18672.6 3725.18 -1734.63 -7.41093 
3286 2 0 0 6.4 6.02711 -162134 -147876 -158265 -8930.09 -11.7758 24.2834 -7.41093 
3377 2 2.664 9.872 6.4 6.02385 -159376 -115689 -131292 -11675.6 37256.6 -4996.15 -7.41193 
3378 2 1.976 8.632 6.4 6.02211 -174631 -97742.1 -146525 -13970.6 24055.6 -7080.09 -7.41119 
3379 2 2.707 7.416 6.4 6.02137 -155119 -115928 -143846 -10786.1 26516.8 -5638.82 -7.41128 
3380 2 2.019 6.176 6.4 6.02672 -127470 -136532 -150995 4015.69 17462.2 -6579.71 -7.41066 
3381 2 2.75 4.961 6.4 6.02406 -164115 -146777 -151967 7416.09 16504.8 -6223.17 -7.41084 
3382 2 2.062 3.721 6.4 6.02175 -112853 -105377 -154713 -15961.6 10774.1 -6436.43 -7.41053 
3383 2 2.793 2.505 6.4 6.0238 -154707 -111214 -155852 -12390.9 7719.52 -7068.44 -7.41068 
3384 2 2.105 1.265 6.4 6.02715 -119591 -138284 -157032 399.714 4168.66 -6177.43 -7.41062 
3385 2 2.836 0.05 6.4 6.01807 -161484 -119890 -156664 13486.2 176.06 -8221.89 -7.41077 
3476 2 4.081 9.897 6.4 6.02385 -176291 -100157 -138303 -16271 28305.9 -16620.8 -7.41153 
3477 2 4.812 8.681 6.4 6.02217 -109048 -119904 -137630 -7649.83 31803.9 -10272.2 -7.4111 
3478 2 4.124 7.441 6.4 6.02406 -179423 -135808 -143900 3559.7 22060.1 -15593 -7.41123 
3479 2 4.855 6.226 6.4 6.02433 -165691 -148583 -147149 10440.7 21431.3 -11377.8 -7.41106 
3480 2 4.167 4.986 6.4 6.02137 -165032 -103886 -148796 -17787.2 15413.8 -14474.4 -7.41104 
3481 2 4.898 3.77 6.4 6.0238 -155707 -112929 -152352 -9642.14 11972 -12454.9 -7.41084 
3482 2 4.21 2.53 6.4 6.02406 -171057 -135807 -152616 -1248.65 8734.6 -13591.4 -7.41118 
3483 2 4.941 1.315 6.4 6.01959 -160283 -110550 -153788 21051.1 3483.31 -13950.3 -7.41036 
3484 2 4.253 0.074 6.4 6.01902 -164944 -118082 -154700 17443 1826.31 -12806.2 -7.41077 
3575 2 6.917 9.947 6.4 6.02009 -130558 -149632 -131054 29291.2 36107.1 -14541.7 -7.41178 
3576 2 6.23 8.706 6.4 6.02137 -141490 -135100 -132220 21315.2 26849 -25155.1 -7.41171 
3577 2 6.96 7.491 6.4 6.02676 -129695 -165190 -142092 27296.3 25845.2 -16250.6 -7.41124 
3578 2 6.272 6.251 6.4 6.01864 -166514 -104327 -138510 -18000.6 20554.9 -23747.1 -7.41178 
3579 2 7.003 5.035 6.4 6.02545 -107882 -117929 -147838 -5915.8 15915.1 -17958.7 -7.41067 
3580 2 6.315 3.795 6.4 6.02406 -172134 -137934 -144290 -2180.24 13911.8 -22054.4 -7.4116 
3581 2 7.046 2.58 6.4 6.02088 -112501 -114457 -149830 24489 6779.38 -19744.9 -7.41023 
3582 2 6.358 1.339 6.4 6.0189 -163708 -107688 -148544 10388.3 6966.76 -20625 -7.41076 
3583 2 7.089 0.124 6.4 6.02504 -115805 -123331 -148477 18951.1 -1450.03 -21850.6 -7.41071 
3674 2 8.335 9.971 6.4 6.02186 -149383 -134374 -115830 15816.2 31401 -34720.1 -7.41237 
3675 2 9.065 8.756 6.4 6.02615 -137721 -182551 -136512 15990.6 29434.8 -20517 -7.41192 
3676 2 8.378 7.516 6.4 6.02265 -138302 -136838 -123576 -15115.5 25824 -33209.7 -7.41256 
3677 2 9.108 6.3 6.4 6.02402 -127096 -150012 -143171 -2210.2 19526.6 -22994.6 -7.41126 
3678 2 8.421 5.06 6.4 6.0247 -141527 -169054 -131375 -879.777 19460.7 -31409.4 -7.41269 
3679 2 9.151 3.845 6.4 6.02186 -131323 -146689 -145024 28073.6 9886.32 -25450.4 -7.41081 
3680 2 8.464 2.604 6.4 6.02106 -132000 -139932 -138284 11408.6 12592.3 -29349.7 -7.41164 
3681 2 9.194 1.389 6.4 6.02623 -137964 -176075 -143507 12647.4 1134.87 -27956.6 -7.41156 
3682 2 8.507 0.149 6.4 6.02226 -128865 -159008 -143336 -13430.5 5443.22 -27565.1 -7.41143 
605 1 11.514 9.624 3 6.02676 -145348 -156670 -91277.3 -18537.8 31116.4 -47276.4 -7.41419 
606 1 10.784 8.409 3 6.0196 -128143 -155423 -136841 -3097.59 24289.7 -26125.5 -7.41139 
607 1 11.471 7.168 3 6.02186 -143795 -140800 -102747 -21543.4 26210.9 -45557 -7.41309 
608 1 10.741 5.953 3 6.0247 -133850 -182196 -141119 10267.2 14191.1 -28974.5 -7.41208 
609 1 11.428 4.713 3 6.02402 -136001 -143123 -113825 7992.74 19914.2 -43006.6 -7.41287 
610 1 10.698 3.497 3 6.0199 -124267 -149627 -141109 26187 4738.8 -31565.2 -7.41179 
611 1 11.385 2.257 3 6.02721 -143831 -176521 -124048 -13393.2 12912.1 -39919.4 -7.41234 
612 1 10.655 1.042 3 6.02298 -132026 -159570 -137406 -8324.62 -3792.13 -33987.7 -7.41171 
704 1 12.932 9.599 3 6.02265 -127658 -156790 -132988 29383.8 25666.2 -27888.3 -7.41193 
705 1 13.619 8.359 3 6.02615 -151761 -174683 -78392.8 -6892.1 29834.3 -52524.9 -7.41507 
706 1 12.889 7.144 3 6.02186 -133384 -153785 -136855 -1025.49 16139.8 -32080.5 -7.41116 
707 1 13.576 5.903 3 6.02186 -142132 -145116 -91421 -22824.9 24868.3 -50819.6 -7.41368 
708 1 12.846 4.688 3 6.02615 -139577 -182728 -136198 11477.5 6574.7 -35785.4 -7.4119 
709 1 13.533 3.448 3 6.02265 -135025 -147569 -104782 6252.02 18630.5 -48166.1 -7.41332 
710 1 12.803 2.232 3 6.02402 -131392 -148936 -131399 26891.3 -2293.5 -39067.2 -7.41194 
711 1 13.49 0.992 3 6.02516 -137459 -161066 -116826 -3723.43 11491.7 -45013.7 -7.4127 
803 1 15.767 9.55 3 6.02127 -143299 -147272 -50829.3 11470.6 31855.5 -56769.5 -7.41622 
804 1 15.037 8.334 3 6.02265 -130151 -157329 -133729 32207.4 16797.9 -32868.8 -7.41166 
805 1 15.724 7.094 3 6.02615 -150117 -178716 -65641.2 -7963.98 28571.9 -56133.4 -7.41574 
806 1 14.994 5.879 3 6.02186 -134269 -155149 -131836 -311.459 7702.86 -37784.1 -7.41141 
807 1 15.681 4.638 3 6.02186 -141173 -149280 -81204 -24315.6 23736.5 -54430.4 -7.41421 
808 1 14.951 3.423 3 6.02615 -141043 -184422 -126161 11810.7 -1173.84 -41986.2 -7.41243 
809 1 15.638 2.183 3 6.02265 -134044 -152775 -96604.7 4335.32 17545.7 -51712.8 -7.41369 
810 1 14.908 0.967 3 6.0255 -137089 -164780 -117207 34444.1 -9425.79 -45555.1 -7.41264 
902 1 17.185 9.525 3 6.02616 -140664 -191577 -132223 13537.6 16221.7 -31344.9 -7.41169 
903 1 17.872 8.285 3 6.02127 -141685 -150716 -37358.5 10575 30699.3 -58471 -7.41694 
904 1 17.142 7.069 3 6.02265 -130826 -158082 -129147 32395.4 7740.95 -37186.1 -7.41191 
905 1 17.829 5.829 3 6.02615 -149147 -182302 -54897.6 -9227.49 27429.6 -57748.4 -7.41631 
906 1 17.099 4.614 3 6.02186 -135566 -156268 -122385 -461.578 -687.747 -42271.4 -7.41192 
907 1 17.786 3.373 3 6.02106 -138469 -153425 -72456.5 -27619 22833.2 -55842.4 -7.41488 
908 1 17.056 2.158 3 6.02623 -142284 -186877 -111781 11399.8 -8835.23 -46614.6 -7.41314 
909 1 17.743 0.918 3 6.02225 -133488 -170591 -89566.4 -5162.93 17006 -52851.5 -7.41442 
1001 1 20.02 9.475 3 6.0247 -148174 -186152 -7989.34 -7931.46 31324.4 -57433.5 -7.41891 
1002 1 19.29 8.26 3 6.02677 -141062 -191602 -128409 13125.9 6829.49 -34081.9 -7.41189 
1003 1 19.977 7.02 3 6.0199 -136150 -154558 -26425.2 9461.61 29841 -57867.4 -7.41795 
1004 1 19.247 5.804 3 6.02402 -131935 -158438 -120347 31677.2 -1202.95 -39860.6 -7.41238 
1005 1 19.934 4.564 3 6.0247 -144003 -188175 -45807.8 -10986.4 26725.7 -56836.2 -7.41699 
1006 1 19.204 3.349 3 6.02194 -128503 -143164 -108202 -13942.5 -8774.78 -44974.4 -7.41249 
1007 1 19.892 2.108 3 6.01607 -170028 -124192 -65585.9 -25822.8 22452.3 -54682.5 -7.41528 
1008 1 19.161 0.893 3 6.02504 -121803 -139370 -92551.9 1340.39 -15779.7 -49146.6 -7.41356 
3773 2 11.17 10.021 6.4 6.02615 -138683 -186091 -131783 18540.2 31425.3 -23133.8 -7.41212 
3774 2 10.483 8.781 6.4 6.02265 -142896 -138979 -103714 -16513.6 30668.2 -42160.1 -7.41339 
3775 2 11.213 7.565 6.4 6.02265 -127869 -154069 -138212 520.051 22090 -26943.9 -7.41147 
3776 2 10.526 6.325 6.4 6.02615 -148620 -170388 -113527 -799.797 25057.3 -40463.8 -7.4132 
3777 2 11.256 5.11 6.4 6.02186 -131813 -151006 -140385 30822.3 12451.3 -30256.7 -7.41101 
3778 2 10.569 3.869 6.4 6.02186 -138955 -141053 -122938 11152.1 18554.2 -38467.1 -7.41202 
3779 2 11.299 2.654 6.4 6.02615 -138657 -179603 -138121 15349.3 3316.31 -33471.6 -7.41184 
3780 2 10.612 1.414 6.4 6.02265 -131605 -144832 -131224 -22240.9 11573.5 -36229.3 -7.41189 
3781 2 11.342 0.198 6.4 6.0255 -134996 -159477 -132378 -11462.9 -5077.44 -36717.8 -7.41188 
3872 2 12.588 10.046 6.4 6.02265 -144771 -141955 -79533.2 -15855.1 34008.5 -49388.1 -7.41468 
3873 2 13.318 8.83 6.4 6.02127 -128617 -157383 -134527 2714.59 23180.5 -28943.6 -7.41163 
3874 2 12.631 7.59 6.4 6.02615 -152444 -173622 -91214.5 1579.6 29802 -48351.9 -7.41414 
3875 2 13.361 6.375 6.4 6.02368 -131737 -154795 -135875 38334.1 14045 -33534.3 -7.41121 
3876 2 12.674 5.134 6.4 6.02009 -139745 -143120 -102950 13436 24113.8 -46616.8 -7.41331 
3877 2 13.404 3.919 6.4 6.02615 -139047 -183850 -133343 17798.5 4969.18 -37617.8 -7.41206 
3878 2 12.717 2.679 6.4 6.02265 -134379 -146279 -113956 -22249.1 17637.6 -44502.4 -7.41284 
3879 2 13.447 1.463 6.4 6.02402 -131294 -150064 -126443 -1510.35 -3621.55 -41448.3 -7.4122 
3880 2 12.76 0.223 6.4 6.02516 -137159 -159847 -123841 -17105.8 10406.6 -41922.5 -7.41232 
3971 2 15.423 10.095 6.4 6.0199 -124458 -160519 -132229 4142.92 22762.4 -28810.9 -7.41216 
3972 2 14.736 8.855 6.4 6.02677 -152825 -178902 -64818.4 2744.49 33007.8 -53927 -7.41543 
3973 2 15.466 7.64 6.4 6.0247 -134502 -192654 -132994 23181.9 14271.4 -34477.7 -7.41208 
3974 2 14.779 6.4 6.4 6.02234 -140089 -147582 -78477.7 -18771.5 28795.7 -52906.2 -7.41462 
3975 2 15.509 5.184 6.4 6.02465 -129417 -155550 -128996 4081.68 5691.19 -39648.4 -7.41215 
3976 2 14.822 3.944 6.4 6.02402 -138099 -146239 -92363.2 -21418.5 23254.7 -51074.4 -7.41411 
3977 2 15.552 2.728 6.4 6.02127 -130717 -155506 -121488 474.099 -2708.22 -44192.6 -7.41236 
3978 2 14.865 1.488 6.4 6.02615 -145283 -182068 -105479 -4942.54 16728.2 -48642.1 -7.41329 
3979 2 15.595 0.273 6.4 6.02383 -136633 -166654 -110242 29114.1 -10589 -48224.6 -7.41289 
4070 2 16.841 10.12 6.4 6.02611 -135446 -153210 -36137.5 2903.21 34446.1 -56575.7 -7.41659 
4071 2 17.572 8.905 6.4 6.02406 -167651 -164649 -131717 22274.3 13246 -33170.1 -7.41171 
4072 2 16.884 7.665 6.4 6.02225 -122622 -121562 -50654.3 -18628.7 31822.2 -56346.1 -7.41585 
4073 2 17.615 6.449 6.4 6.02102 -159749 -126760 -126826 2486.52 5188.87 -39109.8 -7.41235 
4074 2 16.927 5.209 6.4 6.02721 -132159 -134888 -66869.5 -7986.58 27774.6 -55216.1 -7.41516 
4075 2 17.657 3.993 6.4 6.0199 -126877 -161746 -117635 2740.97 -2646.23 -44375.3 -7.41263 
4076 2 16.97 2.753 6.4 6.02677 -146643 -185576 -83084.6 -3771.12 22451.3 -53117 -7.41441 
4077 2 17.7 1.538 6.4 6.0247 -137583 -192074 -105131 19372.3 -10227.2 -49005 -7.41356 
4078 2 17.013 0.298 6.4 6.0246 -138059 -168318 -98200.7 -18320.1 16070.1 -50267.9 -7.41354 
4170 2 18.989 8.93 6.4 6.02137 -172014 -121970 -21710.5 -18246.4 33178 -56630.8 -7.41778 
4171 2 19.72 7.714 6.4 6.0238 -159351 -130482 -126583 2221.56 3945.93 -36156.8 -7.41203 
4172 2 19.032 6.474 6.4 6.02433 -179914 -153351 -38838.6 -3193.31 30697.2 -56173 -7.41717 
4173 2 19.763 5.259 6.4 6.01959 -162514 -129521 -116207 35429.4 -3637.27 -41964.4 -7.41246 
4174 2 19.075 4.018 6.4 6.02371 -123161 -125113 -57271.9 13841.8 26974 -54821.4 -7.41509 
4175 2 19.806 2.803 6.4 6.02406 -172731 -161286 -101867 18510.8 -10544.1 -47073 -7.41346 
4176 2 19.118 1.563 6.4 6.02225 -117503 -128452 -75413.7 -25396.5 21909.9 -52444.1 -7.41443 
4177 2 19.849 0.347 6.4 6.02195 -167748 -142046 -84762.1 -10534.4 -16901.6 -51407.4 -7.41435 
1100 1 21.438 9.45 3 6.02225 -111878 -129412 -129840 32513.5 5144.58 -29163.3 -7.4115 
1101 1 22.126 8.21 3 6.02406 -180309 -158647 2388.75 -7031.92 30756.6 -54703.8 -7.41905 
1102 1 21.395 6.995 3 6.02611 -123243 -163065 -120644 12625 -2172.3 -35202 -7.41195 
1103 1 22.083 5.755 3 6.02137 -168788 -127227 -18147.8 10151.7 29347.2 -54677.6 -7.41796 
1104 1 21.352 4.539 3 6.0246 -114748 -130348 -107015 30894.2 -9449.35 -40550.1 -7.41273 
1105 1 22.04 3.299 3 6.02406 -177754 -158035 -40185.7 -10902.7 26607.2 -53330 -7.41708 
1106 1 21.309 2.084 3 6.02097 -167980 -128923 -89879.8 -1603.78 -15973.5 -45100 -7.41361 
1107 1 21.997 0.843 3 6.01792 -173116 -138721 -62196.1 -32129.8 22600.2 -50810.7 -7.41557 
1199 1 24.274 9.401 3 6.0238 -171955 -124059 29237.5 13525.2 30465.4 -48971.1 -7.42055 
1200 1 23.543 8.185 3 6.02137 -160554 -127116 -123186 31479.2 -3631.89 -29129.2 -7.41224 
1201 1 24.231 6.945 3 6.02433 -181326 -158460 8799.03 -7834.67 30702.9 -49497.2 -7.4194 
1202 1 23.5 5.73 3 6.02406 -172013 -161617 -108528 10348.5 -10403.2 -34333.2 -7.41297 
1203 1 24.188 4.49 3 6.02217 -121975 -128237 -14316.6 8604.95 29571.2 -49054 -7.41779 
1204 1 23.457 3.274 3 6.0238 -163346 -129720 -90036.7 29494.3 -16729.1 -38819.8 -7.41403 
1205 1 24.145 2.034 3 6.0261 -129755 -160393 -38138.5 -11330.3 26878.7 -47357.6 -7.41677 
1206 1 23.414 0.819 3 6.02085 -170279 -142630 -69323.8 1655.91 -22083 -42700.7 -7.41507 
1298 1 25.691 9.376 3 6.02406 -168240 -155550 -127391 11825.1 -4880.43 -22436.4 -7.41238 
1299 1 26.379 8.136 3 6.02545 -123769 -125661 33865.4 12191 30864.8 -42275.4 -7.42044 
1300 1 25.648 6.92 3 6.01864 -160485 -125285 -112438 28729.5 -11360 -27076.7 -7.41305 
1301 1 26.336 5.68 3 6.02677 -143313 -174131 10749.8 -22348.3 31157.4 -42322.2 -7.41933 
1302 1 25.606 4.465 3 6.02385 -139820 -192445 -93351.8 6716.87 -17333 -31126.6 -7.41403 
1303 1 26.293 3.225 3 6.02234 -140752 -156252 -14399.5 7607.71 29966.5 -41459 -7.41817 
1304 1 25.563 2.009 3 6.02265 -133124 -156422 -71327.8 25137.9 -22711.5 -34803.9 -7.41557 
1305 1 26.25 0.769 3 6.02768 -144042 -168583 -40092.8 -2027.56 27495.7 -39353.6 -7.4168 
1397 1 28.527 9.326 3 6.02186 -146469 -151288 55839.2 -18881.2 29992.9 -33318 -7.42168 
1398 1 27.797 8.111 3 6.0247 -136085 -183726 -118093 7446.74 -11837.7 -19599.7 -7.41331 
1399 1 28.484 6.871 3 6.02402 -142637 -153485 33476 11217.8 31622.4 -33978 -7.42081 
1400 1 27.754 5.655 3 6.02127 -131119 -154598 -98932.7 22889.3 -17836.7 -22973.8 -7.41382 
1401 1 28.441 4.415 3 6.02615 -152246 -187689 8544.09 -9853.48 31706.5 -33586 -7.41939 
1402 1 27.711 3.2 3 6.02616 -146341 -188201 -76265.9 4296.4 -23080.3 -26197.8 -7.41477 
1403 1 28.398 1.96 3 6.02127 -140171 -156416 -18403.5 7904.05 30504.4 -32387 -7.41792 
1404 1 27.668 0.744 3 6.0255 -143400 -168010 -50825.7 29994.8 -27242.1 -28786.7 -7.41622 
1496 1 29.945 9.302 3 6.02186 -133307 -148765 -124838 -9438.73 -11843.1 -12628.8 -7.41188 
1498 1 29.902 6.846 3 6.02615 -141942 -181722 -106202 4481.94 -17704 -15071.2 -7.41355 
1500 1 29.859 4.39 3 6.02127 -135010 -153117 -83775.4 21521.1 -23110.9 -17452.6 -7.41444 
1502 1 29.816 1.935 3 6.02615 -147538 -188031 -57672.2 1321.84 -27399 -19366.4 -7.41574 
4269 2 21.825 8.979 6.4 6.02545 -110863 -130541 -128313 2164.51 2123.31 -31175.4 -7.41159 
4270 2 21.137 7.739 6.4 6.02406 -180007 -155372 -10063.9 -1784.96 32077.9 -54112.9 -7.41873 
4271 2 21.868 6.524 6.4 6.02088 -116241 -130410 -117216 32961.3 -4787.46 -37213.4 -7.41181 
4272 2 21.18 5.283 6.4 6.01959 -172485 -125926 -29574 9710.07 29816.5 -53322.7 -7.41697 
4273 2 21.911 4.068 6.4 6.02549 -124155 -161329 -101928 17708.3 -11492.1 -42553.8 -7.41333 
4274 2 21.223 2.828 6.4 6.0238 -167683 -127404 -50138.5 -23468.1 26439.4 -51545.7 -7.4162 
4275 2 21.954 1.612 6.4 6.02284 -165284 -128051 -83007.7 -2334.25 -17439.5 -47150.4 -7.41448 
4276 2 21.266 0.372 6.4 6.02466 -171548 -139436 -70857.9 -19691.8 21808.1 -48825.5 -7.41511 
4368 2 23.243 9.004 6.4 6.0247 -147776 -184686 17971.4 1140.29 31916 -49172.7 -7.42069 
4369 2 23.973 7.789 6.4 6.02186 -134244 -156522 -120345 32363 -6297.07 -30943.5 -7.41204 
4370 2 23.286 6.548 6.4 6.02106 -140906 -155084 -2150.12 12990.2 31454.4 -48976.4 -7.4189 
4371 2 24.016 5.333 6.4 6.02721 -142330 -188395 -104453 17685.4 -12512.7 -36173.6 -7.41358 
4372 2 23.329 4.093 6.4 6.02128 -135690 -159071 -23795.7 -20483.8 29549.6 -47649.4 -7.41786 
4373 2 24.059 2.877 6.4 6.02407 -125970 -144582 -84778.1 11303.6 -18331.9 -40773 -7.41415 
4374 2 23.371 1.637 6.4 6.02153 -176749 -158019 -46599.1 -7242.46 26427.1 -45683 -7.41688 
4375 2 24.102 0.422 6.4 6.02144 -123226 -143269 -61968.9 21939.9 -23169.7 -44510.9 -7.4151 
4467 2 26.078 9.054 6.4 6.02186 -133249 -153594 -125288 30160.9 -7385.67 -24050.4 -7.41181 
4468 2 25.391 7.813 6.4 6.02186 -146334 -153157 24388.4 14388.2 31581.4 -42221.4 -7.41993 
4469 2 26.121 6.598 6.4 6.02615 -141463 -186075 -109192 15935.6 -13477.8 -28673.4 -7.41335 
4470 2 25.434 5.358 6.4 6.02265 -141827 -155222 2147.18 -19008.5 31367.6 -41459.6 -7.41908 
4471 2 26.164 4.142 6.4 6.02265 -134058 -156943 -89323.9 -2362.62 -19053.8 -32919.9 -7.4141 
4472 2 25.477 2.902 6.4 6.0247 -148379 -186802 -21931.9 -2047.97 29664.3 -39895.3 -7.41829 
4473 2 26.207 1.687 6.4 6.02186 -140056 -157398 -65705.7 27539.7 -23926.5 -36519.6 -7.41496 
4474 2 25.52 0.446 6.4 6.02168 -141057 -167951 -46902.6 13649.1 26783 -37728.8 -7.41683 
4566 2 27.496 9.078 6.4 6.02186 -146581 -151767 48052.2 15654.1 30697.6 -33934.6 -7.42125 
4567 2 28.226 7.863 6.4 6.02615 -140238 -183146 -115949 13457.7 -13736.7 -20988.2 -7.41301 
4568 2 27.539 6.623 6.4 6.02265 -142633 -153837 26572.5 -17253.9 31801.8 -33295.6 -7.42043 
4569 2 28.269 5.407 6.4 6.02127 -133020 -154507 -96066.2 -4396.71 -19451.1 -24582.4 -7.41376 
4570 2 27.582 4.167 6.4 6.02615 -153656 -185464 1998.58 215.255 31632.6 -32415.5 -7.41914 
4571 2 28.312 2.952 6.4 6.02368 -139197 -154503 -72215.1 31227.2 -24300.3 -27730.9 -7.41467 
4572 2 27.625 1.711 6.4 6.01992 -144025 -152676 -24263.2 12243.5 30045.1 -30846.3 -7.41759 
4573 2 28.355 0.496 6.4 6.02565 -144164 -166367 -45956.3 20483.9 -28059.9 -30461.5 -7.41649 
4666 2 29.644 7.888 6.4 6.02265 -142940 -152258 48083.4 -15811.6 31366.8 -24134.2 -7.42162 
4668 2 29.687 5.432 6.4 6.02615 -153073 -186355 24221.5 2458.06 32330.9 -23375.1 -7.42026 
4670 2 29.73 2.977 6.4 6.02127 -142748 -154483 -2437.8 -18160.3 32092 -22425.5 -7.41873 
4672 2 29.773 0.521 6.4 6.02404 -145405 -165936 -30264 -11697.5 30407.9 -21120.9 -7.41737 
1497 1 30.632 8.061 3 6.02186 -146828 -151009 53230 -18907.5 31130.7 -24289.4 -7.42154 
1499 1 30.589 5.606 3 6.02265 -142928 -153070 28902.3 11447.1 32394.6 -24458.4 -7.42056 
1501 1 30.546 3.15 3 6.02616 -152280 -186887 1982.02 -9193.52 32302.7 -23854.5 -7.41904 
1503 1 30.503 0.695 3 6.02323 -143911 -168386 -26412.6 1344.37 30889.9 -22736.1 -7.41745 
1595 1 32.78 9.252 3 6.02615 -152628 -180609 69003.4 -4088.2 29804.3 -13944.2 -7.42311 
1596 1 32.05 8.037 3 6.02186 -134368 -148442 -114652 -12561 -16870.6 -7829.59 -7.41244 
1597 1 32.737 6.796 3 6.02186 -147197 -150876 46159.1 -18511.8 32104.1 -14299.5 -7.42116 
1598 1 32.007 5.581 3 6.02615 -143442 -181275 -92952.3 1258.88 -22353.2 -9239.48 -7.41427 
1599 1 32.694 4.341 3 6.02265 -143005 -152609 19905.6 12276.5 32985 -14364.4 -7.42009 
1600 1 31.964 3.125 3 6.02127 -136710 -152410 -67431.4 18368.6 -27009.3 -10316 -7.41533 
1601 1 32.651 1.885 3 6.02615 -152793 -184655 -8323.87 -7695.79 32497.9 -13849.7 -7.41856 
1602 1 31.921 0.67 3 6.02383 -143800 -166119 -39528.6 -13104.9 -30352.9 -11383.5 -7.41674 
1694 1 34.198 9.227 3 6.02265 -128967 -147533 -122920 15506.4 -15259.4 -1430.69 -7.41239 
1695 1 34.885 7.987 3 6.02469 -150816 -181427 59759.3 -5350.93 31174.4 -3694.4 -7.4228 
1696 1 34.155 6.772 3 6.02186 -135815 -148819 -102960 -15813.6 -20822.7 -1814.31 -7.41307 
1697 1 34.842 5.531 3 6.02106 -142664 -152073 34959.9 -17696.2 32858.4 -4038.96 -7.42097 
1698 1 34.112 4.316 3 6.02721 -145119 -181345 -78533.3 -1933.98 -25778.8 -1942.54 -7.41506 
1699 1 34.799 3.076 3 6.02128 -138042 -153599 7354.3 13619.7 33182.9 -4142.57 -7.41981 
1700 1 34.069 1.86 3 6.02552 -139248 -150716 -51179.6 15265.1 -29627.1 -2281.21 -7.41629 
1701 1 34.756 0.62 3 6.02371 -141236 -167209 -21745.6 5510.33 32155.1 -3936.03 -7.41805 
1793 1 37.033 9.178 3 6.0199 -137967 -153423 69038.5 13913.5 29938 7158.11 -7.42299 
1794 1 36.303 7.962 3 6.02407 -121534 -134929 -113313 -218.295 -18220.1 4676.85 -7.41271 
1795 1 36.991 6.722 3 6.0215 -181677 -151504 46472.5 -1365.57 32042.6 6618.76 -7.42207 
1796 1 36.26 5.507 3 6.02088 -118739 -121796 -90936.3 -18237.2 -23569.8 5545.77 -7.41334 
1797 1 36.948 4.266 3 6.01959 -175346 -123471 20248.7 -14582.5 33004.5 6233.31 -7.41972 
1798 1 36.217 3.051 3 6.0261 -128084 -153924 -64731.8 -4156.7 -27932 6160.52 -7.41543 
1799 1 36.905 1.811 3 6.0238 -169666 -125619 -8171.28 17164.3 32637.1 5780.83 -7.41849 
1800 1 36.174 0.595 3 6.02341 -125765 -136926 -36241.3 20951.8 -31059.3 6875.3 -7.41667 
1892 1 38.451 9.153 3 6.02545 -120419 -153740 -122863 -9691.43 -14540.7 9992.71 -7.41195 
1893 1 39.139 7.913 3 6.02137 -171989 -122864 53243.2 15871.6 31235.8 17289.7 -7.4219 
1894 1 38.408 6.697 3 6.0238 -161232 -121467 -103236 10641.5 -20226 11983.8 -7.4134 
1895 1 39.096 5.457 3 6.02406 -182567 -153395 29141.9 397.741 32439 16761.1 -7.42089 
1896 1 38.365 4.242 3 6.01959 -168366 -122146 -79208.2 -20462 -25183.8 13625.2 -7.41432 
1897 1 39.053 3.001 3 6.02097 -175812 -123236 1997.16 -12615.8 32484.5 16055.7 -7.41872 
1898 1 38.322 1.786 3 6.02406 -176408 -155482 -52215.5 -6905.18 -28995.4 15320 -7.4164 
1899 1 39.01 0.546 3 6.02551 -125614 -139619 -26304.3 11151.1 31178.1 14962 -7.41709 
4665 2 30.331 9.128 6.4 6.0247 -136633 -180522 -123300 12259.5 -13330.3 -13660 -7.41287 
4667 2 30.374 6.672 6.4 6.02127 -131677 -151888 -104442 -7048.39 -19009.6 -16406.2 -7.41333 
4669 2 30.417 4.217 6.4 6.02616 -144940 -186259 -81046.4 12014 -24130.2 -18807 -7.41454 
4671 2 30.46 1.761 6.4 6.02557 -139403 -152958 -54691.4 -8289.66 -28157.2 -20987.4 -7.41596 
4764 2 31.749 9.153 6.4 6.02407 -134008 -136862 66203.4 -2299.27 30060.2 -14169.3 -7.42244 
4765 2 32.479 7.937 6.4 6.0199 -125441 -152438 -113629 -9584.88 -17702.4 -8816.27 -7.41308 
4766 2 31.792 6.697 6.4 6.02677 -153427 -184941 43381.3 4049.72 32157.3 -13672.5 -7.42132 
4767 2 32.522 5.482 6.4 6.0247 -138826 -185330 -91494.4 9323.81 -23043.4 -10355.7 -7.41441 
4768 2 31.835 4.242 6.4 6.02234 -143006 -152790 17426.4 -16284.3 32921.6 -12869 -7.41994 
4769 2 32.565 3.026 6.4 6.02265 -133403 -151000 -65809.2 -10349.6 -27558.4 -11801.8 -7.41597 
4770 2 31.878 1.786 6.4 6.0276 -143365 -152086 -10762.1 -17003.6 32351.1 -12288.3 -7.41835 
4771 2 32.608 0.57 6.4 6.0255 -142553 -166326 -37506.2 -16554.6 -30733.1 -12961.1 -7.41707 
4863 2 34.585 9.202 6.4 6.02137 -157844 -118831 -122767 -13825 -15482.7 -2433.56 -7.41238 
4864 2 33.897 7.962 6.4 6.02545 -134654 -155754 59222 4378.64 31233.7 -3394.33 -7.42181 
4865 2 34.628 6.747 6.4 6.02406 -170213 -154438 -102461 4533.06 -21061 -2695.74 -7.41341 
4866 2 33.94 5.507 6.4 6.02225 -124787 -123828 34383.3 -15358.6 32899.6 -2911.73 -7.4205 
4867 2 34.671 4.291 6.4 6.0238 -163416 -123133 -78208.1 -15008.3 -25992.1 -3234.87 -7.41474 
4868 2 33.983 3.051 6.4 6.0261 -134025 -154497 6841.15 1745.62 33157.2 -2521.07 -7.41931 
4869 2 34.714 1.836 6.4 6.01704 -170007 -119353 -50669.6 18606.2 -29765.3 -3646.11 -7.41639 
4870 2 34.026 0.595 6.4 6.02661 -130411 -116473 -22403.5 21837.5 32143.4 -2381.98 -7.41729 
4962 2 36.002 9.227 6.4 6.02406 -181124 -154975 70605.4 4212.97 29805.1 6936.86 -7.42283 
4963 2 36.733 8.012 6.4 6.02545 -121864 -153644 -113638 2103.71 -17805.1 3688.48 -7.41245 
4964 2 36.045 6.772 6.4 6.02137 -172280 -122640 47861.3 -14003.8 32072 7475.53 -7.4216 
4965 2 36.776 5.556 6.4 6.0238 -162996 -121258 -91607.1 -18122 -23250.3 4432.86 -7.41403 
4966 2 36.088 4.316 6.4 6.02406 -182561 -152949 21627.6 2634.4 33038.7 7495.64 -7.42049 
4967 2 36.819 3.101 6.4 6.01959 -170202 -121823 -65663.4 13431 -27699.5 4927.67 -7.41505 
4968 2 36.131 1.86 6.4 6.02234 -176213 -121085 -7014.26 16709.3 32763.1 7373.89 -7.41831 
4969 2 36.862 0.645 6.4 6.02338 -172694 -133945 -37295.8 12156.7 -30862.1 5275.19 -7.41722 
5061 2 38.838 9.277 6.4 6.02677 -139369 -181606 -123838 -307.594 -13458 9050.26 -7.41227 
5062 2 38.151 8.037 6.4 6.0199 -138211 -154320 56771.5 -12389.2 31125.2 17671.6 -7.42232 
5063 2 38.881 6.821 6.4 6.02407 -123245 -136687 -104592 -7361.16 -19236.8 10710.9 -7.41316 
5064 2 38.193 5.581 6.4 6.0215 -181491 -152450 32631.1 4015.12 32476.5 17807.7 -7.42129 
5065 2 38.924 4.366 6.4 6.02088 -120434 -123350 -81313.7 11029.1 -24395.7 12486.3 -7.41384 
5066 2 38.236 3.125 6.4 6.01959 -174617 -124258 5342.21 18479 32681 17357.5 -7.4189 
5067 2 38.967 1.91 6.4 6.02557 -128937 -156205 -54553.4 -2429.11 -28450.9 13806.8 -7.41591 
5068 2 38.279 0.67 6.4 6.02463 -172490 -139430 -23601.3 -4342.49 31542.7 16624.4 -7.41761 
1991 1 41.287 9.103 3 6.02545 -134170 -156846 55843.9 -3285.13 30391.4 27622.9 -7.42162 
1992 1 40.556 7.888 3 6.02406 -168684 -156366 -114696 -11961.4 -15621.7 17152.9 -7.41273 
1993 1 41.244 6.648 3 6.02225 -124286 -125158 33680.5 17445.6 31972.3 27081.6 -7.42043 
1994 1 40.513 5.432 3 6.0238 -161473 -125102 -93637.9 7811.95 -21142.2 19953 -7.41389 
1995 1 41.201 4.192 3 6.0261 -133793 -156111 8443.04 1499.19 32146.3 26208.1 -7.41938 
1996 1 40.47 2.977 3 6.01707 -167045 -122940 -68987.8 -25113.9 -25790.9 22616 -7.4153 
1997 1 41.158 1.736 3 6.02618 -136599 -138440 -18558.9 -29092.2 31004.7 24873.9 -7.41747 
1998 1 40.428 0.521 3 6.02384 -139873 -168272 -42161.8 -23243.8 -29226.9 24835.8 -7.41691 
2090 1 42.705 9.078 3 6.0199 -124383 -155823 -124727 2480.79 -9752.38 20843.3 -7.41244 
2091 1 43.392 7.838 3 6.02677 -152758 -186551 33693.5 -2893.47 31543.7 36693 -7.42076 
2092 1 42.662 6.623 3 6.0247 -137057 -188624 -107157 -16381.6 -15674.7 24734.1 -7.41353 
2093 1 43.349 5.383 3 6.02234 -142258 -154695 10722.3 18420.8 31781.9 35885.4 -7.41956 
2094 1 42.619 4.167 3 6.02265 -131153 -154257 -85917.6 3679.86 -21098.6 28522.8 -7.41484 
2095 1 43.306 2.927 3 6.0276 -143404 -153452 -14295.2 20420.8 30614.7 34510.4 -7.41818 
2096 1 42.576 1.711 3 6.02402 -136361 -155532 -61258.7 3019.36 -25585.6 31731.5 -7.4158 
2097 1 43.263 0.471 3 6.02516 -144649 -167641 -40376.5 14727.3 28214 32602.3 -7.41679 
2189 1 45.54 9.029 3 6.02265 -142542 -153433 29331.8 16187.6 31575.2 44782.9 -7.42057 
2190 1 44.81 7.813 3 6.02127 -130291 -156025 -118697 465.531 -9016.71 27933.2 -7.41252 
2191 1 45.497 6.573 3 6.02615 -152165 -187757 8636.94 -1380.88 31676.4 44415.4 -7.41939 
2192 1 44.767 5.358 3 6.02615 -142777 -190159 -101275 -18398.7 -15109.4 32703 -7.4134 
2193 1 45.454 4.118 3 6.02127 -141686 -156300 -14020 20197.9 30366.7 43164.9 -7.41807 
2194 1 44.724 2.902 3 6.0261 -137316 -155515 -80043.6 2369.48 -20593.3 36891.5 -7.4146 
2195 1 45.411 1.662 3 6.02402 -140536 -155246 -38400.3 22531.2 27844 41354.9 -7.41693 