ITEM: TIMESTEP
230
ITEM: NUMBER OF ATOMS
14408
ITEM: BOX BOUNDS pp pp pp
0.0000000000000000e+00 1.0437723699999999e+02
0.0000000000000000e+00 1.8078667700000000e+02
0.0000000000000000e+00 1.8399999600000001e+01
ITEM: ATOMS id type x y z c_csym c_2[1] c_2[2] c_2[3] c_2[4] c_2[5] c_2[6] c_3 
1 1 6.58365e-06 8.43573e-07 7.43542 6.0454 -15309 -15319.3 -7003.63 19.696 0.153649 -0.460165 -7.41274 
2 1 2.15761 1.17928 7.44224 6.03457 -25840 -5689.45 -4379.14 788.093 12710.6 -23089.1 -7.41303 
3 1 3.57685 1.14725 7.45017 6.02086 -25046.8 -9124.98 -3285.52 23175.7 10357.3 -28944.3 -7.41316 
4 1 6.41435 1.08565 7.46998 6.01617 -31597.7 -987.813 3269.82 33112.7 10983.9 -42578.3 -7.41432 
5 1 7.83357 1.0584 7.4787 6.02321 -29718.2 -8148.42 -1799.96 66646.9 -2661.22 -25259.2 -7.41391 
50 1 0.0575135 2.45842 7.44224 6.0275 -21943 -10300.6 -5017.35 -8696.98 23901.4 1225.17 -7.41295 
51 1 1.47679 2.42512 7.44434 6.02712 -21641.9 -10591.5 -4208.05 -2396.78 26311.1 -13001.7 -7.41307 
52 1 2.21356 3.6386 7.45369 6.02106 -45821.6 12386.4 -1286.8 -14585.8 27828.8 -19769.9 -7.4134 
53 1 3.63272 3.60659 7.45997 6.0151 -43208.4 6849.16 -2708.37 6545.91 30295.2 -22470.4 -7.41343 
54 1 4.31377 2.36082 7.45852 6.0265 -44887.2 13294.6 1824.53 8964.43 18670.4 -38176.4 -7.41387 
55 1 5.73292 2.33103 7.46773 6.01775 -42103.6 3467.77 -3572.47 40383.4 13016.9 -28509.9 -7.41343 
56 1 6.4681 3.54578 7.4758 6.02301 -59310.9 31365.3 8905.57 16829.7 16857.2 -39058.3 -7.41501 
57 1 7.88721 3.51803 7.48268 6.02414 -53022.3 11670.6 -8954.74 48456.8 8065.75 -17078.7 -7.41341 
58 1 8.56934 2.27299 7.4838 6.01814 -41198.8 13888.8 9753.62 41204 12724.4 -33528.1 -7.41539 
148 1 0.112331 4.917 7.45849 6.01707 -29813.8 -6831.54 -3198.37 -29286.7 33812.6 2483.45 -7.4133 
149 1 1.53161 4.88397 7.45999 6.02083 -27004.7 -5719.79 1062.69 -23437.5 42144.7 -10938.8 -7.41385 
150 1 2.2662 6.09862 7.46992 6.01965 -60332 22870.9 -1410.32 -36639.5 27810.2 -13906 -7.41367 
151 1 3.68535 6.0668 7.47389 6.01168 -53432.3 17913.9 411.003 -18322.9 36878.5 -14296.9 -7.41415 
152 1 4.36742 4.82138 7.47 6.02012 -68413.4 36413.7 4437.65 -12532.8 23149.1 -30984.3 -7.41431 
153 1 5.7865 4.79131 7.47653 6.01379 -61554.6 21517.3 -5816.51 16006.5 23652.7 -18639.1 -7.41355 
154 1 6.51954 6.00719 7.48404 6.01601 -76555.2 50594.5 10740 -9478.97 13188.7 -29854.6 -7.41541 
155 1 7.93862 5.97868 7.48849 6.02046 -64728.6 25147 -12789.5 18565.6 11469 -7625.67 -7.41336 
156 1 8.62115 4.73361 7.48825 6.02095 -59100.7 37907.3 16030.7 17285 11590.9 -29039.8 -7.41614 
246 1 0.163264 7.37563 7.47568 6.01817 -35235.4 -5645.42 -6246 -47810.5 27202.3 2521.88 -7.41343 
247 1 1.58259 7.34322 7.47657 6.02003 -27419.2 -1952.58 7648.84 -42872.9 41789.6 -7909.51 -7.41494 
248 1 2.31536 8.55886 7.48364 6.02801 -64979.6 25033.2 -6575.13 -50446.9 15692.2 -8470.28 -7.41365 
249 1 3.73455 8.52758 7.4856 6.01424 -52794.8 22656 5731.83 -36412.8 30559.3 -5061.6 -7.41505 
250 1 4.41795 7.28271 7.48202 6.0202 -80474.1 46488.5 2367.34 -35223.8 15619.1 -21106.8 -7.41445 
251 1 5.83703 7.25246 7.48575 6.01342 -68267.9 31481.2 -4570.16 -11689.1 23145.3 -7689.17 -7.41405 
252 1 6.56854 8.46909 7.49074 6.0159 -81992.7 55717.8 7974.51 -32261.4 3045.41 -20282.7 -7.41537 
253 1 7.98765 8.43989 7.49328 6.02065 -65294.6 31689.8 -12188.2 -9764.46 8885.99 956.601 -7.41368 
254 1 8.67095 7.19502 7.49301 6.01707 -67363.1 49043.3 17640.6 -11258.5 4483.27 -22590 -7.41641 
6 1 10.6716 1.00287 7.49022 6.01634 -24384.4 -3414.9 6221.71 54448.6 11705.6 -19164.6 -7.41525 
7 1 12.0909 0.978199 7.49275 6.02221 -22018.7 -8911.8 -4525.54 77413.4 -12218.2 -2200.81 -7.41434 
8 1 14.9298 0.924424 7.49462 6.01783 -15160.8 -5994.02 5403.02 57009.7 16986.4 -3025.8 -7.41534 
9 1 16.3492 0.900132 7.49517 6.01713 -12363.8 -7686.06 -6277.74 81237.4 -15196.4 -2590.41 -7.41452 
59 1 9.98853 2.24726 7.48883 6.03034 -36339.7 -1716.71 -8447.59 69548.6 -4531.4 -10016.9 -7.41373 
60 1 10.7234 3.46239 7.49201 6.02095 -37871.5 17517.9 16690 37316.4 12665.3 -19751.1 -7.41631 
61 1 12.1427 3.43703 7.49376 6.03146 -29191.7 -4471.47 -16587.3 60430.4 -7295.55 606.181 -7.41339 
62 1 12.8265 2.19298 7.49384 6.01887 -21980.1 655.029 12703.6 49068.2 15344.8 -8788.72 -7.41596 
63 1 14.2458 2.16826 7.49425 6.02383 -16082.4 -10674.8 -12628.8 70431.3 -11671.1 2050.87 -7.4139 
64 1 14.9814 3.383 7.4956 6.01717 -14803.9 -4916.55 18785 42543.2 21473.6 -8170.85 -7.41649 
65 1 16.4007 3.35833 7.49618 6.02147 -5624.52 -15902.3 -21033.8 68714.8 -7929.91 -4371.15 -7.41362 
66 1 17.0852 2.11472 7.49598 6.01089 -12305.6 -8781.17 11422.1 61663.1 25167.7 -9722.68 -7.41589 
67 1 18.5046 2.09129 7.49803 6.01019 -6162.28 -10999 -14827.7 94134.4 -10763.9 -13194.4 -7.41419 
157 1 10.0403 4.70694 7.4918 6.03136 -48370.4 9929.75 -16899.6 44104.3 354.056 -3999.66 -7.41315 
158 1 10.7738 5.92271 7.49524 6.02528 -45305.7 30304 23067.4 9487.07 8677.78 -18657.5 -7.41698 
159 1 12.1931 5.89616 7.49663 6.03769 -30756 141.235 -25187.1 32647.1 -4251.61 1543.67 -7.41287 
160 1 12.8774 4.6522 7.49601 6.02416 -25683 9231.43 23261.8 26783.6 15134.3 -12148 -7.41696 
161 1 14.2968 4.62664 7.49647 6.03176 -13541.3 -12506 -24861.1 49892.8 -6667.09 445.909 -7.41313 
162 1 15.0316 5.84167 7.49989 6.02208 -16596.3 -2369.36 29419.2 19001.7 21851 -16449.9 -7.41741 
163 1 16.451 5.8163 7.50142 6.03001 -2204.03 -16779.7 -32934.1 48287 -1122.64 -9655.91 -7.41312 
164 1 17.1363 4.57306 7.49993 6.01108 -13241.4 -10851.8 25162 43957.1 30688.1 -18212.2 -7.41701 
165 1 18.5557 4.54934 7.50277 6.01556 -1559.98 -15565.2 -29382.4 79077.6 -983.213 -17229.6 -7.41358 
255 1 10.0901 7.16718 7.49541 6.02937 -51166.8 17749.6 -21030.6 12809.7 1099.74 902.425 -7.41303 
256 1 10.8226 8.3834 7.49851 6.0231 -49206.5 36119.3 24837.1 -18351.7 2169.4 -19036 -7.41711 
257 1 12.2419 8.35555 7.5003 6.03679 -30467.9 7270.55 -29117.7 4204.2 -2245.16 123.059 -7.41283 
258 1 12.9268 7.11174 7.49986 6.02992 -29232.6 15288.7 29711.1 -977.172 11468.4 -17455.5 -7.41752 
259 1 14.3462 7.08506 7.50119 6.03881 -12273.7 -8538.5 -33120.8 24267.8 -2405.33 -3952.48 -7.41281 
260 1 15.0798 8.30061 7.50622 6.02887 -24280 5407.99 36609 -6015.79 18958.9 -27590.3 -7.41796 
261 1 16.4992 8.27453 7.50923 6.02747 -6358.3 -6197.19 -41158.9 26585.2 4582.98 -16299.4 -7.41303 
262 1 17.1854 7.03155 7.50771 6.01702 -20804.9 -5266.15 36980.1 20963.2 30794.3 -30089.3 -7.41796 
263 1 18.6048 7.0075 7.51175 6.01913 -4992.01 -8329.54 -41539.6 59461.6 6755.29 -22853.6 -7.41332 
10 1 19.1886 0.847558 7.49944 6.00245 -13042.7 -5458.92 3191.54 88101.6 24855.4 -16658.7 -7.41542 
11 1 20.608 0.826121 7.50361 5.99704 -9829.97 -3176.14 -7048.42 128101 -17154.4 -24423.2 -7.4148 
12 1 23.4475 0.778968 7.51591 5.96955 -16531.7 903.723 3652.41 163741 33767.3 -36939.7 -7.41593 
13 1 24.8668 0.763787 7.52289 5.96741 -13613.5 4487.41 -6905.17 213142 -22247.3 -39920 -7.41514 
14 1 27.7065 0.725322 7.53632 5.9408 -21421.2 9640.35 4772.21 253764 40877.2 -43591.2 -7.41643 
68 1 19.2406 3.30601 7.50204 5.9997 -15867.9 -9578.4 18693.3 76645 36049.2 -23163.7 -7.41656 
69 1 20.6599 3.28453 7.50687 6.00057 -7043.88 -8316.18 -23359.8 118275 -4239.97 -25891.4 -7.41407 
70 1 21.3442 2.04104 7.50752 5.98709 -18422.7 -3584.59 11361.3 117604 37056 -30119.4 -7.41621 
71 1 22.7635 2.02244 7.51403 5.98446 -12432.3 -33.1247 -15657.6 164550 -11629.8 -34042.1 -7.41457 
72 1 23.4991 3.23806 7.52171 5.97169 -32785.8 7943.39 22168.9 151497 49319.7 -41207.9 -7.41725 
73 1 24.9183 3.2228 7.52953 5.97532 -24709.4 11235.8 -25219.9 201480 -5917.44 -38953.4 -7.41436 
74 1 25.6027 1.97971 7.52947 5.9566 -29909.3 11955.5 13968.5 204830 47135.9 -43543.9 -7.41691 
75 1 27.0219 1.96804 7.53655 5.95765 -24796.5 13821.8 -16594.6 253180 -16029.4 -40203 -7.41478 
76 1 27.7566 3.18504 7.54553 5.94484 -48257.2 30393.8 25782.1 237923 57811.4 -44806 -7.41804 
166 1 19.2906 5.76454 7.51015 6.00252 -24287.4 -6063 34173.2 56408.7 40556.3 -33408.6 -7.41778 
167 1 20.7099 5.74297 7.51588 6.00793 -10856.6 -3236.76 -38487.6 100316 6207.01 -29344.1 -7.41366 
168 1 21.3952 4.49988 7.51483 5.98733 -29877.1 176.878 29041.7 100478 47004.7 -37418.1 -7.41753 
169 1 22.8144 4.48125 7.52209 5.99256 -18977.2 4742.08 -32755.5 148646 1865.91 -35069.3 -7.414 
170 1 23.5482 5.69782 7.53289 5.97788 -53248.3 22260.1 42496.1 127612 54710.9 -47043.3 -7.41881 
171 1 24.9673 5.68246 7.54104 5.98878 -40754.7 26810.7 -44367.7 177753 5402.43 -38277.2 -7.41383 
172 1 25.6525 4.43961 7.53983 5.96072 -53574.3 28967.9 35140.1 182785 58414.2 -46655.2 -7.41853 
173 1 27.0715 4.42769 7.54741 5.97147 -43772.7 29093.5 -36630.1 231286 -1495.99 -38781.5 -7.41406 
174 1 27.8038 5.646 7.55867 5.95575 -76419.8 54822.7 49263.3 205889 62539.2 -46093.1 -7.4199 
264 1 19.3378 8.22365 7.52087 6.01141 -40948.3 8308.13 48068.5 34032.4 37987.7 -45208.6 -7.41888 
265 1 20.7571 8.20209 7.52715 6.00914 -24160.4 14586 -52398.1 80152.8 12571.9 -31920.3 -7.41346 
266 1 21.4433 6.95929 7.52623 5.99494 -47900.7 13718.3 46969.1 77099.7 47555.4 -46409.5 -7.41892 
267 1 22.8625 6.94069 7.53381 6.0016 -33077.7 20997.6 -49948.2 126313 10333.2 -35723.5 -7.41363 
268 1 23.5936 8.15867 7.5451 5.99128 -78460.3 44766.7 62485.2 100551 49686.5 -52869.1 -7.42032 
269 1 25.0127 8.14329 7.55289 6.00069 -62235.8 52176.6 -64201.3 150399 10220.2 -35889.4 -7.41336 
270 1 25.6988 6.90066 7.5527 5.97355 -80325.9 52056.6 57698.2 151802 57343.8 -49919.5 -7.42025 
271 1 27.1178 6.88846 7.56019 5.98906 -66349 53184.3 -58260.1 199764 5701.84 -36436.3 -7.41348 
272 1 27.847 8.10843 7.57104 5.97409 -105251 82644.6 73190.2 169432 55357.4 -47278.9 -7.42167 
15 1 29.1257 0.717144 7.54178 5.94096 -19494.3 11683.8 -7190.57 297163 -27338.3 -38886.4 -7.41536 
16 1 31.9658 0.687286 7.55006 5.92287 -25936.2 15867 4828.67 324481 44414.2 -37263.6 -7.41659 
17 1 33.385 0.684638 7.55274 5.92365 -24849 15873.6 -7286.09 353980 -29988 -29108.8 -7.41546 
18 1 36.2255 0.66132 7.55632 5.91254 -29471.8 19282.1 4751.97 366008 45479.9 -27042.5 -7.41655 
19 1 37.6446 0.662238 7.55726 5.91497 -28781.6 18044.1 -6778.76 383017 -31238.1 -18668.6 -7.41552 
77 1 29.1757 3.17655 7.55161 5.95386 -41411.2 27389 -27571.3 281837 -9827.95 -36973.1 -7.41438 
78 1 29.8609 1.9343 7.54896 5.9319 -38389.8 25673.5 15398.3 286902 52812.6 -41538 -7.41737 
79 1 31.28 1.92897 7.55319 5.93739 -34500.1 22498.5 -17699.6 324096 -19434.6 -33414.6 -7.41483 
80 1 32.0138 3.14725 7.56182 5.92604 -55432.9 43850.6 27005.6 305308 61329.1 -36517.7 -7.41843 
81 1 33.4328 3.14413 7.56462 5.93894 -49768.6 34011.2 -28746.7 336024 -12185 -27486.7 -7.41434 
82 1 34.1193 1.90288 7.55957 5.91706 -42305.2 32185.9 15565 341962 54722.2 -31643 -7.41748 
83 1 35.5384 1.90205 7.56115 5.92524 -39205.3 25414.2 -17717.8 365418 -21103.9 -22860.2 -7.41486 
84 1 36.2712 3.12127 7.56902 5.91571 -55736.3 47246.5 26917.6 345070 62081.7 -25547.4 -7.4185 
85 1 37.6902 3.12168 7.56949 5.92999 -50712.9 33560 -28289.7 363586 -13533.7 -17515.3 -7.41435 
175 1 29.2227 5.63703 7.56491 5.97221 -65054.8 49692.8 -49702.4 249649 727.031 -35097.6 -7.41367 
176 1 29.9087 4.39487 7.56178 5.93937 -67385.2 51918.5 38574.5 258605 64062.6 -41479.2 -7.41927 
177 1 31.3276 4.38899 7.56627 5.95504 -58854.1 42754.6 -39587.5 296375 -5004.61 -31875.2 -7.41395 
178 1 32.0587 5.60871 7.57665 5.93953 -83825.7 72284.1 51817 266507 65839.4 -35654.4 -7.42052 
179 1 33.4775 5.60479 7.57943 5.95947 -73649.2 57243.1 -52058.2 297856 -2512.12 -26285.4 -7.41353 
180 1 34.1648 4.3636 7.57396 5.92563 -69763.2 60768.8 39220.5 309619 65947.5 -30234.3 -7.41956 
181 1 35.5837 4.36205 7.57532 5.94371 -62294.7 44627.3 -40104.2 334397 -6940.99 -21923.6 -7.4139 
182 1 36.3139 5.58265 7.58471 5.92931 -79680.2 74112.7 51613.1 302664 66986.1 -24066.4 -7.42071 
183 1 37.7328 5.58212 7.58468 5.94984 -70352.8 53142.3 -51621.9 322353 -4287.86 -17068.2 -7.41351 
273 1 29.2658 8.09895 7.57707 5.9901 -89696.2 78930.4 -73041.6 212407 3295.83 -31849.8 -7.41301 
274 1 29.9527 6.85693 7.5758 5.95618 -96459.6 80086.3 63650.1 218619 61978 -41502.8 -7.42125 
275 1 31.3716 6.85032 7.5803 5.97609 -83515.1 69366.8 -63402.3 256334 495.348 -29834.6 -7.41323 
276 1 32.0994 8.07171 7.59009 5.96034 -110911 100875 77552 222067 58185.2 -35367.4 -7.42247 
277 1 33.5182 8.06686 7.59285 5.97727 -96426.5 85637.2 -76749.2 253467 -1808.91 -24386.7 -7.41278 
278 1 34.2065 6.82582 7.58931 5.94369 -95505.7 88664.7 64967.2 263810 64098.4 -29322.8 -7.4217 
279 1 35.6254 6.82327 7.59047 5.96498 -83702.5 69023.7 -64491 289298 -2496.95 -21030.1 -7.41313 
280 1 36.3525 8.04543 7.59935 5.95024 -101731 99735.3 77593.7 253621 59995 -23610.9 -7.42279 
281 1 37.7713 8.04376 7.59898 5.96903 -88306.2 77197.1 -76586.1 273955 -4474.87 -16466.6 -7.41274 
20 1 40.4852 0.643204 7.55842 5.90924 -32111.4 20977 4778.28 385421 45438.1 -18079.5 -7.4165 
21 1 41.9043 0.646161 7.55857 5.91176 -31484.6 18955.8 -6119.96 394192 -32109.5 -10309.6 -7.41558 
22 1 44.745 0.62967 7.55865 5.90905 -33168.4 21864.5 4816.51 392675 44910.6 -11246.9 -7.41646 
23 1 46.1641 0.633681 7.55844 5.91117 -32381.1 19375.5 -5589.24 396819 -32891.3 -3965.07 -7.41562 
86 1 38.378 1.8813 7.5634 5.91028 -42815.5 33600.6 15418.5 370632 54849.2 -21564.3 -7.41745 
87 1 39.797 1.8832 7.5635 5.91919 -40110.4 24813.4 -16956.3 383775 -22190.6 -13572.8 -7.4149 
88 1 40.5291 3.10305 7.57032 5.91108 -51797.8 44880.5 26419.5 363534 61720.8 -16431.2 -7.41846 
89 1 41.9481 3.1055 7.56946 5.92477 -47085.4 29295.4 -27179.2 373883 -14633.9 -9519.23 -7.41439 
90 1 42.6369 1.86578 7.5636 5.90808 -41144.2 32185.7 15226.8 382480 54281.3 -13672.1 -7.4174 
91 1 44.056 1.86918 7.56294 5.91669 -38461.2 22563.8 -16098.2 389420 -23132.2 -6464.1 -7.41495 
92 1 44.7876 3.08937 7.56827 5.90934 -45271.7 39857.8 25947.1 370184 60916.2 -9591.35 -7.41842 
93 1 46.2066 3.0929 7.56668 5.92153 -40636.3 23306.2 -26137.1 375783 -15609.1 -3451.47 -7.41444 
94 1 46.8962 1.85362 7.56193 5.90786 -37647 29632.4 15087.1 386314 53450.7 -7704.13 -7.41738 
184 1 38.4214 4.34187 7.57782 5.91822 -64690.2 59189.7 38582.1 336473 66178.1 -19804 -7.41959 
185 1 39.8404 4.34301 7.57714 5.93598 -57808.7 39583.3 -39037.9 351106 -8226.94 -13107.3 -7.41392 
186 1 40.57 5.56407 7.58528 5.92349 -68921.3 66898.9 50346.4 319596 67144.3 -14833.8 -7.42071 
187 1 41.989 5.56556 7.58339 5.94256 -60136.3 43180 -50013.7 331108 -5496.03 -9502.32 -7.41355 
188 1 42.6789 4.32607 7.5764 5.9146 -55676.5 52399.7 37658.9 347504 65680 -11871.9 -7.41955 
189 1 44.0978 4.32872 7.57449 5.93083 -49020.3 31289.4 -37609 355782 -9311.41 -6292.85 -7.41398 
190 1 44.8273 5.54993 7.58093 5.92011 -54746 55673.9 49083.2 325444 66702.5 -7957.65 -7.42068 
191 1 46.2463 5.5525 7.57786 5.93762 -46188.6 30564.9 -48384.3 331974 -6490.71 -3655.49 -7.41361 
192 1 46.9372 4.31358 7.5718 5.91269 -44383.9 43355.8 36950.8 350704 64842.8 -5879.6 -7.41952 
282 1 38.4612 6.80373 7.5935 5.93559 -84534.4 82922.3 63857.5 287837 65129.9 -18719 -7.42182 
283 1 39.88 6.80377 7.59209 5.95626 -73469.7 58740.6 -63193.3 303407 -4097.83 -12982.1 -7.41315 
284 1 40.6069 8.02622 7.59981 5.9433 -84390.5 87108.6 75764.6 268298 61139.4 -14339.4 -7.42287 
285 1 42.0258 8.02649 7.59699 5.96302 -71596.2 61231.7 -74698.9 280457 -5859.98 -9585.53 -7.41279 
286 1 42.7172 6.78737 7.59073 5.93048 -68275.9 70305.1 62095.5 297490 65404.1 -10721.6 -7.42182 
287 1 44.1361 6.78889 7.58755 5.94966 -57649.4 43944 -61222.9 306521 -5166.79 -6524.39 -7.41321 
288 1 44.863 8.01128 7.59358 5.93827 -62887.6 69317.5 73739.6 272820 61516.5 -7334.18 -7.42288 
289 1 46.282 8.01261 7.58907 5.95657 -50479.4 41705.1 -72597.3 279667 -6785.22 -4004.45 -7.41286 
290 1 46.9747 6.77421 7.58326 5.92667 -49278.9 54619.8 60647.6 299839 65060.7 -4612.6 -7.4218 
24 1 49.0048 0.618525 7.55806 5.91 -32890.9 22008.5 4825.23 394937 44174.6 -5953.89 -7.41645 
25 1 50.4239 0.622991 7.55769 5.91136 -32020.6 18670.5 -5260.38 396414 -33657.5 1080.87 -7.41565 
26 1 53.2647 0.608271 7.55716 5.90942 -31105.5 20923.5 4757.66 395700 43380.2 -1282.22 -7.41644 
27 1 54.6838 0.612772 7.55674 5.91078 -30067.3 16588.5 -5127.44 395283 -34387 5677.11 -7.41566 
95 1 48.3153 1.85776 7.56087 5.91502 -34936.3 19151.7 -15455.4 389700 -23979.4 -996.925 -7.41499 
96 1 49.0467 3.07803 7.56437 5.90854 -37070.4 33330.9 25648.1 371816 59974.5 -4249.05 -7.4184 
97 1 50.4658 3.08204 7.56238 5.91924 -32395.7 15892.1 -25437.5 374600 -16439.3 1405.15 -7.41448 
98 1 51.1559 1.84302 7.55934 5.90795 -32658.6 25799.5 14997.6 387201 52565.7 -2801.45 -7.41736 
99 1 52.575 1.84739 7.55812 5.91375 -29797.2 14444.2 -15098.7 388360 -24726.4 3631.68 -7.41501 
100 1 53.3066 3.06753 7.55965 5.90751 -27250.8 25496.2 25496.5 371823 59054.5 572.982 -7.41839 
101 1 54.7258 3.07157 7.55761 5.91699 -22358 7072.03 -25099.4 372538 -17077 5906.08 -7.41449 
102 1 55.416 1.83265 7.5565 5.90766 -25939.7 20634.6 14909.1 387305 51741.4 2027.23 -7.41735 
103 1 56.8352 1.83687 7.55532 5.91231 -22847 8359.57 -15001.1 386463 -25308.1 8319.43 -7.41502 
193 1 48.3563 4.31698 7.56917 5.92734 -37821.6 21217.4 -36461.7 355262 -10240.3 -1018.33 -7.41402 
194 1 49.0859 5.53807 7.57357 5.91739 -38796.8 42495.5 48236 326452 65921.6 -2509.03 -7.42066 
195 1 50.505 5.54111 7.56987 5.93353 -30276.2 16288.2 -47240.6 329836 -7314.68 1089.65 -7.41365 
196 1 51.1966 4.30259 7.56547 5.91086 -31460.2 32813.4 36550.7 350967 63900.2 -855.796 -7.41951 
197 1 52.6157 4.30623 7.56256 5.92423 -24760.7 9710.62 -35775.4 353039 -10976 3505.84 -7.41404 
198 1 53.3459 5.52697 7.56488 5.9147 -21227.4 27773.7 47809.8 325828 65007 2533.8 -7.42065 
199 1 54.7651 5.53005 7.56114 5.92949 -12445 533.461 -46639.5 326820 -7917.22 5550.06 -7.41365 
200 1 55.4571 4.29176 7.55878 5.90892 -16954.5 20851 36387.7 350375 63005 4210.73 -7.4195 
201 1 56.8763 4.29526 7.55603 5.921 -9963.34 -3189.38 -35510.9 350148 -11454.2 8149.83 -7.41404 
291 1 48.3937 6.77648 7.57898 5.94447 -38924.8 26943.9 -59556 304818 -6036.44 -1393.42 -7.41326 
292 1 49.1211 7.99855 7.58293 5.93381 -39403.6 49095.4 72264.5 272894 61211.7 -1647.92 -7.42287 
293 1 50.5403 8.00033 7.5775 5.95079 -27113.7 20192.9 -71040.7 276323 -7527.49 661.849 -7.4129 
294 1 51.2338 6.76248 7.57312 5.92318 -28774.3 37065.8 59768.4 299447 64323.8 634.066 -7.42179 
295 1 52.653 6.76499 7.56843 5.93958 -18231.1 8379.2 -58514.4 301606 -6730.13 3084.77 -7.41328 
296 1 53.3812 7.9865 7.57033 5.92953 -14267.3 27064.1 71440.1 271818 60463.4 3730.12 -7.42286 
297 1 54.8005 7.98831 7.56483 5.94497 -1629.18 -3009.33 -70184.7 272482 -8087.82 5091.59 -7.4129 
298 1 55.4947 6.75086 7.56246 5.91966 -6925.07 17899.3 59383.4 298415 63422.3 6017.82 -7.42178 
299 1 56.9141 6.75321 7.55807 5.93458 3971.84 -11883.4 -58080.1 297965 -7196.57 7701.89 -7.41327 
28 1 57.5248 0.597707 7.55618 5.90829 -27675 18469.8 4581.6 395902 42627.8 3741.46 -7.41642 
29 1 58.9439 0.601838 7.55574 5.90991 -26500.5 13310.4 -5161.74 393059 -34985.7 10771.5 -7.41567 
30 1 61.7852 0.585575 7.5551 5.90781 -23343.5 14997.9 4275.78 393757 41949.9 9981.53 -7.41638 
31 1 63.2043 0.588787 7.55454 5.90952 -21970.7 9415.54 -5309.82 386703 -35301.5 17276.8 -7.4157 
32 1 66.0458 0.570204 7.5534 5.90976 -17887.8 11463.6 3823.39 384315 41236.4 18169.1 -7.41632 
104 1 57.5674 3.05664 7.5551 5.90636 -15998.6 16391.9 25426.1 371253 58274.4 5866.29 -7.41838 
105 1 58.9866 3.06033 7.55328 5.91468 -10906.9 -2969.48 -25075.5 369444 -17431.5 10952.9 -7.41449 
106 1 59.6767 1.82134 7.55392 5.90695 -18265.5 14294.4 14786.2 386368 51062.9 7718.51 -7.41733 
107 1 61.0959 1.82495 7.55285 5.91113 -14986.9 1336.61 -15120.3 382343 -25594 13993.4 -7.41503 
108 1 61.829 3.04415 7.55135 5.90599 -4638.79 6354.2 25376.2 368550 57680.6 12484.2 -7.41834 
109 1 63.2483 3.04695 7.54982 5.91325 844.372 -13133.1 -25280.5 362404 -17299.3 17389.5 -7.4145 
110 1 63.938 1.80771 7.5516 5.90663 -10064.4 7574.41 14578 381205 50483.7 15056.2 -7.41728 
111 1 65.3572 1.81003 7.55051 5.9117 -6422.6 -5231.28 -15347 371455 -25359.2 21429.7 -7.41506 
112 1 66.0914 3.02847 7.54833 5.90815 6314.79 -3055.15 25214.2 359121 57136.2 21114.6 -7.41828 
202 1 57.6073 5.51542 7.55663 5.91199 -2909.85 11471.1 47688.4 324791 64145.8 8144.89 -7.42064 
203 1 59.0266 5.51815 7.55337 5.92542 6214.76 -16576.5 -46523.5 322958 -8217.23 10556.1 -7.41364 
204 1 59.7187 4.27995 7.55296 5.90721 -2123.5 7583.35 36370.3 348926 62283.3 10245.3 -7.41948 
205 1 61.1381 4.28286 7.55068 5.91807 5230.77 -16880.3 -35605.5 345284 -11530.8 13763.3 -7.41404 
206 1 61.8702 5.50226 7.55017 5.91014 14931.6 -5599.85 47740.2 321994 63447.2 15138.5 -7.4206 
207 1 63.2896 5.50415 7.54763 5.92227 24614.6 -33383.5 -46770 315598 -7943.25 16837.7 -7.41364 
208 1 63.9815 4.26582 7.54862 5.90719 12116.9 -5738.61 36383.6 343672 61725.2 17997.9 -7.41943 
209 1 65.401 4.26749 7.54681 5.91701 20037.9 -29499.1 -35869.8 334136 -10867.9 21030.6 -7.41406 
210 1 66.1343 5.48599 7.54593 5.91128 30724.2 -21541.3 47729.6 313337 62916.7 24105.5 -7.42051 
300 1 57.6434 7.97394 7.55838 5.92527 10870.9 3007.85 71131.5 270842 59562.9 9711.75 -7.42284 
301 1 59.0629 7.97542 7.55364 5.93907 24085.6 -27566.7 -69993.4 268388 -8375.41 9987.21 -7.41287 
302 1 59.7574 6.73819 7.55333 5.91647 14588.1 -2797.48 59328.2 296941 62574.4 12410.1 -7.42175 
303 1 61.1769 6.73999 7.54978 5.92987 26095.6 -32647.9 -58181.6 292805 -7268.43 13185.4 -7.41325 
304 1 61.9076 7.95978 7.54927 5.92193 34645 -21704.5 71129 268839 58754.6 17001.6 -7.42278 
305 1 63.3272 7.96046 7.54576 5.93415 48609.9 -51511.2 -70299.5 261533 -8016.15 15892.3 -7.41283 
306 1 64.0217 6.72326 7.547 5.91506 34312.9 -23291 59414 292417 61906.3 20461.8 -7.42168 
307 1 65.4414 6.72389 7.54448 5.92711 46612.8 -51755.1 -58529.7 282177 -6439.7 20054.3 -7.41324 
308 1 66.1735 7.94263 7.54406 5.92161 54945.3 -44682.6 71093.6 261906 58316.4 25979.9 -7.42265 
33 1 67.465 0.571595 7.55239 5.91146 -16344.8 5802.5 -5464.71 369698 -35083.8 25814.2 -7.41575 
34 1 70.3065 0.549068 7.54971 5.91715 -12729.4 8055.18 3266.28 358959 40138.2 28553.6 -7.41623 
35 1 71.7258 0.547205 7.54749 5.92021 -11381.5 2462.71 -5364.5 332423 -33856.4 35775.4 -7.41584 
36 1 74.5669 0.518553 7.54117 5.93363 -9203.7 5123.13 2834.76 307541 37599 38990 -7.41606 
113 1 67.5108 3.02952 7.54689 5.91493 12195.8 -21475.7 -25476.6 345226 -16338.5 25740.8 -7.41456 
114 1 68.1997 1.78974 7.54889 5.9104 -2342.75 1840.55 14167.4 365178 49752.3 24617.6 -7.41719 
115 1 69.619 1.78963 7.54735 5.91651 1351.14 -10334.5 -15409.6 345625 -24254.8 30779.3 -7.41515 
116 1 70.3542 3.00717 7.5451 5.915 13760.1 -10141.4 24645.6 334912 56236.7 31901.7 -7.41812 
117 1 71.7737 3.00505 7.54315 5.92231 19825.7 -25981 -25105.5 309178 -14053.9 35292.8 -7.41469 
118 1 72.4614 1.76441 7.54393 5.92201 2097.24 -2189.26 13465.6 328714 48141.7 35756.5 -7.41701 
119 1 73.8808 1.76016 7.54096 5.92618 5652.24 -12040.9 -14784 295489 -21706.5 39885 -7.41526 
120 1 74.6168 2.97673 7.5392 5.93217 13856.7 -12323.2 23467.4 286999 53810.9 42568.2 -7.41778 
211 1 67.5539 5.48621 7.54409 5.92234 41050.5 -47366.5 -46980.4 299131 -6537.73 24795 -7.41368 
212 1 68.2452 4.24748 7.54552 5.91171 23634.8 -16945.8 36120.1 328637 61171.4 27940.7 -7.41931 
213 1 69.6647 4.24683 7.54391 5.92077 31904.9 -38444 -35820.3 309291 -8934.17 30009.6 -7.41416 
214 1 70.3993 5.46434 7.54344 5.91884 40232.4 -33532 47101 291753 62497.1 35006.7 -7.42029 
215 1 71.819 5.46155 7.54185 5.92849 51039.5 -54819.5 -46302.7 266011 -3236.41 33732.4 -7.41382 
216 1 72.5092 4.22206 7.54227 5.92384 27933.4 -23531.5 35097.6 295495 60087.6 39282.7 -7.41902 
217 1 73.9288 4.21741 7.54002 5.92977 36482.4 -39471.2 -34541.8 262926 -5149.04 38703.9 -7.41433 
218 1 74.6642 5.43399 7.54058 5.93677 38047.6 -36648.1 45194 249919 61408.7 45661.6 -7.41977 
309 1 67.5933 7.94176 7.54189 5.9325 69684 -72007.5 -70532.1 246752 -6200.22 23006.4 -7.41285 
310 1 68.2874 6.70431 7.54372 5.9182 49358.2 -40938.9 59171.9 279486 61600.6 30442.3 -7.42151 
311 1 69.7071 6.70274 7.54211 5.92922 62230.2 -65903.1 -58407.5 259497 -3873.08 28250.1 -7.41332 
312 1 70.4407 7.92042 7.54266 5.92757 66751.3 -62496.9 70249.8 243867 58692.8 36398.9 -7.42234 
313 1 71.8606 7.91674 7.54149 5.93645 82186.4 -83673 -69556.9 217675 -1889.01 30703.4 -7.41299 
314 1 72.5536 6.67865 7.54251 5.92962 54196.9 -51427.8 57771.2 250956 61692.7 41481.3 -7.42111 
315 1 73.9734 6.67334 7.54102 5.93641 67578.7 -68638 -56475.2 218523 1252.79 36163.5 -7.41354 
316 1 74.708 7.89008 7.54302 5.94355 63947.3 -68010.1 67472.7 208738 59618.9 46529.8 -7.42169 
408 1 68.3257 9.16005 7.54229 5.92954 75414.3 -69073.1 82270 231641 53752.4 31234.6 -7.42343 
409 1 69.7457 9.15743 7.54081 5.9386 92682.9 -92656.4 -82104 210921 -5996.5 25072.5 -7.41246 
412 1 72.5942 9.13399 7.54347 5.93905 81574.6 -83851.5 80299.4 208132 55286.3 41296.5 -7.42293 
413 1 74.0143 9.12791 7.54275 5.94363 99307.3 -98671.6 -79436 175778 538.853 31547.5 -7.41273 
37 1 75.9863 0.511484 7.53661 5.93523 -8439.54 55.6083 -4843.15 266701 -30686.2 42803.1 -7.41582 
38 1 78.8267 0.474488 7.52531 5.96063 -8761.09 2694.34 2408.43 227680 32120.3 42065 -7.41575 
39 1 80.2461 0.460511 7.51886 5.96318 -8832.47 -1428.88 -4729.02 178695 -25003.1 38167 -7.4155 
40 1 83.0858 0.414603 7.50696 5.99236 -11492.1 1092.44 1593.01 140904 24773.2 28893.7 -7.41534 
41 1 84.5051 0.393997 7.50225 5.99834 -11729 -2018.65 -4568.47 98795 -18708.4 18929.3 -7.41499 
121 1 76.0364 2.96952 7.53564 5.93583 19826.9 -22684.3 -23493.9 247211 -10064.1 41915.9 -7.41482 
122 1 76.7225 1.72769 7.53353 5.94488 588.431 -2579.12 12526.5 264043 44005.3 43856.3 -7.41666 
123 1 78.142 1.71727 7.52832 5.94731 3645.76 -8709.95 -13514.8 218180 -17320.7 41980.1 -7.41521 
124 1 78.8783 2.93299 7.52765 5.96144 3583.28 -6634.64 21574.3 213147 47715.5 45911.7 -7.41717 
125 1 80.2978 2.91894 7.52226 5.96408 9215.36 -10561.5 -21170 165042 -5469.44 37667.5 -7.4147 
126 1 80.9825 1.67585 7.51726 5.97718 -7662.52 1132.31 11116 178748 36122.9 39490.8 -7.41614 
127 1 82.4019 1.6583 7.5115 5.98152 -4946.57 -1910.61 -12559.4 131549 -12499.7 29482.1 -7.41483 
128 1 83.138 2.87348 7.51247 5.99548 -12890.9 4380.71 19108.1 132099 37062.1 33619.7 -7.41652 
129 1 84.5573 2.85274 7.50769 6.00131 -7107.22 1525.75 -19193.4 89897.7 -3548.6 19244.7 -7.41423 
130 1 85.2412 1.60886 7.50284 6.00699 -16710.9 4904.12 9842.79 105384 26597.1 19275.2 -7.41574 
219 1 76.084 5.42637 7.53807 5.9404 49020.3 -48815.8 -43461.9 210861 2237.66 40257.2 -7.41406 
220 1 76.7724 4.18564 7.53575 5.94733 19942.2 -20518.1 32988.6 237719 56730 47640.4 -7.41842 
221 1 78.192 4.17504 7.53173 5.94969 28357.4 -27676.3 -31437.8 192818 -16.2224 41257.1 -7.41446 
222 1 78.9277 5.39092 7.53348 5.96629 19252.6 -25124.7 41416.3 185815 56853.3 50026.7 -7.41888 
223 1 80.3473 5.37671 7.52904 5.96696 30086.8 -26720.5 -38307.3 138251 7678 37879.4 -7.41415 
224 1 81.0337 4.13446 7.52365 5.98124 -485.964 -6209.41 29594.6 161177 48252.7 44650.2 -7.41757 
225 1 82.4532 4.11681 7.51836 5.98382 7817.9 -7041.97 -27790.1 114070 3278.83 30679 -7.41424 
226 1 83.1885 5.33238 7.52076 6.0008 -8861.2 -2600.77 35907.9 113545 45092.7 41007.2 -7.41787 
227 1 84.6079 5.31146 7.51542 6.00416 2206.59 -2566.79 -33155.1 70176.6 8158.93 22382.7 -7.41377 
228 1 85.2927 4.06801 7.50985 6.01194 -20049.5 8765.59 25892 92777.4 34239.9 26695.3 -7.41693 
317 1 76.1279 7.88191 7.54152 5.94652 79489.8 -78350.2 -65424.9 170127 5284.41 36698.5 -7.41333 
318 1 76.8192 6.64265 7.54002 5.95285 42124.5 -47404.7 54275.2 201865 60648.1 50065 -7.42031 
319 1 78.239 6.63172 7.53712 5.95412 55343.7 -52725.1 -51207.7 157660 8196.14 39497.3 -7.41384 
320 1 78.9737 7.84787 7.54011 5.97158 40117.6 -53710.7 61278 154661 57932.1 52321 -7.42057 
321 1 80.3935 7.83351 7.53638 5.97036 55236.6 -51155 -56749.9 107474 12870.5 36717.4 -7.41367 
322 1 81.0824 6.59256 7.53171 5.98618 12694.3 -25376.7 47804.2 135967 53932.5 49893.2 -7.41913 
323 1 82.502 6.57482 7.52659 5.9862 25753.2 -21815 -43492 88520 12661.2 32486.8 -7.41384 
324 1 83.2362 7.79078 7.52911 6.00581 3581.04 -22706.4 51139.4 91292 47434.8 48407.3 -7.41918 
325 1 84.6558 7.76976 7.52294 6.00557 18631.5 -17606.4 -46163.7 46231 14836.1 26145.2 -7.41352 
326 1 85.3423 6.5272 7.51748 6.01731 -16283.2 542.269 39653.9 73294.7 37834 36723.1 -7.41807 
416 1 76.8622 9.09839 7.54485 5.95988 67887.2 -80828 75214.6 167152 56755.5 49875.2 -7.42199 
417 1 78.2822 9.08714 7.54285 5.95908 85101.7 -82517.7 -71850.4 123671 9397.5 35418.8 -7.4132 
420 1 81.1276 9.04966 7.53962 5.99143 33328.8 -54987.2 64961 110734 52774.8 53284.3 -7.42057 
421 1 82.5474 9.03191 7.53442 5.98791 49844.9 -46578.2 -58948.5 62831.4 16203.6 32906.3 -7.41352 
424 1 85.3894 8.98584 7.52425 6.02326 -3015.14 -21086.6 50590.8 52934.5 37149.9 46730.6 -7.41903 
42 1 87.3444 0.34195 7.49689 6.01481 -15115.8 -1690.38 1551.2 86763.2 19189.9 6238.52 -7.41509 
43 1 88.7637 0.317864 7.49572 6.01882 -14708.1 -5418.61 -2321.01 60733.4 -14192.4 1938.64 -7.41476 
44 1 91.6029 0.264153 7.49395 6.01918 -16554.3 -9426.81 1986.97 78703.1 15409.9 1592.35 -7.41497 
45 1 93.0222 0.239626 7.49182 6.01743 -15814.6 -14026.5 -47.6282 57064.2 -10318.3 12840.8 -7.41472 
131 1 86.6605 1.58592 7.4998 6.0143 -13547.3 -253.261 -10989 71287.8 -10160.8 7856.03 -7.41436 
132 1 87.3962 2.80087 7.50161 6.01733 -20692.6 7472.25 17238.1 79626.9 25021.8 11607.6 -7.41625 
133 1 88.8155 2.77645 7.49926 6.02351 -13837.6 -4375.18 -16598.8 52840.5 -5598.25 845.44 -7.41378 
134 1 89.4996 1.53258 7.49685 6.01864 -16645.8 -1455.78 9271.93 76351.6 19241.6 2018.55 -7.41565 
135 1 90.9189 1.50798 7.4955 6.02188 -12683.8 -13257.8 -8045.41 55062.9 -9355.33 1605.5 -7.41419 
136 1 91.6549 2.72259 7.49606 6.01784 -7994.18 -10276.5 15014.9 68939.4 17789.1 5774.6 -7.41618 
137 1 93.0743 2.69756 7.49328 6.02066 -1075.72 -32686.9 -12188 46844.2 -5271.19 7217.84 -7.41367 
138 1 93.7585 1.45397 7.49074 6.01588 -6703.95 -19694.6 7974.36 75806 16042.8 12778.9 -7.41537 
229 1 86.7121 4.04474 7.5057 6.01921 -10985.6 2238.08 -24777.2 57257.8 1034.07 9699.96 -7.41366 
230 1 87.4469 5.26015 7.50748 6.02252 -22012.8 8926.36 30506.5 62262.8 27596.2 21258.4 -7.41733 
231 1 88.8662 5.23506 7.50352 6.03088 -9481.75 -5589.46 -28574.3 33161.9 1922.47 2447.36 -7.41315 