ITEM: TIMESTEP
0
ITEM: NUMBER OF ATOMS
14408
ITEM: BOX BOUNDS pp pp pp
0.0000000000000000e+00 1.0437723699999999e+02
0.0000000000000000e+00 1.8078667700000000e+02
0.0000000000000000e+00 1.8399999600000001e+01
ITEM: ATOMS id type x y z c_csym c_2[1] c_2[2] c_2[3] c_2[4] c_2[5] c_2[6] c_3 
1 1 0 0 7.5 6.04905 10592.6 10408 -64762.5 -44.8158 0.168848 0.175996 -7.41189 
2 1 2.14434 1.20458 7.5 6.04912 9738.62 11273.6 -62560.6 -1593.4 10176.6 -18114.8 -7.41201 
3 1 3.56424 1.18785 7.5 6.04918 11480.3 8777.95 -59993.3 3267.28 9640.7 -28003.5 -7.41214 
4 1 6.40405 1.15438 7.5 6.04918 9520.87 8360.15 -50508.1 -4552.83 9188.14 -45898.7 -7.41263 
5 1 7.82395 1.13765 7.5 6.04918 10937.4 5726.48 -46073.4 6666.07 5953.33 -47034.2 -7.41286 
50 1 0.0289776 2.45934 7.5 6.04907 8108.82 12455.9 -62664.6 -70.8256 20388.3 84.7204 -7.41201 
51 1 1.44888 2.44261 7.5 6.04912 12199.7 8695.2 -61907.7 1485.91 20646.2 -11731.7 -7.41203 
52 1 2.17332 3.66392 7.5 6.04913 6783.45 13224.8 -58489.7 -1214.24 28280.6 -17162.7 -7.41222 
53 1 3.59322 3.64719 7.5 6.0492 12461.4 6895.75 -56204.3 3858.14 28446.4 -26168.2 -7.41234 
54 1 4.28868 2.40915 7.5 6.04918 8339.48 11107.6 -56125.1 -2687.54 18483.7 -33582.8 -7.41234 
55 1 5.70858 2.39242 7.5 6.04918 11897.1 6549.94 -52911.7 5469.44 17105.1 -38948.8 -7.41251 
56 1 6.43302 3.61373 7.5 6.0492 6715.19 10342.9 -46228.3 -3545.44 23643.8 -43937.6 -7.41285 
57 1 7.85292 3.597 7.5 6.0492 12093.9 4180.52 -44296.4 7674.94 21067.4 -43295.1 -7.41296 
58 1 8.54839 2.35896 7.5 6.04918 8066.08 7515.64 -39692.1 -5327.5 15030.7 -51599.6 -7.41318 
148 1 0.0579552 4.91868 7.5 6.04908 4744.61 14213.2 -56939.9 -138.717 36803.4 434.876 -7.4123 
149 1 1.47786 4.90195 7.5 6.04913 12644.1 6599.8 -55593.2 1768.2 38176.4 -11017.4 -7.41236 
150 1 2.2023 6.12326 7.5 6.04913 3201.04 14914.6 -51454.7 -949.723 41032.9 -15088.2 -7.41258 
151 1 3.6222 6.10653 7.5 6.0492 12599.9 4900.37 -48712 4337.33 42642.7 -23119.1 -7.41272 
152 1 4.31766 4.86849 7.5 6.0492 5074.92 12931.4 -50459.2 -2055.08 32864.4 -30987.3 -7.41263 
153 1 5.73756 4.85176 7.5 6.0492 12508.6 4736.13 -48202.7 6267.98 32545.7 -35022.5 -7.41275 
154 1 6.462 6.07307 7.5 6.0492 3375.3 12186.2 -39597.4 -2762.34 33490.1 -39417.9 -7.41319 
155 1 7.8819 6.05634 7.5 6.0492 12544.2 2682.47 -39525.3 8419.68 32363.9 -37241 -7.41321 
156 1 8.57736 4.8183 7.5 6.0492 5076.26 9429.51 -34131.2 -4293.46 25165.5 -47956 -7.41347 
246 1 0.0869327 7.37802 7.5 6.04908 1032.3 15779.7 -48881.3 -201.858 46528.7 911.497 -7.41272 
247 1 1.50683 7.36129 7.5 6.04913 12425.7 4481.36 -45850.9 1962.28 49708.4 -9940.62 -7.41286 
248 1 2.23127 8.5826 7.5 6.04913 -412.552 16417.3 -42939.8 -784.389 46484.5 -12305.6 -7.41303 
249 1 3.65118 8.56587 7.5 6.0492 12307.7 2951.3 -38493.8 4582.38 50205.6 -19117.6 -7.41325 
250 1 4.34664 7.32783 7.5 6.0492 1500.54 14617 -42743.8 -1587.93 41113.7 -26746.8 -7.41303 
251 1 5.76654 7.3111 7.5 6.0492 12526.6 3002.7 -40479.7 6756.67 42589.6 -29425.4 -7.41315 
252 1 6.49098 8.53241 7.5 6.0492 36.5056 13934.1 -31955.2 -2240.46 37118.7 -33157.2 -7.41358 
253 1 7.91088 8.51568 7.5 6.0492 12622.6 1354.22 -32492 8733.28 38164.3 -29501.2 -7.41357 
254 1 8.60634 7.27764 7.5 6.0492 1871.86 11345.8 -27269.2 -3515.81 30396.9 -41822.8 -7.41382 
6 1 10.6638 1.10419 7.5 6.04918 9070.04 4814.43 -32184.3 -7251.95 8339.8 -52720.6 -7.41357 
7 1 12.0837 1.08746 7.5 6.04918 10255.7 3028.07 -28920.6 9223.33 439.312 -44024.8 -7.41375 
8 1 14.9235 1.054 7.5 6.04918 8566.92 3087.26 -15382.3 -9377.12 8590.46 -39225 -7.41443 
9 1 16.3434 1.03727 7.5 6.04918 9676.18 2697.22 -15484.7 10672.3 -5452.28 -25662.4 -7.41442 
59 1 9.96829 2.34223 7.5 6.04918 11345 3527.19 -37547.2 8598.36 9908.99 -46405.4 -7.41331 
60 1 10.6927 3.56354 7.5 6.0492 6490.11 6742.46 -27422.2 -6049.23 17624.4 -50797.2 -7.41381 
61 1 12.1126 3.54681 7.5 6.0492 11673.8 1972.46 -29970.3 10181.5 10409.5 -39716.3 -7.4137 
62 1 12.8081 2.30877 7.5 6.04918 7648.12 4549.5 -20765 -7809.83 11945.9 -47576.4 -7.41415 
63 1 14.228 2.29204 7.5 6.04918 10796.4 2117.84 -22892.5 10490.1 1368.54 -34140.4 -7.41406 
64 1 14.9524 3.51334 7.5 6.0492 6194.37 4751.26 -9795.43 -8424.64 13265.5 -38411.4 -7.4147 
65 1 16.3723 3.49661 7.5 6.0492 11388.2 2168.2 -19363.7 11190.9 -7.539 -22017.2 -7.41423 
66 1 17.0678 2.25858 7.5 6.04918 7261.36 3956.5 -6343.89 -9723.93 11093.1 -28746.8 -7.41488 
67 1 18.4877 2.24185 7.5 6.04918 10485.8 3326.02 -14019.1 11075 -6091.98 -13879.7 -7.41449 
157 1 9.99727 4.80157 7.5 6.0492 12274.9 2235.42 -35811.4 9537.05 21124 -40902.2 -7.4134 
158 1 10.7217 6.02288 7.5 6.0492 3540.92 8701.93 -21279.2 -5091.06 23424 -45891.7 -7.41412 
159 1 12.1416 6.00615 7.5 6.0492 12565.8 1135.47 -28920.3 10816.2 17751.1 -33082.2 -7.41376 
160 1 12.8371 4.76811 7.5 6.0492 4989.34 6397.66 -15077.8 -6803.07 17446.4 -44618.5 -7.41444 
161 1 14.257 4.75138 7.5 6.0492 12111.8 1419.9 -24544.5 11151 8043.97 -28994.2 -7.41398 
162 1 14.9814 5.97269 7.5 6.0492 3632.59 6565.85 -3755.72 -7648.29 15592.8 -35294.5 -7.41501 
163 1 16.4013 5.95596 7.5 6.0492 12730.5 1931.08 -21865 11423.1 4019.19 -16988.9 -7.4141 
164 1 17.0968 4.71792 7.5 6.0492 4861.3 5454.47 -77.9154 -9078.82 13350.5 -27824.7 -7.41519 
165 1 18.5167 4.70119 7.5 6.0492 12164.6 3133.76 -18530.3 11227.6 -2520.62 -10440 -7.41426 
255 1 10.0262 7.26091 7.5 6.0492 12731.8 1184.61 -31769 10043.2 28229.5 -33267.2 -7.41361 
256 1 10.7507 8.48222 7.5 6.0492 648.912 10691.1 -14856.8 -4438.03 24631.5 -38983.5 -7.41445 
257 1 12.1706 8.46549 7.5 6.0492 13152.9 592.403 -26163.8 10962.3 21284.3 -24866.9 -7.41389 
258 1 12.866 7.22745 7.5 6.0492 2240.84 8384.37 -8974.73 -6028.35 19518.2 -39334 -7.41474 
259 1 14.2859 7.21072 7.5 6.0492 13074.8 1076.45 -24578.6 11381.8 12151.1 -22226.7 -7.41397 
260 1 15.0104 8.43203 7.5 6.0492 1189.73 8495.38 1888.05 -7093.72 14952.9 -30741.4 -7.41529 
261 1 16.4303 8.4153 7.5 6.0492 13806 2029.15 -23056.5 11248 5924.82 -11187.7 -7.41404 
262 1 17.1258 7.17726 7.5 6.0492 2489.98 7150.38 5936.7 -8548.49 13441.7 -25563.1 -7.41549 
263 1 18.5457 7.16053 7.5 6.0492 13561.8 3291.07 -21829.9 11057.8 -186.22 -6497.02 -7.41409 
10 1 19.1832 1.00381 7.5 6.04918 8243.54 3921.36 -5208.9 -10572.5 10568.4 -17814.2 -7.41493 
11 1 20.6031 0.987083 7.5 6.04918 9441.63 4628.28 -8908.29 10958.4 -10454 -6591.67 -7.41473 
12 1 23.4429 0.953622 7.5 6.04918 8300.34 5909.64 -1644.75 -10626.2 14173.3 -3314.39 -7.41508 
13 1 24.8628 0.936892 7.5 6.04918 9697.05 6836.9 -7367.89 10250.8 -13969.5 952.895 -7.41478 
14 1 27.7026 0.903431 7.5 6.04918 8816.73 6816.71 -640.788 -9617.75 18612 -3423.31 -7.4151 
68 1 19.2121 3.46315 7.5 6.0492 5974.95 5091.53 1496.1 -10117.2 12751.7 -18646.5 -7.41526 
69 1 20.632 3.44642 7.5 6.0492 11424.5 4548.97 -14950.5 10918.7 -7396.96 -4250.06 -7.41443 
70 1 21.3275 2.20839 7.5 6.04918 7109.11 5360.97 852.632 -10627.2 13289.7 -9832.46 -7.41522 
71 1 22.7474 2.19166 7.5 6.04918 10598.9 5906.69 -11268.7 10568.8 -10992.9 -53.9844 -7.41459 
72 1 23.4718 3.41296 7.5 6.0492 6001.43 6478.5 6281.48 -10638.7 16370.1 -5568.57 -7.41549 
73 1 24.8917 3.39623 7.5 6.0492 11877.9 7060.98 -14609.4 9825.36 -10815.6 2065.36 -7.4144 
74 1 25.5872 2.1582 7.5 6.04918 7345.66 6788.41 3071.31 -10312 17949.2 -2729.72 -7.41531 
75 1 27.0071 2.14147 7.5 6.04918 11176.6 7515.3 -10930.8 9354.23 -13257.4 -354.695 -7.41457 
76 1 27.7315 3.36277 7.5 6.0492 6389.56 6872.02 8362.77 -9871.1 22581.8 -6307.62 -7.41557 
166 1 19.2411 5.9225 7.5 6.0492 3663.53 6423.56 8099.98 -9719.26 13414.3 -18515.5 -7.4156 
167 1 20.661 5.90577 7.5 6.0492 13120 4700.97 -19940.1 10699.5 -4853.9 -1849.35 -7.41417 
168 1 21.3565 4.66773 7.5 6.0492 4810.98 6266.89 8150.56 -10444.8 14597.8 -11278.5 -7.41559 
169 1 22.7764 4.651 7.5 6.0492 12545.6 6038.4 -17543.8 10272.8 -8232.18 1377.29 -7.41427 
170 1 23.5008 5.8723 7.5 6.0492 3743.42 7130.16 14054.1 -10599.6 17401.7 -8178.1 -7.41589 
171 1 24.9207 5.85557 7.5 6.0492 13759 7358.25 -20727.8 9358.86 -7746.98 2188.05 -7.41409 
172 1 25.6162 4.61754 7.5 6.0492 4985.56 7057.05 11626.1 -10464.2 20348 -5822.13 -7.41575 
173 1 27.0361 4.60081 7.5 6.0492 13245.1 7779.89 -17841.8 8891.71 -9308.69 -307.65 -7.41422 
174 1 27.7605 5.82211 7.5 6.0492 4015.62 6903.14 17568.8 -10020.4 25297.5 -10293 -7.41606 
264 1 19.2701 8.38184 7.5 6.0492 1523.85 7881.74 13952.5 -9383.56 12267.7 -17982.7 -7.4159 
265 1 20.69 8.36511 7.5 6.0492 14531.2 5113.49 -23722.2 10243.6 -3213.93 287.465 -7.41397 
266 1 21.3855 7.12707 7.5 6.0492 2626.53 7338.9 14964.8 -10228 14477.8 -12640.3 -7.41594 
267 1 22.8054 7.11034 7.5 6.0492 14205.1 6398.4 -22649.6 9816.51 -5903.23 2194.87 -7.41401 
268 1 23.5298 8.33165 7.5 6.0492 1691.43 7858.73 21136.9 -10464.6 17094.2 -11344.1 -7.41626 
269 1 24.9497 8.31492 7.5 6.0492 15280.7 7763.4 -25494.6 8849.12 -5057.77 1308.56 -7.41384 
270 1 25.6452 7.07688 7.5 6.0492 2777.62 7409.38 19908.4 -10470.2 21456.9 -9758.23 -7.41619 
271 1 27.0651 7.06015 7.5 6.0492 14947.8 8102.35 -23381.4 8435.49 -5595.93 -1482.84 -7.41393 
272 1 27.7895 8.28146 7.5 6.0492 1859.41 6951.27 26484.3 -9979.47 26510.1 -15294.1 -7.41653 
15 1 29.1225 0.886701 7.5 6.04918 10414 7172.21 -6194.73 8881.83 -16162 -5755.99 -7.41481 
16 1 31.9623 0.853241 7.5 6.04918 9704.28 5338.47 2560.05 -7896.1 22819.1 -15391.9 -7.41526 
17 1 33.3822 0.836511 7.5 6.04918 11392.4 4889.88 -1324.41 7219.95 -17646.5 -20173.6 -7.41505 
18 1 36.222 0.80305 7.5 6.04918 10740.6 1844.58 10373.7 -5913.45 25972.1 -29763.6 -7.41566 
19 1 37.6419 0.78632 7.5 6.04918 12357.7 904.417 8321.33 5538.43 -19023 -32181.9 -7.41556 
77 1 29.1514 3.34604 7.5 6.0492 12674.7 7536.54 -13786.3 8396.94 -11199.4 -5317.76 -7.41441 
78 1 29.8469 2.10801 7.5 6.04918 7999.24 6372.13 5081.37 -8941.86 23508.8 -9702.14 -7.41539 
79 1 31.2668 2.09128 7.5 6.04918 12075.4 6572.49 -8335.76 7832.73 -13903.1 -12284.7 -7.41469 
80 1 31.9913 3.31258 7.5 6.0492 7131.9 5114.78 12322.3 -8124.4 29024.5 -17983.4 -7.41577 
81 1 33.4112 3.29585 7.5 6.0492 13585.2 5276.64 -8803.96 6963.22 -10465.8 -19775.2 -7.41466 
82 1 34.1066 2.05782 7.5 6.04918 8945.63 3680.44 10727 -6965.56 28306.4 -23911.6 -7.41568 
83 1 35.5265 2.04109 7.5 6.04918 13029.2 3251.53 -933.138 6279.44 -14251.6 -26680.7 -7.41507 
84 1 36.251 3.26239 7.5 6.0492 8087.98 1596.54 20548.2 -5951.31 33765.6 -31422.7 -7.4162 
85 1 37.6709 3.24566 7.5 6.0492 14339.8 1272.25 996.59 5614.57 -10311.6 -31449.5 -7.41518 
175 1 29.1804 5.80538 7.5 6.0492 14542.2 7808.7 -19980.3 8007.49 -6353.88 -6242.78 -7.41409 
176 1 29.8759 4.56735 7.5 6.0492 5477.31 6179.86 14802.1 -9194.4 27969.4 -13156 -7.41591 
177 1 31.2958 4.55062 7.5 6.0492 14092.4 6841.16 -15153.5 7530.37 -7861.2 -12604.8 -7.41433 
178 1 32.0202 5.77192 7.5 6.0492 4561.79 4797.64 22828.7 -8266.72 33605.3 -21675.6 -7.41633 
179 1 33.4401 5.75519 7.5 6.0492 15243.8 5480.86 -14659.2 6910.85 -3747.08 -20447.7 -7.41436 
180 1 34.1356 4.51716 7.5 6.0492 6258.22 3320.46 21294.4 -7118.16 34596.2 -26550.7 -7.41624 
181 1 35.5555 4.50043 7.5 6.0492 14825.5 3492.85 -7480.85 6329.52 -6416.67 -26558.2 -7.41473 
182 1 36.2799 5.72173 7.5 6.0492 5340.53 1256.41 31968.5 -5969.69 39486 -33654.8 -7.41681 
183 1 37.6998 5.705 7.5 6.0492 15637.6 1479.19 -4693.97 5954.78 -2524.18 -31170.6 -7.41489 
273 1 29.2094 8.26473 7.5 6.0492 15937.4 8036.98 -24623.2 7737.95 -2012.14 -8311.05 -7.41385 
274 1 29.9049 7.02669 7.5 6.0492 3098.06 6000.21 24746.1 -9263.86 30812.6 -17721 -7.41644 
275 1 31.3248 7.00996 7.5 6.0492 15618.9 7036.77 -20386.7 7368.38 -2346.15 -14081.5 -7.41406 
276 1 32.0492 8.23126 7.5 6.0492 2195.77 4471.67 33597.9 -8209.38 36124.5 -26238.8 -7.41691 
277 1 33.4691 8.21453 7.5 6.0492 16310.6 5565.19 -18924.6 7081.37 1925.82 -21860.1 -7.41414 
278 1 34.1646 6.9765 7.5 6.0492 3661.7 2954.98 32645.2 -7122.97 38718.2 -29958.3 -7.41685 
279 1 35.5845 6.95977 7.5 6.0492 15996 3632.3 -12424.2 6600.2 344.721 -27056.9 -7.41448 
280 1 36.3089 8.18107 7.5 6.0492 2757.29 931.822 44174.2 -5842.86 42481 -36224.8 -7.41747 
281 1 37.7288 8.16434 7.5 6.0492 16246 1603.02 -9031.04 6552.8 3539.69 -31013.3 -7.41467 
20 1 40.4817 0.75286 7.5 6.04918 11676.2 -2228.01 21817.7 -4014.53 27784.3 -37060 -7.41627 
21 1 41.9016 0.736129 7.5 6.04918 13095.3 -3170.19 20636.1 3946.28 -20542.9 -34277.4 -7.41622 
22 1 44.7414 0.702669 7.5 6.04918 12345.9 -5509.94 33490 -2340.19 28446 -32599.1 -7.4169 
23 1 46.1613 0.685939 7.5 6.04918 13534 -6128.43 31801.5 2427.84 -22072.5 -24567.1 -7.41682 
86 1 38.3663 2.00763 7.5 6.04918 9962.36 -270.652 20757.1 -4877.37 31351.6 -35243.6 -7.41621 
87 1 39.7862 1.9909 7.5 6.04918 13787.8 -989.846 10496.9 4784.7 -15163 -34234.3 -7.41568 
88 1 40.5107 3.2122 7.5 6.0492 9046.5 -2338.15 32149 -3855.95 36088 -37625.1 -7.41682 
89 1 41.9306 3.19547 7.5 6.0492 14782.3 -2800.46 13271.1 4246.54 -11391.9 -33228.9 -7.41584 
90 1 42.626 1.95743 7.5 6.04918 10829 -4004.76 32833.8 -3005.95 32589.8 -36432.4 -7.41686 
91 1 44.0459 1.9407 7.5 6.04918 14241.2 -4611.2 22692.1 3294.91 -16702.9 -30255.5 -7.41634 
92 1 44.7704 3.16201 7.5 6.0492 9814.07 -5448.07 43840.4 -2104.91 36479.8 -32317.8 -7.41744 
93 1 46.1903 3.14528 7.5 6.0492 14943.1 -5726.75 24219.8 2717.79 -13246.3 -23511.9 -7.41644 
94 1 46.8857 1.90724 7.5 6.04918 11412.5 -6538.74 43098.2 -1438.77 32617 -25895.2 -7.41741 
184 1 38.3953 4.46697 7.5 6.0492 7182.37 -540.881 31796.7 -4854.81 38517.3 -36486.5 -7.4168 
185 1 39.8152 4.45024 7.5 6.0492 15243.6 -726.97 3995.36 5155.3 -6536.59 -33430.1 -7.41535 
186 1 40.5396 5.67154 7.5 6.0492 6201.13 -2476.74 44056.3 -3750.2 41957.7 -38135.3 -7.41745 
187 1 41.9595 5.65481 7.5 6.0492 15655.5 -2479.58 7328.18 4810.56 -3573.67 -32128.7 -7.41554 
188 1 42.655 4.41678 7.5 6.0492 8050.84 -4063.68 44053.4 -2864.56 39690.3 -36393.9 -7.41745 
189 1 44.0749 4.40005 7.5 6.0492 15335.7 -4264.6 15936 3766.33 -8237.53 -29094.6 -7.416 
190 1 44.7993 5.62135 7.5 6.0492 6952.95 -5325.81 55915 -1963.67 41889.5 -31633.3 -7.41807 
191 1 46.2192 5.60462 7.5 6.0492 15451.1 -5238.17 17766.8 3207.07 -6003.29 -22294 -7.41612 
192 1 46.9147 4.36659 7.5 6.0492 8690.23 -6401.3 54328.5 -1306.47 39274.8 -25133.9 -7.41799 
282 1 38.4243 6.92631 7.5 6.0492 4410.62 -776.463 44071.2 -4757.49 42976.1 -37885.2 -7.41745 
283 1 39.8442 6.90958 7.5 6.0492 15957.7 -485.782 -1139.28 5763.51 446.493 -32652.5 -7.41509 
284 1 40.5686 8.13088 7.5 6.0492 3460.06 -2536.42 57127.5 -3574.22 44554.6 -38441.1 -7.41815 
285 1 41.9885 8.11415 7.5 6.0492 15778 -2114.26 2280.86 5602.27 1933.89 -30715.1 -7.41529 
286 1 42.684 6.87612 7.5 6.0492 5184.84 -4009.44 56780.9 -2713.65 43708 -36037.2 -7.41812 
287 1 44.1039 6.85939 7.5 6.0492 15606 -3797.46 10157.1 4429.17 -1844.68 -27675.1 -7.41571 
288 1 44.8283 8.08069 7.5 6.0492 4129.98 -5050.05 69367.7 -1807.63 43701.2 -30512.3 -7.41879 
289 1 46.2482 8.06396 7.5 6.0492 15178.2 -4556.55 11725.3 3842.17 -1445.49 -20752.9 -7.41582 
290 1 46.9437 6.82593 7.5 6.0492 5798.12 -6076.1 67187.2 -1194.05 42686.5 -23967.6 -7.41867 
24 1 49.0011 0.652478 7.5 6.04918 12705.8 -7355.43 41480.1 -857.342 28337.9 -17476.1 -7.41733 
25 1 50.421 0.635748 7.5 6.04918 13717.7 -7556.97 38186 932.909 -23296.9 -6260.08 -7.41717 
26 1 53.2608 0.602288 7.5 6.04918 12782.4 -7690.33 43067.1 533.835 27753.8 3154.11 -7.41742 
27 1 54.6807 0.585557 7.5 6.04918 13701.8 -7468.29 37746.3 -565 -23959.7 14482.7 -7.41714 
95 1 48.3056 1.89051 7.5 6.04918 14440.9 -6812.56 31748.5 1738.18 -18334.4 -15690.6 -7.41683 
96 1 49.0301 3.11182 7.5 6.0492 10276.2 -7178.83 51785.5 -700.476 35993.3 -16764.2 -7.41786 
97 1 50.45 3.09509 7.5 6.0492 14977.5 -7127.33 30389.6 995.967 -14866.2 -5559.4 -7.41678 
98 1 51.1454 1.85705 7.5 6.04918 11671.9 -7593.88 48074.9 -89.0226 32131.2 -7068.84 -7.41767 
99 1 52.5653 1.84032 7.5 6.04918 14495.5 -7474.13 34776.4 114.381 -19409.3 4499.79 -7.417 
100 1 53.2898 3.06163 7.5 6.0492 10388.8 -7490.33 53289.2 522.402 35454.3 3977 -7.41794 
101 1 54.7097 3.0449 7.5 6.0492 15004.2 -7044.3 29888.1 -799.013 -15458.7 14640.7 -7.41675 
102 1 55.4051 1.80686 7.5 6.04918 11609.5 -7195.73 46044 1205.38 31491.1 13829.3 -7.41756 
103 1 56.825 1.79013 7.5 6.04918 14442.1 -6633.41 30847.6 -1510.38 -19595.3 23596.1 -7.41678 
193 1 48.3346 4.34986 7.5 6.0492 15272.9 -6373.27 24639.8 2037.51 -10378.2 -14752 -7.41648 
194 1 49.059 5.57116 7.5 6.0492 7437.38 -6871.78 63851.9 -632.697 41009.5 -15714.6 -7.41849 
195 1 50.4789 5.55443 7.5 6.0492 15296.1 -6527.44 23536.8 1150.36 -8077.46 -4964.49 -7.41644 
196 1 51.1744 4.31639 7.5 6.0492 8996.47 -7361.79 59239 -77.1793 38619.9 -6167.29 -7.41825 
197 1 52.5943 4.29966 7.5 6.0492 15262 -7004.07 27484.9 71.4422 -11630.5 4787.79 -7.41663 
198 1 53.3188 5.52097 7.5 6.0492 7561.54 -7144.71 65275.4 456.393 40633.4 4815.46 -7.41857 
199 1 54.7387 5.50424 7.5 6.0492 15375.2 -6463.58 23015.9 -1060.72 -8485.52 14322.9 -7.41641 
200 1 55.4341 4.2662 7.5 6.0492 8928.47 -6995.27 57111.7 1071.62 38362.4 14615.2 -7.41814 
201 1 56.854 4.24947 7.5 6.0492 15366.2 -6213.12 23646.6 -1866.66 -11382.4 23213.7 -7.41642 
291 1 48.3636 6.8092 7.5 6.0492 15237.5 -5689.31 18172.7 2429.66 -4709.16 -13704.4 -7.41616 
292 1 49.088 8.0305 7.5 6.0492 4585.66 -6358.67 77388.4 -570.761 42329.9 -14399 -7.41921 
293 1 50.5079 8.01377 7.5 6.0492 14824.9 -5642.96 16815.6 1335.36 -4107.91 -4421.39 -7.4161 
294 1 51.2034 6.77574 7.5 6.0492 6105.46 -6902.46 72067.3 -78.1301 41889.1 -5131.48 -7.41893 
295 1 52.6233 6.75901 7.5 6.0492 15151.6 -6250.51 20737.5 -2.545 -6136.29 4771.14 -7.4163 
296 1 53.3477 7.98031 7.5 6.0492 4704.34 -6582.55 78752.8 386.997 42204.5 5516.62 -7.41928 
297 1 54.7676 7.96358 7.5 6.0492 14959.4 -5615.15 16338 -1414.25 -4248.76 13480.7 -7.41607 
298 1 55.4631 6.72555 7.5 6.0492 6037.03 -6583.43 69839.4 944.027 42184.1 15173.2 -7.41881 
299 1 56.883 6.70882 7.5 6.0492 15436.6 -5576.62 17185.7 -2369.64 -5267.38 22197.3 -7.4161 
28 1 57.5205 0.552097 7.5 6.04918 12590.9 -6531.09 37668.8 1937.08 26801.4 22448.6 -7.41713 
29 1 58.9404 0.535367 7.5 6.04918 13470.4 -5855.62 30674.5 -2090.26 -23960 30744.4 -7.41676 
30 1 61.7802 0.501906 7.5 6.04918 12107.7 -3844.42 27015.8 3440.49 25469.1 33987.9 -7.41655 
31 1 63.2001 0.485176 7.5 6.04918 12954.6 -2744.81 19353.2 -3697.35 -23284.5 36935 -7.41615 
32 1 66.0399 0.451716 7.5 6.04918 11325 69.8329 14589.6 5108.58 23729.5 33931.9 -7.41589 
104 1 57.5495 3.01144 7.5 6.0492 10144.5 -6396.91 47784.9 1788.94 34990.2 23315.8 -7.41765 
105 1 58.9694 2.99471 7.5 6.0492 14990.7 -5455.96 22898.6 -2506.26 -14918.6 30425.9 -7.41637 
106 1 59.6648 1.75667 7.5 6.04918 11223.7 -5310.75 37615.1 2605.33 30601.8 30006 -7.41711 
107 1 61.0847 1.73994 7.5 6.04918 14201.8 -4242.69 21263.1 -3097.52 -18989.9 35146 -7.41626 
108 1 61.8092 2.96125 7.5 6.0492 9558.62 -3841.9 37022.6 3292.28 34078.7 35072.3 -7.41707 
109 1 63.2291 2.94452 7.5 6.0492 14779.6 -2346.73 11657.3 -4062.23 -13773.2 36362.6 -7.41575 
110 1 63.9245 1.70648 7.5 6.04918 10521.5 -1991.71 25528.9 4230.48 29104.3 36107.1 -7.41647 
111 1 65.3444 1.68975 7.5 6.04918 13662.2 -512.104 9202.23 -4688.21 -17921.4 35119.4 -7.41561 
112 1 66.0689 2.91106 7.5 6.0492 8697.61 -71.199 24473.1 5118.49 31995.2 35486.3 -7.41641 
202 1 57.5785 5.47078 7.5 6.0492 7302.64 -6164.84 59656.4 1615.6 40861.7 23947 -7.41827 
203 1 58.9984 5.45405 7.5 6.0492 15639.2 -5002.68 16353.4 -3041.1 -7161.71 29514.1 -7.41604 
204 1 59.6938 4.21601 7.5 6.0492 8492.77 -5251.58 48566.8 2405.43 38118.3 30855.6 -7.41769 
205 1 61.1137 4.19928 7.5 6.0492 15448.2 -3902.25 14288.8 -3556.02 -10048.8 34448.9 -7.41591 
206 1 61.8382 5.42059 7.5 6.0492 6704.59 -3830.02 48713.4 3112.85 40630.7 36020.6 -7.41769 
207 1 63.2581 5.40386 7.5 6.0492 15838.4 -2031.16 5484.41 -4581.37 -5221.72 35529.7 -7.41544 
208 1 63.9535 4.16582 7.5 6.0492 7749.21 -2127.75 36314.3 4102.72 36853.7 37463.7 -7.41704 
209 1 65.3734 4.14909 7.5 6.0492 15281.7 -213.338 2341.08 -4975.08 -8677.8 34550.8 -7.41526 
210 1 66.0979 5.3704 7.5 6.0492 5883.69 -287.228 35822.2 5048.94 38502.6 37399.1 -7.41701 
300 1 57.6074 7.93012 7.5 6.0492 4453.22 -5754.94 72981.5 1436.97 43359.2 24124.2 -7.41898 
301 1 59.0273 7.91339 7.5 6.0492 15517.7 -4396.75 10377.5 -3769.26 -1875.41 27864.4 -7.41574 
302 1 59.7228 6.67535 7.5 6.0492 5606.02 -5046.55 61119.3 2210.27 42863.6 31351.8 -7.41835 
303 1 61.1427 6.65862 7.5 6.0492 15899.7 -3482.51 8437.09 -4237.16 -2875.2 33178.5 -7.41562 
304 1 61.8671 7.87993 7.5 6.0492 3896.5 -3712.53 61724 2897.25 44174.4 36556.4 -7.41839 
305 1 63.287 7.8632 7.5 6.0492 16169.1 -1714.74 385.223 -5352.22 1281.03 34212 -7.41519 
306 1 63.9825 6.62516 7.5 6.0492 4908.08 -2203.2 48523.3 3940.64 42200.9 38755.4 -7.41769 
307 1 65.4024 6.60843 7.5 6.0492 16202.7 32.6973 -3036.26 -5502.13 -768.281 33921.9 -7.41499 
308 1 66.1268 7.82974 7.5 6.0492 3181.22 -472.172 48205.7 4881.91 42484.9 39348.6 -7.41768 
33 1 67.4598 0.434985 7.5 6.04918 12132.4 1322.74 7585.92 -5448.08 -21900.9 31144.5 -7.41552 
34 1 70.2996 0.401525 7.5 6.04918 10332.8 4161.33 4289.24 6918.81 21576 23248.3 -7.41534 
35 1 71.7195 0.384795 7.5 6.04918 11118 5030.6 -956.72 -7304.59 -19748.5 17107.1 -7.41507 
36 1 74.5593 0.351334 7.5 6.04918 9344.05 6858.24 -1454.18 8694.16 18998.3 8633.08 -7.41505 
113 1 67.4888 2.89433 7.5 6.0492 14234.5 1754.06 -163.074 -5548.08 -12716.4 30498.9 -7.41512 
114 1 68.1842 1.65629 7.5 6.04918 9576.24 2140.88 13677.7 6092.9 26685.2 30451.5 -7.41584 
115 1 69.6042 1.63956 7.5 6.04918 12813.1 3600.63 -1373.53 -6355.04 -16640.6 24242.6 -7.41505 
116 1 70.3286 2.86087 7.5 6.0492 7712.53 3956.63 13953.5 7157.03 28366.1 25392.9 -7.41585 
117 1 71.7485 2.84414 7.5 6.0492 13383.1 5478.78 -8848.63 -7079.88 -12067.2 16365.2 -7.41466 
118 1 72.444 1.6061 7.5 6.04918 8565.98 5736.57 5413.79 8030.52 23322.5 16859.5 -7.4154 
119 1 73.8639 1.58937 7.5 6.04918 11816 6498.66 -7524.5 -8069.24 -15122.6 9093.9 -7.41473 
120 1 74.5883 2.81068 7.5 6.0492 6826.03 6769.13 7753.62 9068.27 23533.2 11207.9 -7.41553 
211 1 67.5178 5.35367 7.5 6.0492 15711 2009.57 -6239.18 -5774.72 -4131.89 30270.7 -7.41481 
212 1 68.2132 4.11563 7.5 6.0492 6829.99 1855.94 24162.7 6145.36 33652.9 32675.2 -7.41639 
213 1 69.6331 4.0989 7.5 6.0492 14739.7 3911.98 -8367.46 -6291.49 -8160.63 23977.9 -7.41469 
214 1 70.3576 5.32021 7.5 6.0492 5020.96 3645.2 24676.9 7247.25 33708 28531.4 -7.41642 
215 1 71.7775 5.30348 7.5 6.0492 15175.6 5757.35 -15166.1 -6902.74 -4647.64 16677.1 -7.41433 
216 1 72.4729 4.06544 7.5 6.0492 5934.48 5472.64 15347.4 8253.12 28442.9 19901.9 -7.41593 
217 1 73.8928 4.04871 7.5 6.0492 13908.9 6816.51 -14751.7 -7683.39 -8535.52 8839.07 -7.41436 
218 1 74.6173 5.27002 7.5 6.0492 4317.4 6621.35 17495.3 9242.61 26874.9 15120.1 -7.41605 
309 1 67.5467 7.81301 7.5 6.0492 16536.4 2158.46 -10843 -6254.84 2944.19 30195 -7.41457 
310 1 68.2422 6.57497 7.5 6.0492 4108.72 1569.4 35718.9 6097.39 38650.1 35435.4 -7.41701 
311 1 69.6621 6.55824 7.5 6.0492 16095.3 4116.64 -13725.3 -6424.19 -534.834 24369.4 -7.41441 
312 1 70.3865 7.77955 7.5 6.0492 2497.16 3324.6 35980.3 7174.16 37066.4 32338.9 -7.41703 
313 1 71.8064 7.76282 7.5 6.0492 16425.9 5925.42 -19876.4 -6919.78 1838.86 17812.1 -7.41409 
314 1 72.5019 6.52478 7.5 6.0492 3402.09 5205.04 25842.5 8316.83 32012.1 24042.1 -7.41649 
315 1 73.9218 6.50805 7.5 6.0492 15567.2 7088.56 -20454 -7398.14 -2372.87 9713.1 -7.41406 
316 1 74.6463 7.72936 7.5 6.0492 2006.81 6483.06 27266.2 9224.85 28693.6 20120.2 -7.41657 
408 1 68.2712 9.03431 7.5 6.0492 1638.89 1283.48 47835.5 5893.66 41204.8 38339.6 -7.41767 
409 1 69.6911 9.01758 7.5 6.0492 16850.6 4174.43 -17598.2 -6810.63 5594.45 25106.5 -7.41422 
412 1 72.5309 8.98412 7.5 6.0492 1137.45 4915.21 36388.7 8176.17 33742 28919.5 -7.41706 
413 1 73.9508 8.96739 7.5 6.0492 16715.9 7259.16 -24571.1 -7290.64 2916.04 11494 -7.41385 
37 1 75.9792 0.334604 7.5 6.04918 10153.6 6828.28 -4687.34 -9047.75 -16840.8 3804.3 -7.41489 
38 1 78.819 0.301144 7.5 6.04918 8624 7074.35 -3277.46 10098.7 15979.4 147.224 -7.41498 
39 1 80.2389 0.284413 7.5 6.04918 9501.45 6083.05 -5380.36 -10299 -13370.3 1223.5 -7.41488 
40 1 83.0787 0.250953 7.5 6.04918 8368.12 5249.89 -4963.54 10744 12561.3 5376.46 -7.41493 
41 1 84.4986 0.234223 7.5 6.04918 9312.72 3868.35 -7553.08 -10671.9 -9703 13660.3 -7.4148 
121 1 76.0082 2.79395 7.5 6.0492 12439.5 7188.14 -12559.8 -8651.91 -11476.8 2717.67 -7.41448 
122 1 76.7037 1.55591 7.5 6.04918 7738.31 7351.3 1678.72 9688.48 19375.4 4162.03 -7.41522 
123 1 78.1236 1.53918 7.5 6.04918 10945.9 6900.55 -9139.71 -9616.82 -13075.6 -116.309 -7.41467 
124 1 78.848 2.76049 7.5 6.0492 6257.68 7323.7 5114.6 10360.9 18560.1 2720.95 -7.41542 
125 1 80.2679 2.74375 7.5 6.0492 11690.9 6187.23 -12726.1 -10042.5 -10030.6 -540.789 -7.4145 
126 1 80.9634 1.50572 7.5 6.04918 7310.65 6578.43 67.8094 10628.6 15501.8 1973.95 -7.41517 
127 1 82.3833 1.48899 7.5 6.04918 10449 4990.78 -9463.85 -10633.2 -10118.5 4615.32 -7.41469 
128 1 83.1077 2.71029 7.5 6.0492 6130.16 6003.01 2241.46 10603.2 14850.8 7422.23 -7.41529 
129 1 84.5276 2.69356 7.5 6.0492 11338.3 3558.42 -13622.9 -10862.9 -6709.33 11033.2 -7.4145 
130 1 85.2231 1.45553 7.5 6.04918 7371.2 4671.15 -4106.01 10516.1 12430.6 14152.7 -7.41498 
219 1 76.0372 5.25329 7.5 6.0492 14382.9 7492.87 -19145.7 -8194.28 -6137.14 2807.26 -7.41414 
220 1 76.7326 4.01525 7.5 6.0492 5273.7 7361.81 10733.1 9917.83 22297.5 7455.7 -7.4157 
221 1 78.1525 3.99852 7.5 6.0492 13044.9 7126.09 -16303.2 -9150.52 -8778.14 -1035.51 -7.4143 
222 1 78.877 5.21983 7.5 6.0492 3919.04 7628.24 13589.2 10421.5 20044.3 6311.53 -7.41586 
223 1 80.2969 5.2031 7.5 6.0492 13604.2 6410.54 -19048.6 -9607.35 -6679.68 -1806.48 -7.41418 
224 1 80.9923 3.96506 7.5 6.0492 4986.97 7091.68 7958.42 10602 17136 4628.65 -7.41558 
225 1 82.4122 3.94833 7.5 6.0492 12416.4 4960.87 -15817.1 -10425.5 -7213.02 2336.07 -7.41437 
226 1 83.1367 5.16964 7.5 6.0492 3856.39 6931.79 9402.06 10317.9 15876.8 9438.35 -7.41566 
227 1 84.5566 5.15291 7.5 6.0492 13058.5 3513.81 -18642.8 -10773 -3960.25 7544.49 -7.41424 
228 1 85.252 3.91487 7.5 6.0492 5084.63 5770.74 2517.91 10008.7 14886.5 15390 -7.41532 
317 1 76.0662 7.71263 7.5 6.0492 15902.6 7794.9 -24245.8 -7814.3 -1275.59 3979.91 -7.41388 
318 1 76.7616 6.47459 7.5 6.0492 2940.13 7436.75 19813.3 9977.44 23938.5 11945.1 -7.41618 
319 1 78.1815 6.45786 7.5 6.0492 14818.8 7460.07 -22194.1 -8653.17 -4669.53 -1004.42 -7.414 
320 1 78.906 7.67917 7.5 6.0492 1771.64 8014.44 21616.7 10332.6 20176.9 10842 -7.41628 
321 1 80.3259 7.66244 7.5 6.0492 15186.3 6802.31 -24090.7 -9090.61 -3682.22 -2425.36 -7.41392 
322 1 81.0213 6.4244 7.5 6.0492 2767.17 7776.44 15535.8 10463.6 17442.7 7870.47 -7.41597 
323 1 82.4412 6.40767 7.5 6.0492 14102.4 5213.05 -21047.5 -10042.1 -4614.73 65.1425 -7.4141 
324 1 83.1657 7.62898 7.5 6.0492 1723.9 8026.1 15930.6 9998.64 15231.6 11594.2 -7.416 
325 1 84.5856 7.61225 7.5 6.0492 14479.8 3787.76 -22428.9 -10430 -1961.87 3639.23 -7.41405 
326 1 85.281 6.37421 7.5 6.0492 2807.52 7122.67 8905.03 9502.91 15530.9 16027.7 -7.41564 
416 1 76.7906 8.93393 7.5 6.0492 870.559 7517.07 28413.4 9846.78 24151.4 17417.6 -7.41664 
417 1 78.2105 8.9172 7.5 6.0492 16188.4 7830.97 -26631.4 -8191.82 -1041.68 -15.6291 -7.41377 
420 1 81.0503 8.88374 7.5 6.0492 787.837 8528.44 22262.3 10232.3 16279.9 11753.2 -7.41632 
421 1 82.4702 8.86701 7.5 6.0492 15469.7 5667.81 -24988.8 -9507.15 -2593.62 -1845.32 -7.41389 
424 1 85.31 8.83355 7.5 6.0492 728.905 8593.22 14411 9064.33 14021.3 16442.2 -7.41592 
42 1 87.3384 0.200762 7.5 6.04918 8609.95 3347.37 -11325.3 10349.1 8935.7 23288.4 -7.41463 
43 1 88.7583 0.184032 7.5 6.04918 9558.8 2441.58 -15696.6 -9939.28 -6259.18 35100.4 -7.41441 
44 1 91.5981 0.150572 7.5 6.04918 9213.12 3462.97 -24757.3 8854.14 5468.18 42834.2 -7.41396 
45 1 93.018 0.133842 7.5 6.04918 10057.2 3533.46 -30805 -8121.79 -3383.01 51262.6 -7.41365 
131 1 86.643 1.4388 7.5 6.04918 10417.2 2628.53 -13412.1 -10741.8 -6036.61 22750.1 -7.41452 
132 1 87.3674 2.6601 7.5 6.0492 6418.84 4629.42 -5546.12 9644.59 13503.5 24443.2 -7.41492 
133 1 88.7873 2.64337 7.5 6.0492 11401.7 1633.78 -19766.3 -10692.7 -1023.05 31774.8 -7.41421 
134 1 89.4828 1.40534 7.5 6.04918 7843.74 3827.15 -14797.3 9282.8 10651.2 34439.3 -7.41446 
135 1 90.9027 1.38861 7.5 6.04918 10755.5 2106.74 -24207 -9703.2 -1024.39 43496.4 -7.41399 
136 1 91.6271 2.60991 7.5 6.0492 6973.46 5156.87 -20411.4 7696.34 14685.2 43096.1 -7.41417 
137 1 93.047 2.59318 7.5 6.0492 11733.3 2243.57 -32492 -9246.72 6466.67 47801.9 -7.41357 
138 1 93.7425 1.35515 7.5 6.04918 8530.1 5446.93 -31955.3 7137.05 10155.6 48724.5 -7.41358 
229 1 86.6719 3.89814 7.5 6.0492 12157 2177.82 -17968.5 -11040.8 -2401.8 18853.9 -7.41429 
230 1 87.3964 5.11944 7.5 6.0492 4043.06 6136.05 568.504 8886.47 16331.8 24160.4 -7.41523 
231 1 88.8163 5.10271 7.5 6.0492 12807.6 1125.1 -22305 -11100.2 3395.74 26087.6 -7.41408 
232 1 89.5118 3.86468 7.5 6.0492 5456.24 5407.07 -9301.03 8267.09 16451.6 34043.4 -7.41473 
233 1 90.9317 3.84795 7.5 6.0492 12221.1 1132.8 -26137.3 -10497.2 5875.44 38477.1 -7.41389 
234 1 91.6561 5.06925 7.5 6.0492 4336.81 7003.24 -14856.9 6567.5 21445 40823.3 -7.41445 
235 1 93.076 5.05252 7.5 6.0492 12769.2 1146.59 -31769.1 -10019.7 14695.5 41081 -7.41361 
236 1 93.7715 3.81449 7.5 6.0492 5935.23 7282.46 -27269.3 5861.67 21021.2 47235.9 -7.41382 
327 1 86.7009 6.35748 7.5 6.0492 13569.4 2113.56 -21217.2 -11037.9 349.954 13572.5 -7.41413 
328 1 87.4254 7.57879 7.5 6.0492 1715.71 7842.42 6312.91 8246.15 16595.8 22854.4 -7.41551 
329 1 88.8453 7.56206 7.5 6.0492 13871.5 985.189 -23324.6 -11119 6081.04 18742.2 -7.41403 
330 1 89.5407 6.32402 7.5 6.0492 2923.89 7229.5 -3459.44 7374.34 19532.9 31791.3 -7.41502 
331 1 90.9606 6.30729 7.5 6.0492 13228.7 517.354 -26163.8 -10920.7 10893.3 30866.3 -7.4139 
332 1 91.6851 7.5286 7.5 6.0492 1624.12 8991.86 -8974.8 5676.01 24305.2 36570.4 -7.41474 
333 1 93.105 7.51187 7.5 6.0492 13359.1 342.146 -28920.3 -10358.4 19774.5 31914 -7.41376 
334 1 93.8004 6.27383 7.5 6.0492 3009.38 9243.13 -21279.3 4780.07 28031.5 43231.7 -7.41412 
425 1 86.7299 8.81682 7.5 6.0492 14700.7 2361.45 -23159.1 -10695.9 1760.96 7625.38 -7.41402 
428 1 89.5697 8.78336 7.5 6.0492 531.923 9162.43 1888.02 6710.35 19146.4 28320.3 -7.41529 