ITEM: TIMESTEP
196
ITEM: NUMBER OF ATOMS
13256
ITEM: BOX BOUNDS pp pp pp
0.0000000000000000e+00 9.9974584899999996e+01
0.0000000000000000e+00 1.7316105999999999e+02
0.0000000000000000e+00 1.8399999999999999e+01
ITEM: ATOMS id type x y z c_csym c_2[1] c_2[2] c_2[3] c_2[4] c_2[5] c_2[6] c_3 
159 1 0.88207 8.57904 7.38696 6.01786 -167505 -147991 -3546.46 -17412.9 12348.5 -3080.35 -7.4138 
160 1 0.149354 7.36537 7.38379 6.02411 -153656 -161994 2418.62 -12115.4 14146.7 -1358.06 -7.41397 
161 1 0.833618 6.12359 7.3812 6.02261 -164076 -151023 -1174.36 -8462.43 8483.61 -2567.48 -7.4137 
162 1 0.100256 4.91026 7.37902 6.02656 -154558 -160487 857.501 -5024.97 8318.61 -911.187 -7.41372 
163 1 0.784073 3.66826 7.37747 6.02589 -161219 -153862 -54.9466 -3148.24 4868.16 -1936.43 -7.41362 
164 1 0.0503216 2.45514 7.37626 6.02854 -156005 -159109 323.984 -1206.57 3682.1 -467.408 -7.4136 
165 1 0.733919 1.21304 7.37566 6.02876 -158759 -156349 258.38 -639.21 1541.13 -1284.65 -7.41357 
166 1 1.72117e-06 2.20647e-06 7.37537 6.03007 -157453 -157502 268.158 11.92 -0.00820021 -0.0434189 -7.41356 
301 1 2.29959 8.5501 7.38765 6.01974 -161680 -154215 2866.29 -14345.2 17095.9 -4056.71 -7.41414 
302 1 2.9839 7.30828 7.38505 6.01999 -172670 -142648 -1075.53 -12068.3 10459.9 -7553.78 -7.41384 
303 1 2.25112 6.09461 7.38185 6.02303 -159688 -155636 871.996 -5564.04 10688.9 -3707 -7.41383 
304 1 2.93496 4.85259 7.38027 6.02367 -166905 -148101 203.428 -5077.43 6685.76 -6317.99 -7.41373 
305 1 2.20156 3.63925 7.37809 6.02564 -158484 -156629 145.695 -232.252 5393.02 -3362.57 -7.41365 
306 1 2.88517 2.39714 7.37747 6.02693 -162046 -153216 473.434 -1360.33 3154.15 -5099.19 -7.41365 
307 1 2.1514 1.18401 7.37626 6.02751 -157876 -157425 147.643 2049.36 1224.51 -3094.05 -7.41359 
442 1 5.13333 8.49379 7.39089 6.01704 -184505 -131166 391.893 -14430.5 12831.1 -13302.4 -7.41412 
443 1 4.40138 7.27962 7.38668 6.01709 -167592 -147942 -215.468 -4839.15 13374.2 -6558.28 -7.41396 
444 1 5.08526 6.03756 7.38508 6.02099 -175626 -139704 1534.77 -5663.06 9089.81 -11610.6 -7.41397 
445 1 4.35243 4.82387 7.38184 6.02147 -163391 -151720 -877.794 2041.19 7411.82 -6399.8 -7.41374 
446 1 5.03607 3.58174 7.38123 6.02465 -167810 -147434 1453.89 -489.694 5363.32 -9859.02 -7.41383 
447 1 4.30263 2.36838 7.37901 6.02438 -160184 -154918 -548.612 5654.48 2549.07 -6299.3 -7.41365 
448 1 4.98623 1.12628 7.37933 6.02545 -160654 -154486 630.998 1724.1 1731.94 -8278.17 -7.41372 
583 1 6.55076 8.46574 7.39346 6.00957 -178904 -136991 -2818.86 -2662.61 16137.6 -9287.94 -7.41408 
584 1 7.2347 7.22364 7.39191 6.01701 -187651 -128157 4422.03 -4541.74 11831.2 -17657.4 -7.41436 
585 1 6.5027 6.00942 7.38763 6.01543 -171463 -143817 -3187.95 6004.82 9702.35 -9546.79 -7.41384 
586 1 7.18638 4.76726 7.38703 6.02191 -176678 -138877 3730.4 2203.51 8112.77 -15585.4 -7.41415 
587 1 6.45352 3.55352 7.38375 6.01999 -165262 -149938 -2290.61 11065.3 4131.63 -9744.18 -7.41374 
588 1 7.13715 2.31141 7.3841 6.02282 -166706 -148852 2057.23 5683.93 4322 -13554.4 -7.41397 
589 1 6.4037 1.09801 7.38184 6.02213 -159747 -155367 -682.984 13081.2 -496.198 -10066.9 -7.41375 
725 1 8.65209 7.19638 7.39534 6.00798 -182916 -132670 -7147.2 11805.5 11989 -12460.3 -7.41392 
727 1 8.60379 4.73989 7.3905 6.0147 -173455 -141786 -5489.42 18587.8 5892.65 -13181.4 -7.41382 
729 1 8.55459 2.28396 7.38761 6.01834 -165074 -150366 -2817.57 21918.6 587.47 -13877 -7.41385 
724 1 9.38298 8.41131 7.40053 6.01003 -202511 -113448 9191.4 -1543.47 14533.1 -23928 -7.41492 
726 1 9.33583 5.95419 7.39479 6.01656 -188765 -127171 7729.54 7100.14 11134.4 -21860.2 -7.41464 
728 1 9.28747 3.49777 7.39089 6.01983 -175749 -140243 4994.82 11963.9 7391.96 -19622.5 -7.41437 
730 1 9.23843 1.04199 7.38894 6.01641 -163184 -152671 1535.04 13800.3 3444.42 -17458 -7.41413 
865 1 10.8003 8.38522 7.40458 5.99965 -197270 -118538 -12972.5 19209 13892.3 -14700.1 -7.41393 
866 1 11.4841 7.14302 7.40411 6.00973 -203434 -112648 13663.3 14053.4 14066.4 -27976.3 -7.41532 
867 1 10.7532 5.92799 7.39902 6.00765 -184983 -130634 -10450.7 28140.4 7567.05 -16144.5 -7.41386 
868 1 11.4369 4.68586 7.39944 6.01598 -187754 -128621 9788.89 20770.2 10667 -25845.3 -7.41495 
869 1 10.7049 3.47147 7.39525 6.0136 -173457 -142251 -6574.21 33175.9 1754.25 -17396.2 -7.41393 
870 1 11.3888 2.22952 7.39661 6.01202 -172351 -144100 4855.35 23982.4 6871.67 -23542.6 -7.41459 
871 1 10.6559 1.01562 7.39342 6.01543 -162377 -153337 -1941.83 34912.8 -3379.41 -18621.5 -7.41409 
1006 1 13.6311 8.33418 7.41432 6.00202 -219571 -96084.2 21451.6 22577.1 16584.4 -33198.3 -7.41615 
1007 1 12.9014 7.11826 7.40873 6 -199031 -116804 -17287.7 39159.7 8849.57 -18198 -7.41383 
1008 1 13.5853 5.87616 7.40917 6.00943 -201929 -114402 16526.9 31584.6 13812.8 -31447.6 -7.4157 
1009 1 12.8543 4.66102 7.40434 6.00829 -184820 -131177 -12194.1 46388.4 2790.37 -20122.9 -7.41394 
1010 1 13.5383 3.41911 7.40567 6.00779 -184175 -132645 10137 36578.1 10426.1 -29294 -7.41523 
1011 1 12.8062 2.20461 7.40175 6.01181 -170933 -145335 -5962.88 49804 -2761.41 -21853.4 -7.41417 
1012 1 13.4906 0.963008 7.40397 6.00289 -166272 -150660 2914.77 38134.2 6583.58 -26907.1 -7.41478 
1147 1 15.0483 8.31106 7.41888 5.99258 -214380 -101019 -25836.5 50853.2 9536.23 -19127.5 -7.4137 
1148 1 15.7324 7.06903 7.4193 6.00229 -217073 -98483.9 24987.6 43578.1 16543.5 -35782.3 -7.41658 
1149 1 15.0026 5.85301 7.41415 6.00205 -198233 -117746 -19678.6 60664 3493.83 -21708.9 -7.41387 
1150 1 15.6868 4.61118 7.41539 6.00307 -197761 -118802 17343.7 50868.6 13799.2 -34003.1 -7.41601 
1151 1 14.9556 3.39593 7.41104 6.00851 -182025 -134455 -11945.7 66284.3 -2265.05 -23985.7 -7.41417 
1152 1 15.6402 2.1544 7.41313 5.99779 -177931 -139254 8415.24 54223.3 10449 -31776.4 -7.41543 
1153 1 14.908 0.93979 7.40966 6.00589 -165638 -150969 -3317.23 67982 -7497.28 -26042.7 -7.41458 
1287 1 17.1937 9.50658 7.42873 5.98595 -229419 -84765.1 -35647.2 62093.3 9590.93 -18984.1 -7.41347 
1288 1 17.8781 8.26467 7.42908 5.99513 -231528 -82180.1 34682.5 55698.5 18679 -38502.5 -7.41755 
1289 1 17.1496 7.04771 7.4239 5.99568 -212619 -103121 -28727.8 74847.6 3768.33 -22075.8 -7.4137 
1290 1 17.834 5.806 7.425 5.99749 -211779 -103774 26136.6 65730.5 16739.2 -37205.7 -7.41691 
1291 1 17.104 4.5899 7.42051 6.0046 -194851 -121617 -19773.4 83130.2 -1993.4 -24823.5 -7.41407 
1292 1 17.7887 3.34848 7.42241 5.99355 -190958 -125824 15819 71354.7 14051 -35325.6 -7.41622 
1293 1 17.0575 2.13313 7.41872 6.00161 -176603 -140219 -9445.36 86986 -7362.23 -27267 -7.41456 
1294 1 17.7428 0.892125 7.42138 5.98753 -169229 -148004 4441.3 72896 10744.7 -32952.9 -7.41553 
1428 1 20.0223 9.46314 7.43795 5.9886 -244139 -66526 44986.5 67064.7 20146.1 -39589.7 -7.41854 
1429 1 19.2952 8.24522 7.43294 5.99022 -226079 -88111.9 -38789.7 87883.3 3645.54 -21385.3 -7.41344 
1430 1 19.98 7.00368 7.43382 5.99252 -225098 -88479.8 35957.8 79951.7 19087.4 -38764 -7.41787 
1431 1 19.2512 5.78668 7.42944 6.00033 -207886 -107726 -29030.6 99099.4 -1961.92 -24441.5 -7.41386 
1432 1 19.9362 4.54542 7.43108 5.98899 -204281 -111316 24702.1 88255.9 17169.2 -37310.5 -7.4171 
1433 1 19.206 3.32925 7.42743 5.99818 -188771 -127736 -17400.8 105608 -7333.14 -27170.2 -7.41443 
1434 1 19.8915 2.08838 7.42981 5.9831 -182191 -134717 11870.8 92033.9 14535.4 -35268.2 -7.41629 
1435 1 19.1602 0.872928 7.42692 5.99132 -168814 -147867 -4662.37 107438 -12180.9 -29596.3 -7.4151 
1569 1 21.4394 9.44548 7.44084 5.986 -237783 -74164.8 -49209.4 98864.8 3236.17 -19927.5 -7.41312 
1570 1 22.1246 8.20418 7.44147 5.98744 -236204 -74297.5 46177.8 92569.7 20780.7 -38819.8 -7.41883 
1571 1 21.3971 6.98628 7.4373 5.99584 -220225 -94146.6 -39102.9 113133 -2113.71 -23101.5 -7.41357 
1572 1 22.0825 5.74523 7.43865 5.98394 -216520 -97065.1 34471.5 103825 19672.7 -37776.2 -7.41801 
1573 1 21.3534 4.52821 7.4352 5.9957 -201106 -114615 -26677.8 122556 -7383.82 -25966.9 -7.41419 
1574 1 22.0392 3.28751 7.43727 5.97988 -195002 -120642 20716.5 110237 17768.5 -36125.8 -7.41712 
1575 1 21.3088 2.07128 7.43456 5.98743 -180854 -135505 -12623.6 126981 -12235.3 -28527.1 -7.41493 
1576 1 21.9952 0.831038 7.43724 5.97342 -171943 -144709 5671.5 111947 15144.3 -33915.6 -7.4162 
1710 1 24.268 9.40732 7.44783 5.98264 -244546 -62160.9 56241.1 102940 21827.9 -37672.6 -7.41975 
1711 1 23.5417 8.18857 7.44388 5.99131 -230299 -81785.8 -49350.4 124471 -2356.17 -21127.9 -7.41324 
1712 1 24.2275 6.94778 7.44492 5.97991 -226757 -84053.8 44520.6 117108 21516.1 -36963 -7.41891 
1713 1 23.4996 5.72992 7.4417 5.99257 -212241 -102044 -36640.3 136903 -7455.76 -23982.2 -7.41387 
1714 1 24.1857 4.48945 7.44346 5.97617 -206753 -107093 30374.8 126384 20350.2 -35689.4 -7.41797 
1715 1 23.4564 3.27241 7.44101 5.98466 -192636 -122945 -21835.7 144192 -12261.2 -26557.3 -7.41466 
1716 1 24.1431 2.03235 7.4434 5.97043 -184829 -130863 14450.6 130703 18415.2 -33860.4 -7.41697 
1717 1 23.4126 0.81605 7.44163 5.977 -171607 -144083 -5740.2 146245 -16477.6 -28856.7 -7.41556 
1851 1 25.6851 9.39333 7.44921 5.9878 -237591 -71389.8 -59250.5 132815 -2605.73 -18815.7 -7.41288 
1852 1 26.3715 8.15285 7.44994 5.97692 -233997 -73080 54349.9 127610 22720.8 -35186.8 -7.41977 
1853 1 25.6447 6.93422 7.44691 5.98923 -221309 -90892 -46687.2 148133 -7489.22 -21540.9 -7.41351 
1854 1 26.3312 5.694 7.44836 5.97233 -216260 -94905.6 40270.6 139817 22266 -34230.6 -7.41881 
1855 1 25.6029 4.4762 7.44613 5.98292 -203170 -111041 -31669.4 158380 -12212.1 -24027.4 -7.41431 
1856 1 26.2899 3.23634 7.44824 5.96857 -196299 -117704 24019.7 146905 21006.7 -32767.5 -7.41776 
1857 1 25.5604 2.01929 7.44676 5.9742 -183411 -131758 -14879 163248 -16444.8 -26268.4 -7.41525 
1858 1 26.2479 0.779881 7.44936 5.96236 -174289 -141035 6366.56 148935 18971.2 -30830.1 -7.41667 
1992 1 28.5144 9.36017 7.45395 5.97496 -238184 -64697.7 63617.5 135170 23348.2 -32751.5 -7.42057 
1993 1 27.7886 8.14082 7.45099 5.98679 -227480 -81854.9 -56363.7 156079 -7439.27 -18903.7 -7.41314 
1994 1 28.4757 6.90091 7.45216 5.96958 -223135 -84908.5 49951.9 150148 23556.1 -32037.4 -7.41961 
1995 1 27.7484 5.68239 7.45004 5.98132 -211476 -100822 -41572.8 169165 -12050.3 -21227.2 -7.41392 
1996 1 28.4357 4.44278 7.4519 5.96587 -205697 -106138 33834.9 160105 22937 -30891.4 -7.41854 
1997 1 27.7071 3.22502 7.45061 5.97247 -193629 -120385 -24626.3 176942 -16288.7 -23343.3 -7.41486 
1998 1 28.395 1.98579 7.453 5.9607 -185955 -128110 15897.2 164858 21531.6 -29318.4 -7.4174 
1999 1 27.6653 0.768718 7.4524 5.96477 -173981 -140282 -6320.08 179227 -19878.7 -25250.2 -7.41591 
2133 1 29.9315 9.34946 7.45423 5.98522 -230597 -75111.6 -65386.6 160851 -7282.59 -16252.2 -7.41277 
2134 1 30.6192 8.10988 7.45516 5.96782 -226726 -77248.9 59120.4 157356 24293.4 -29360.8 -7.42036 
2135 1 29.8928 6.89073 7.45302 5.97894 -217088 -92587.4 -51143.7 176606 -11755.1 -18366 -7.41352 
2136 1 30.5806 5.65139 7.45465 5.96333 -212216 -96659.4 43481.3 170079 24268.3 -28470.3 -7.41929 
2137 1 29.8529 4.43298 7.4534 5.9716 -201695 -110671 -34475.6 187204 -15983.6 -20314.1 -7.41443 
2138 1 30.5411 3.19395 7.4556 5.95908 -195298 -116854 25706.5 177647 23452.9 -27217.6 -7.41814 
2139 1 29.8123 1.97623 7.45515 5.96317 -184354 -129174 -16035.7 192365 -19662.5 -22085.2 -7.41549 
2140 1 30.501 0.737594 7.4577 5.95382 -176045 -137496 6547.46 180012 21844.6 -25630.4 -7.41695 
2274 1 32.7619 9.3206 7.45773 5.96698 -227196 -72252.9 67614.4 161560 24561.8 -26394.9 -7.42105 
2275 1 32.0363 8.1009 7.45543 5.97746 -219583 -86748.2 -60139.9 180811 -11320.6 -15576.6 -7.41313 
2276 1 32.7247 6.86186 7.45686 5.96178 -215816 -89556.7 52689.3 176901 25081.2 -25699.5 -7.42 
2277 1 31.9978 5.64288 7.45548 5.97138 -206896 -103024 -44067.4 194118 -15516.8 -17331.1 -7.414 
2278 1 32.6864 4.40409 7.45751 5.95804 -202012 -107718 35412.3 187217 24810 -24713.7 -7.41885 
2279 1 31.9583 3.18578 7.45702 5.9624 -192311 -119799 -25911.5 202103 -19278.5 -18943.7 -7.41502 
2280 1 32.6473 1.94731 7.45943 5.95231 -185776 -126437 16393.6 192336 23760 -23445.4 -7.41764 
2281 1 31.9183 0.729588 7.45969 5.95529 -175693 -136795 -6430.31 204611 -22360.4 -20408.8 -7.41616 
2415 1 34.1791 9.3126 7.45759 5.97677 -219037 -83327.3 -68447.3 182061 -10752.4 -12935.3 -7.41276 
2416 1 34.8681 8.0739 7.45886 5.96109 -216120 -84997.6 61315.3 180662 25458.2 -22725.5 -7.42067 
2417 1 34.1419 6.85444 7.45722 5.97049 -209276 -97756.4 -53181.3 197861 -14887.7 -14481.6 -7.41358 
2418 1 34.8309 5.61591 7.45908 5.95683 -205619 -100977 44768.3 193659 25686.5 -21954.1 -7.41954 
2419 1 34.1036 4.39708 7.45837 5.96227 -197625 -112541 -35616.4 208574 -18714.7 -15922.5 -7.41455 
2420 1 34.7929 3.1588 7.46065 5.9516 -192669 -117513 26210.9 201530 25149.4 -20956.5 -7.41833 
2421 1 34.0646 1.94055 7.46079 5.95464 -183963 -127624 -16369.1 213922 -21957.2 -17242.8 -7.41566 
2422 1 34.7543 0.702569 7.46324 5.94712 -177166 -134364 6362.77 204223 23827.4 -19755.8 -7.41709 
2557 1 36.2852 8.06734 7.45895 5.96991 -208462 -94866 -61706.8 198658 -14103.4 -11811.1 -7.41318 
2559 1 36.2481 5.60984 7.45959 5.9626 -199901 -107628 -44943.4 211967 -17969.2 -13071.4 -7.41409 
2561 1 36.2101 3.15307 7.46155 5.9546 -189430 -120683 -26225.2 220071 -21360.6 -14240.4 -7.41516 
2563 1 36.1716 0.697002 7.46451 5.94844 -176712 -133791 -6266.35 222784 -24062.5 -15309.1 -7.41633 
2556 1 37.0108 9.28719 7.46096 5.96123 -213285 -82965.8 69305 181574 25472.8 -19648.7 -7.42129 
2558 1 36.9748 6.8291 7.46066 5.95628 -206118 -96693.1 53639.5 197073 26161.1 -19046.8 -7.42019 
2560 1 36.9378 4.37178 7.4617 5.95102 -196608 -111009 35770.7 207637 26093.9 -18273.1 -7.41899 
2562 1 36.9001 1.91523 7.46386 5.9465 -184600 -125688 16288.9 213077 25265.8 -17337.7 -7.41775 
2697 1 38.428 9.28128 7.4609 5.97008 -204696 -94497.4 -69606.5 196649 -13176.8 -9340.4 -7.41281 
2698 1 39.1182 8.04336 7.46248 5.95651 -203423 -94946 61967.7 197614 26298.5 -16063.9 -7.4208 
2699 1 38.392 6.82377 7.46096 5.96327 -199178 -105134 -53781.6 212421 -17046.4 -10412.7 -7.41366 
2700 1 39.0822 5.58594 7.46292 5.95075 -197349 -106929 44945.2 210791 26664.5 -15474.4 -7.41964 
2701 1 38.355 4.36686 7.46233 5.95502 -191925 -116027 -35802.7 223216 -20565.5 -11423.9 -7.41466 
2702 1 39.0453 3.12919 7.46447 5.9462 -188896 -119346 26054.6 218940 26288.6 -14762.6 -7.4184 
2703 1 38.3173 1.91056 7.46475 5.94847 -182625 -127050 -16255.9 228722 -23483.7 -12356.7 -7.41579 
2704 1 39.0078 0.673095 7.46688 5.94292 -177787 -131892 5986.62 221947 25143.8 -13945.7 -7.41716 
2838 1 41.2612 9.2584 7.4647 5.95736 -197662 -95638.2 69739 195427 26147.5 -13047.4 -7.42139 
2839 1 40.5355 8.03857 7.4627 5.96373 -195400 -105086 -62081.8 210148 -15955.7 -7954.39 -7.41325 
2840 1 41.2261 6.801 7.4645 5.95077 -194979 -105412 53670.4 211087 26918 -12611.2 -7.42026 
2841 1 40.4994 5.58165 7.46338 5.95574 -191364 -113885 -44987.3 223493 -19572.3 -8800.36 -7.41418 
2842 1 41.19 4.34416 7.46535 5.94597 -190086 -115527 35535.2 221926 26959 -12087.8 -7.41904 
2843 1 40.4625 3.12522 7.46513 5.94893 -185440 -122720 -26062.6 231732 -22693.2 -9592 -7.41525 
2844 1 41.1532 1.88786 7.46707 5.94286 -182638 -125828 15910.4 227655 26256.1 -11485.8 -7.41779 
2845 1 40.4251 0.669279 7.46767 5.94389 -177224 -131585 -5986.79 234709 -25125.7 -10318.7 -7.41643 
2979 1 42.6785 9.25395 7.46487 5.96419 -188724 -107366 -69828.3 205289 -14710.9 -5696.56 -7.41287 
2980 1 43.3697 8.01667 7.46655 5.9511 -189409 -106269 61916.9 208710 26897.4 -9710.74 -7.42085 
2981 1 42.6434 6.79713 7.46489 5.9562 -187761 -114091 -53718.6 221076 -18386.7 -6370.09 -7.41373 
2982 1 43.3344 5.55985 7.46668 5.94594 -187970 -114149 44660.2 222127 27328.2 -9348.08 -7.41966 
2983 1 42.6072 4.34069 7.46587 5.94967 -185181 -120794 -35572.2 231966 -21688.1 -7012.75 -7.41474 
2984 1 43.2982 3.10347 7.46762 5.94262 -184197 -122188 25650.2 230575 27033.2 -8930.2 -7.41842 
2985 1 42.5704 1.88463 7.46766 5.94436 -180527 -127539 -15956.4 237729 -24382.9 -7608.17 -7.41587 
2986 1 43.2615 0.647523 7.4692 5.94075 -177833 -130343 5559.32 233944 25983.4 -8468.03 -7.41717 
3121 1 44.7871 8.01304 7.46689 5.95673 -181150 -116676 -61968 216087 -17017.4 -4129.49 -7.41331 
3123 1 44.7516 5.5567 7.46712 5.95012 -181761 -121332 -44719 229523 -20468.5 -4614.32 -7.41425 
3124 1 45.4429 4.31964 7.46866 5.94254 -182591 -121051 35131.4 230769 27519.2 -6301.45 -7.41905 
3125 1 44.7154 3.10063 7.46808 5.94509 -180585 -125921 -25730 238006 -23413.9 -5070.51 -7.41532 
3126 1 45.4067 1.86361 7.46941 5.94071 -179919 -127004 15475.8 236868 26871.9 -6013.5 -7.41779 
3127 1 44.6788 0.644823 7.46964 5.94127 -177180 -130451 -5662.94 241306 -25674.5 -5488.58 -7.4165 
3120 1 45.5132 9.23268 7.46905 5.95177 -180986 -109545 69667.6 203773 26630.9 -6781.2 -7.42141 
3122 1 45.4785 6.77599 7.46852 5.94624 -182821 -115228 53386.1 219645 27432.7 -6559.33 -7.42027 
3261 1 46.9306 9.22909 7.46933 5.95753 -171790 -121476 -69713.7 208601 -15477 -2073.84 -7.41293 
3262 1 47.6226 7.99231 7.47083 5.94688 -174588 -118575 61679.8 214553 27297.7 -3722.2 -7.42085 
3263 1 46.8958 6.77297 7.46889 5.95068 -175393 -124184 -53456.6 224519 -19037.6 -2391.7 -7.41379 
3264 1 47.5875 5.5361 7.47025 5.94279 -177800 -122373 44299.1 228263 27747.8 -3606.19 -7.41966 
3265 1 46.8602 4.31701 7.46905 5.9455 -177551 -126783 -35232.7 235611 -22212.7 -2698.77 -7.41479 
3266 1 47.5516 3.0801 7.47016 5.94056 -178768 -126145 25234.6 237103 27477.9 -3471.97 -7.41841 
3267 1 46.8239 1.8612 7.46974 5.94198 -177689 -129166 -15605.7 241671 -24778.6 -2981.28 -7.41592 
3268 1 47.5153 0.624308 7.47052 5.94019 -177169 -129870 5154.55 240856 26460.3 -3327.01 -7.41717 
3402 1 49.7667 9.20854 7.47348 5.94789 -163583 -124354 69501.6 206895 26938.1 -826.428 -7.4214 
3403 1 49.04 7.98923 7.47112 5.95152 -166150 -129432 -61746.7 216910 -17401.8 -340.932 -7.41336 
3404 1 49.7321 6.75257 7.47232 5.94338 -169917 -126038 53102.7 223127 27742.5 -839.797 -7.42025 
3405 1 49.0048 5.53349 7.47056 5.94605 -171421 -129987 -44408.6 230600 -20775.3 -487.066 -7.41429 
3406 1 49.6965 4.29672 7.47147 5.94073 -174377 -127725 34771.3 234639 27831.9 -843.496 -7.41903 
3407 1 48.9689 3.0778 7.47041 5.94234 -175033 -130372 -25378.2 239374 -23637.4 -622.595 -7.41536 
3408 1 49.6604 1.84097 7.47096 5.93992 -176558 -129393 15088.1 241148 27187.3 -843.418 -7.41778 
3409 1 48.9326 0.622133 7.47067 5.94033 -176438 -130546 -5318.59 243025 -25814.1 -740.225 -7.41654 
3543 1 51.1842 9.20522 7.47361 5.95269 -154250 -137040 -69545.7 206783 -15570.1 1538.44 -7.41296 
3544 1 51.8768 7.96879 7.47471 5.94433 -159068 -132132 61484.8 215360 27515.4 2010.9 -7.42083 
3545 1 51.1495 6.74981 7.47251 5.9469 -162371 -135692 -53204.8 222991 -19099.4 1566.91 -7.41382 
3546 1 51.8415 5.5132 7.47326 5.94123 -166903 -131815 44023.1 229519 27954.5 1880.11 -7.41963 
3547 1 51.1139 4.29434 7.47163 5.94285 -169228 -134035 -34916.6 234423 -22238.1 1592.28 -7.41482 
3548 1 51.8056 3.05759 7.47197 5.93956 -172651 -131378 24899.3 238770 27665.7 1748.32 -7.41839 
3549 1 51.0777 1.8388 7.47103 5.94061 -174261 -132165 -15256.2 240820 -24762.1 1625.13 -7.41595 
3550 1 51.7692 0.601974 7.47095 5.93963 -175962 -130804 4794.4 242930 26624.8 1607.65 -7.41714 
3684 1 54.0217 9.1845 7.47715 5.94569 -145637 -140674 69365.6 205029 27069.5 4965.35 -7.42137 
3685 1 53.2943 7.96568 7.4747 5.94809 -150529 -143824 -61554.9 212776 -17186.1 3459.03 -7.41337 
3686 1 53.9867 6.72926 7.47533 5.94176 -156385 -138337 52913.4 221734 27858.2 4713.18 -7.42022 
3687 1 53.2589 5.51055 7.47327 5.94365 -160460 -140226 -44150.4 226832 -20569.2 3662.92 -7.41431 
3688 1 53.9509 4.27392 7.47343 5.93952 -165571 -135867 34513.9 233729 27914.9 4458.1 -7.419 
3689 1 53.2229 3.05525 7.47193 5.94104 -168838 -136241 -25057.4 235951 -23434.2 3863.18 -7.41538 
3690 1 53.9145 1.81847 7.47163 5.9392 -172535 -133194 14770.8 240640 27223.3 4191.36 -7.41775 
3691 1 53.1865 0.599753 7.47081 5.94015 -175137 -132052 -4957.44 239946 -25604.4 4064.65 -7.41656 
3825 1 55.4393 9.18086 7.47683 5.94966 -136305 -154402 -69369.4 200007 -15040.8 5175.71 -7.41296 
3826 1 56.1322 7.94466 7.47741 5.9426 -143191 -147262 61335.9 211344 27545.5 7675.2 -7.42079 
3827 1 55.4042 6.72617 7.4751 5.94481 -148798 -148819 -52997.1 216613 -18621.3 5579.93 -7.41382 
3828 1 56.0965 5.48969 7.47515 5.93986 -155494 -142791 43835.8 225978 27946.6 7300.72 -7.4196 
3829 1 55.3683 4.27122 7.47322 5.94178 -160356 -142854 -34643 228404 -21808.4 5969.17 -7.41483 
3830 1 56.06 3.0345 7.47275 5.93908 -165982 -138054 24644.6 235679 27593.8 6914.27 -7.41835 
3831 1 55.3318 1.81597 7.47137 5.94024 -170161 -136547 -14912.6 235171 -24369 6350.49 -7.41596 
3832 1 56.0232 0.579077 7.47044 5.94027 -174149 -133114 4475.07 240219 26469.4 6503.39 -7.4171 
3966 1 58.2781 9.15914 7.47912 5.94397 -127647 -158540 69138.6 198318 27009.1 10788.9 -7.42131 
3967 1 57.5498 7.94094 7.47681 5.94639 -134665 -159829 -61338.3 203733 -16388.9 7322.1 -7.41336 
3968 1 58.2425 6.70463 7.4768 5.94068 -142611 -152073 52733.2 215526 27762.5 10294.7 -7.42017 
3969 1 57.514 5.48644 7.47464 5.94289 -149016 -151900 -43909.4 218167 -19863.4 7926.79 -7.4143 
3970 1 58.2059 4.24982 7.47405 5.93938 -156333 -145354 34304.8 227970 27746.1 9790.46 -7.41895 
3971 1 57.4774 3.03155 7.47227 5.94074 -162123 -143551 -24746.9 227657 -22811 8513.72 -7.41538 
3972 1 58.1689 1.79467 7.47117 5.9401 -168016 -138346 14497.3 235323 26949.3 9261.87 -7.4177 
3973 1 57.4405 0.57624 7.46995 5.94039 -173253 -134902 -4573.04 232038 -25046.4 9081.57 -7.41656 
4107 1 59.6958 9.1546 7.47801 5.94848 -118415 -173137 -69001.7 188298 -13873.6 8855.31 -7.41294 
4108 1 60.3889 7.91849 7.47801 5.94209 -127451 -163676 61014.9 202392 27359.1 13459.9 -7.4207 
4109 1 59.66 6.70064 7.47587 5.94447 -135084 -163321 -52705.8 205220 -17581.7 9706.23 -7.4138 
4110 1 60.3523 5.46415 7.47522 5.94019 -143959 -154995 43588.3 217487 27684.9 12836.4 -7.41952 
4111 1 59.6234 4.24621 7.47325 5.94179 -151125 -153001 -34335 217385 -20896.8 10529.4 -7.41482 
4112 1 60.315 3.00938 7.47203 5.94037 -158935 -145964 24387 227651 27211.7 12190.3 -7.41828 
4113 1 59.5862 1.79127 7.47044 5.94085 -165585 -142235 -14542.6 224526 -23569.4 11324.2 -7.41595 
4114 1 60.2773 0.554164 7.46877 5.94262 -171740 -136621 4174.26 232610 25930.9 11503.3 -7.41703 
4248 1 62.5358 9.13104 7.47838 5.9442 -110327 -177480 68421.4 186634 26731.1 16808.4 -7.42118 
4249 1 61.8066 7.91358 7.47651 5.94661 -119063 -176965 -60821.4 189574 -14951.9 11263.9 -7.41334 
4250 1 62.4992 6.67724 7.47587 5.94164 -129124 -166803 52266 204212 27410 16066.3 -7.42006 
4251 1 61.7698 5.4597 7.47395 5.9435 -137551 -164716 -43498.8 204333 -18594.5 12357.8 -7.41428 
4252 1 62.4616 4.22294 7.47267 5.94119 -147018 -155849 33954.5 217094 27262.8 15301 -7.41885 
4253 1 61.7324 3.00522 7.47093 5.94188 -155083 -151970 -24348.1 214187 -21702.3 13413.8 -7.41535 
4254 1 62.4235 1.76811 7.46914 5.94289 -163145 -144539 14182.4 224878 26286.3 14495.3 -7.4176 
4255 1 61.6946 0.550112 7.46783 5.94242 -170817 -138911 -4151.77 218968 -24076.4 14418.5 -7.41653 
4389 1 63.9537 9.125 7.47618 5.94941 -101310 -192628 -67968.7 171398 -11971.7 12542.3 -7.41293 
4390 1 64.6466 7.88885 7.47561 5.94388 -112522 -180679 60030.5 188197 26923.7 19481.3 -7.42053 
4391 1 63.9168 6.67175 7.47398 5.94599 -121756 -178599 -51981.8 188491 -15879.1 13944.3 -7.41377 
4392 1 64.6088 5.4351 7.4727 5.94273 -132790 -167846 42931.5 203635 27108.4 18599.4 -7.41938 
4393 1 63.8791 4.21783 7.47105 5.94363 -141889 -163966 -33777.2 200956 -19399.2 15298.2 -7.41478 
4394 1 64.5703 2.98074 7.4692 5.94377 -151841 -154637 23928.3 214194 26435 17673.7 -7.41815 
4395 1 63.8408 1.76319 7.46778 5.94345 -160714 -148842 -14066.9 208451 -22262 16590.6 -7.41591 
4396 1 64.5314 0.525723 7.46556 5.94699 -168928 -141091 3845.39 219540 24906.7 16683.3 -7.41691 
4530 1 66.7947 9.09874 7.47413 5.94704 -94659.1 -196344 66499.2 169606 26243 23047.1 -7.42091 
4531 1 66.0645 7.88212 7.47298 5.94912 -104462 -194395 -59443.5 169979 -12735.9 15219.2 -7.41332 
4532 1 66.7567 6.6456 7.47176 5.94513 -116697 -181727 50960.3 187314 26761.8 22067.6 -7.41983 
4533 1 66.0265 5.42882 7.47041 5.94625 -126620 -178005 -42530.2 184858 -16619.7 16909.2 -7.41424 
4534 1 66.7178 4.19179 7.46857 5.94543 -138171 -166762 33102.5 200467 26390 21028.3 -7.41866 
4535 1 65.9877 2.97474 7.46727 5.94528 -148106 -161028 -23659.3 194956 -19966.2 18527.1 -7.4153 
4536 1 66.6783 1.73725 7.46499 5.94797 -158188 -151374 13671.2 208603 25132.9 19917 -7.41744 
4537 1 65.9487 0.519817 7.464 5.94657 -167951 -143615 -3683.35 200036 -22561.3 20040.4 -7.41647 
4671 1 68.2127 9.09058 7.47073 5.95249 -86126.8 -211655 -65470 149009 -9161.87 16095.8 -7.41293 
4672 1 68.9053 7.85422 7.46959 5.94856 -99633.7 -197056 57609.4 168258 26250.4 25639.6 -7.42019 
4673 1 68.1745 6.63796 7.46871 5.94948 -109694 -193679 -50215.3 165968 -13335.7 18160.9 -7.41375 
4674 1 68.866 5.40101 7.4669 5.94805 -122814 -180437 41303.1 183742 26173 24513.2 -7.41909 
4675 1 68.1354 4.1845 7.46592 5.94806 -133260 -175015 -32586.7 178498 -17134.6 20140.8 -7.41472 
4676 1 68.8259 2.947 7.46362 5.94979 -145232 -163440 22954 194485 25177.7 23293 -7.41792 
4677 1 68.0957 1.73013 7.46279 5.94851 -155834 -155846 -13351.7 186191 -20269 22004.5 -7.41582 
4678 1 68.7854 0.492152 7.46024 5.95383 -165948 -146104 3439.91 200087 23280.8 21964 -7.41672 
4812 1 71.0546 9.06075 7.46614 5.95317 -82438.7 -213406 62404 146797 25626.6 29174.5 -7.42042 
4813 1 70.3232 7.84501 7.46577 5.95256 -92141.9 -210614 -56361.4 144566 -9536.25 18950.3 -7.41333 
4814 1 71.015 6.60816 7.464 5.9518 -106612 -195344 48049.5 164202 25822 28018.8 -7.41942 
4815 1 70.2837 5.39222 7.46347 5.95082 -117045 -190500 -40402.1 159204 -13726.5 21324.9 -7.4142 
4816 1 70.9744 4.15474 7.46116 5.95268 -130670 -176942 31246.5 177265 25069.8 26724.5 -7.41831 
4817 1 70.2434 2.93846 7.46066 5.95116 -141700 -169813 -22367.4 169288 -17386.1 23570.7 -7.41521 
4818 1 70.9331 1.70043 7.45805 5.95586 -153560 -158124 12768.7 185512 23385 25293.6 -7.41716 
4819 1 70.2028 0.483694 7.45781 5.95336 -164946 -148641 -3163.75 174545 -20291 25633.5 -7.41633 
4953 1 72.4726 9.04978 7.46162 5.95674 -74659.9 -227984 -60468.8 121172 -5233.79 19160.8 -7.413 
4955 1 72.4328 6.59767 7.45978 5.95424 -100253 -206856 -46586.9 137416 -9727.91 21955.1 -7.41374 
4957 1 72.392 4.14456 7.45736 5.95382 -126193 -184920 -30236.2 149589 -13866.7 24604.3 -7.41464 
4959 1 72.3506 1.6904 7.45478 5.95554 -151383 -162473 -12210.7 157205 -17351.7 27059.8 -7.41567 
4954 1 73.1646 7.81306 7.45985 5.95681 -90657.5 -210787 52830.9 142208 25396.8 31349.8 -7.4196 
4956 1 73.1236 5.36025 7.45745 5.95678 -115488 -191222 38024.5 157206 24854.5 30047 -7.4186 
4958 1 73.0817 2.9065 7.45468 5.95901 -139929 -171302 21100.1 167740 23352.7 28558.6 -7.41752 
4960 1 73.0393 0.451765 7.45202 5.96353 -162919 -151078 2949.39 173367 20924 26885.2 -7.41641 
5094 1 75.3149 9.01555 7.45468 5.9632 -76079.1 -225878 55178.2 118397 24973 34227.1 -7.41961 
5095 1 74.5826 7.80068 7.45495 5.95885 -83988.4 -223195 -50615.5 113700 -5160.36 21900.8 -7.41339 
5096 1 75.2736 6.56333 7.45254 5.96222 -100792 -205506 42752.7 134745 24592.1 33006.7 -7.41873 
5097 1 74.5413 5.34823 7.45283 5.95762 -110350 -200431 -36402.9 127481 -9701.26 24956.5 -7.41415 
5098 1 75.2311 4.11015 7.45005 5.96346 -125748 -184836 27874.4 147120 23229.5 31532 -7.41775 
5099 1 74.4992 2.8947 7.45052 5.95853 -136761 -177120 -20087.8 137108 -13734.6 27808 -7.41506 
5100 1 75.1879 1.65598 7.44761 5.96694 -149908 -163870 11302.4 155032 20920.7 29823.9 -7.41672 
5101 1 74.4567 0.440027 7.44844 5.96162 -162017 -153459 -2580.61 142301 -17040.5 30384.6 -7.41607 
5235 1 76.733 9.00115 7.44931 5.9648 -69375 -238592 -52036.5 88836.5 -90.8788 21052 -7.41316 
5236 1 77.4242 7.76387 7.44672 5.96907 -88027.3 -218933 44967.2 110589 24351.1 35283.3 -7.41869 
5237 1 76.6914 6.54931 7.44725 5.96273 -95349.6 -215538 -40331.7 103667 -4932.14 24487.8 -7.41377 
5238 1 77.3812 5.31124 7.44428 5.9693 -112575 -197921 32540.7 124294 23073.7 33905.5 -7.41783 
5239 1 76.6487 4.09639 7.44505 5.96279 -121936 -191796 -26215.3 114853 -9448.71 27706.4 -7.41453 
5240 1 77.3374 2.85761 7.44194 5.97168 -136984 -176729 18067.9 133972 20838.1 32236.9 -7.4169 
5241 1 76.6054 1.64233 7.44308 5.96498 -148073 -167709 -10457.9 121968 -13352.1 30652.3 -7.41542 
5242 1 77.293 0.402922 7.44007 5.97623 -160195 -155392 2391.02 139255 17701.8 30297.9 -7.41595 
5376 1 79.5753 8.96185 7.44047 5.97726 -78270.1 -230183 44371.3 85660.2 24181.2 36560.3 -7.41847 
5377 1 78.8421 7.74773 7.44099 5.96921 -82422.6 -228968 -41611.4 79089.3 335.591 23108.1 -7.41351 
5378 1 79.532 6.50969 7.43774 5.97649 -101464 -209416 34669.1 100122 22939.4 35343.2 -7.41774 
5379 1 78.799 5.29537 7.43862 5.96841 -108335 -205373 -30074 91305.6 -4570.85 26621.6 -7.41411 
5380 1 79.4876 4.05655 7.43523 5.97777 -125020 -188496 22701 111041 20725.8 33783.8 -7.41693 
5381 1 78.7549 2.8419 7.43656 5.96971 -134426 -181451 -16568.9 99906 -9015.03 29866.7 -7.41484 
5382 1 79.4424 1.60239 7.43328 5.98109 -148040 -167545 9165.57 118064 17620.5 31922.3 -7.41609 
5383 1 78.7104 0.387259 7.43517 5.9731 -159538 -157311 -1936.37 104606 -12803.1 32781 -7.41566 
5517 1 80.9933 8.94355 7.43461 5.97704 -72749.4 -239866 -40036.4 54758 5934.09 20827.7 -7.41341 
5518 1 81.6833 7.70552 7.43098 5.98486 -93787.6 -218413 34045.5 75717.2 22855.2 35576.6 -7.41748 
5519 1 80.9499 6.49165 7.43169 5.97539 -97068.5 -216908 -31317.8 67564 746.199 24514.2 -7.41382 
5520 1 81.6385 5.25279 7.42796 5.98508 -115585 -198224 24832 87391 20625.1 34158.5 -7.4168 
5521 1 80.9053 4.03868 7.42925 5.97579 -122009 -193616 -20431.8 77174.9 -4154.53 27933.2 -7.41437 
5522 1 81.5927 2.79908 7.42565 5.98717 -137360 -178179 13816 95580.3 17518.6 32426.4 -7.41608 
5523 1 80.8599 1.5846 7.42759 5.9782 -146655 -170285 -8075.92 83315.8 -8511.37 31057.5 -7.41503 
5524 1 81.5463 0.344367 7.42433 5.99114 -158267 -158322 1731.75 100014 13625.6 30421.9 -7.41536 
5658 1 83.8349 8.89891 7.42464 5.99408 -90078 -223785 30719.6 51978.5 22800.6 34503.1 -7.41709 