ITEM: TIMESTEP
0
ITEM: NUMBER OF ATOMS
13256
ITEM: BOX BOUNDS pp pp pp
0.0000000000000000e+00 9.9974584899999996e+01
0.0000000000000000e+00 1.7316105999999999e+02
0.0000000000000000e+00 1.8399999999999999e+01
ITEM: ATOMS id type x y z c_csym c_2[1] c_2[2] c_2[3] c_2[4] c_2[5] c_2[6] c_3 
159 1 0.814518 8.58664 7.5 6.03193 -145969 -131908 -152590 -483.868 16537.8 -2859.43 -7.41082 
160 1 0.090502 7.36744 7.5 6.03192 -134397 -142290 -151781 182.596 17111.1 -593.484 -7.41088 
161 1 0.784351 6.13083 7.5 6.03193 -142721 -133126 -155071 -484.208 11787.5 -2433.71 -7.41071 
162 1 0.0603347 4.91163 7.5 6.03192 -134676 -140409 -155498 123.814 10784 -435.824 -7.4107 
163 1 0.754184 3.67501 7.5 6.03193 -139967 -134514 -156915 -485.337 7095.97 -2005 -7.41063 
164 1 0.0301673 2.45581 7.5 6.03192 -135523 -138580 -157520 62.8543 5123.87 -238.515 -7.4106 
165 1 0.724016 1.2192 7.5 6.03191 -137735 -136064 -157942 -485.725 2370.7 -1603.52 -7.41058 
166 1 0 0 7.5 6.0319 -136951 -136957 -158133 63.1511 0.0246369 0.0821782 -7.41057 
301 1 2.23238 8.56923 7.5 6.03194 -134491 -143403 -149115 2242.04 20190.2 -4288.32 -7.41102 
302 1 2.92623 7.33261 7.5 6.03194 -144261 -132896 -152659 -1374.74 14329 -8032.07 -7.41083 
303 1 2.20222 6.11341 7.5 6.03194 -134486 -141510 -153683 2039.11 13517.3 -4287.13 -7.41079 
304 1 2.89607 4.8768 7.5 6.03194 -141274 -134197 -155030 -1561 9564.3 -7195.29 -7.41072 
305 1 2.17205 3.6576 7.5 6.03194 -135050 -139645 -156416 1815.16 7530.72 -4282.54 -7.41065 
306 1 2.8659 2.42098 7.5 6.03191 -138793 -135672 -156667 -1751.34 4808.23 -6409.51 -7.41064 
307 1 2.14188 1.20178 7.5 6.03191 -136198 -137975 -157603 1640.6 2160.66 -4288.8 -7.41059 
442 1 5.06811 8.53439 7.5 6.03194 -145923 -133125 -148375 -2054.65 17264.1 -14107.6 -7.41104 
443 1 4.3441 7.31519 7.5 6.03194 -134628 -143038 -151156 4098.02 16312.5 -8102.63 -7.41091 
444 1 5.03795 6.07858 7.5 6.03194 -142744 -134330 -151433 -2422.3 12436.2 -12891.2 -7.4109 
445 1 4.31393 4.85938 7.5 6.03194 -134911 -141144 -154504 3727.52 9952.55 -8274.54 -7.41074 
446 1 5.00778 3.62276 7.5 6.03194 -140048 -135710 -153838 -2803.08 7602.85 -11715.6 -7.41078 
447 1 4.28376 2.40356 7.5 6.03191 -135746 -139311 -156158 3323.69 4245.17 -8485.84 -7.41066 
448 1 4.97761 1.16695 7.5 6.03191 -137891 -137372 -155397 -3250.03 2694.56 -10649.5 -7.4107 
583 1 6.48598 8.51697 7.5 6.03194 -135000 -144966 -148097 6269.04 19162.1 -11915.2 -7.41105 
584 1 7.17983 7.28036 7.5 6.03194 -144336 -134912 -145845 -3049.76 15675.8 -19104.1 -7.41118 
585 1 6.45581 6.06116 7.5 6.03194 -135017 -143060 -151965 5776.25 12437.8 -12294 -7.41086 
586 1 7.14966 4.82454 7.5 6.03194 -141458 -136196 -149167 -3620.79 10779.5 -17587.2 -7.41102 
587 1 6.42564 3.60535 7.5 6.03194 -135577 -141181 -153992 5220.91 6345.1 -12707.8 -7.41076 
588 1 7.11949 2.36873 7.5 6.03191 -139063 -137665 -151729 -4203.63 5807.52 -16156.4 -7.41088 
589 1 6.39548 1.14953 7.5 6.03191 -136696 -139498 -154457 4685.49 834.782 -13201.8 -7.41074 
725 1 8.59769 7.26294 7.5 6.03194 -135347 -145345 -148967 7926.48 14965.3 -16310.2 -7.41099 
727 1 8.56753 4.80713 7.5 6.03194 -135647 -143451 -151275 7244.99 8497.09 -16969.6 -7.41088 
729 1 8.53736 2.35131 7.5 6.03191 -136462 -141613 -151870 6490.66 2609.78 -17688.5 -7.41086 
724 1 9.32171 8.48214 7.5 6.03194 -145998 -135930 -138032 -3428.17 19163.6 -25715.5 -7.41158 
726 1 9.29154 6.02633 7.5 6.03194 -142991 -137109 -142389 -4182.38 14283.7 -23964.2 -7.41136 
728 1 9.26138 3.57051 7.5 6.03194 -140431 -138473 -146089 -4964.71 9270.69 -22233.6 -7.41117 
730 1 9.23121 1.1147 7.5 6.03191 -138378 -140129 -148910 -5815.12 4097.13 -20617.3 -7.41102 
865 1 10.7396 8.46472 7.5 6.03194 -135860 -147910 -145683 10123 17441.6 -20178.5 -7.41114 
866 1 11.4334 7.22811 7.5 6.03194 -144600 -138417 -133304 -4475.09 17980.2 -30649.7 -7.41183 
867 1 10.7094 6.00891 7.5 6.03194 -135935 -146040 -148174 9353.61 10668.2 -21167.3 -7.41102 
868 1 11.4033 4.77229 7.5 6.03194 -141919 -139678 -138237 -5449.91 13011.7 -28739.6 -7.41158 
869 1 10.6792 3.55309 7.5 6.03194 -136501 -144183 -148811 8468.55 4418.37 -22161.6 -7.411 
870 1 11.3731 2.31648 7.5 6.03191 -139676 -141129 -142405 -6446.16 7842.35 -26860.8 -7.41135 
871 1 10.6491 1.09728 7.5 6.03191 -137580 -142515 -147863 7564.41 -1317.8 -23219.6 -7.41106 
1006 1 13.5753 8.42989 7.5 6.03194 -146230 -140064 -121810 -4501.78 21669.9 -37329 -7.41243 
1007 1 12.8513 7.21069 7.5 6.03194 -136397 -148832 -144866 11481.8 12759.1 -25092.2 -7.41117 
1008 1 13.5451 5.97407 7.5 6.03194 -143488 -141220 -128018 -5648.36 16883.8 -35401 -7.41211 
1009 1 12.8211 4.75488 7.5 6.03194 -136749 -147013 -145452 10508.7 6218.3 -26445.6 -7.41115 
1010 1 13.515 3.51826 7.5 6.03194 -141137 -142560 -133606 -6843.28 11810.6 -33388.5 -7.41181 
1011 1 12.791 2.29906 7.5 6.03191 -137555 -145232 -144312 9409.71 158.287 -27792.9 -7.41122 
1012 1 13.4848 1.06244 7.5 6.03191 -139231 -144185 -138317 -8107.15 6469.79 -31390.6 -7.41155 
1147 1 14.9932 8.41247 7.5 6.03194 -136973 -151667 -141552 13540.9 14623.5 -28470.6 -7.41131 
1148 1 15.687 7.17586 7.5 6.03194 -145086 -143022 -115393 -5568.2 20686.4 -41847.7 -7.41277 
1149 1 14.963 5.95666 7.5 6.03194 -137161 -149954 -141986 12536.5 7909.03 -30279.8 -7.41131 
1150 1 15.6569 4.72004 7.5 6.03194 -142680 -144259 -122412 -6938.13 15846.7 -39863.8 -7.41239 
1151 1 14.9328 3.50084 7.5 6.03194 -137769 -148221 -140569 11350.9 1597.98 -31994.8 -7.4114 
1152 1 15.6267 2.26423 7.5 6.03191 -140636 -145669 -128716 -8340.44 10673.3 -37767 -7.41205 
1153 1 14.9027 1.04503 7.5 6.03191 -138817 -146649 -137565 10095.5 -4274.81 -33665.8 -7.41157 
1287 1 17.1351 9.61425 7.5 6.03194 -137587 -154349 -138453 15423.9 16099.2 -31020.1 -7.41145 
1288 1 17.8289 8.37764 7.5 6.03194 -146652 -144979 -100464 -5237.23 24195.6 -47666.7 -7.41356 
1289 1 17.1049 7.15844 7.5 6.03194 -137672 -152825 -138628 14455.2 9354.73 -33369.6 -7.41145 
1290 1 17.7987 5.92182 7.5 6.03194 -144258 -146121 -108854 -6743.23 19752.6 -45882.7 -7.41311 
1291 1 17.0747 4.70262 7.5 6.03194 -138134 -151222 -136847 13245.6 2903.59 -35534 -7.41157 
1292 1 17.7686 3.46601 7.5 6.03194 -142167 -147418 -116732 -8317.12 14880.5 -43846.6 -7.41268 
1293 1 17.0446 2.24681 7.5 6.03191 -138965 -149613 -133358 11848.4 -3158.08 -37560 -7.41177 
1294 1 17.7384 1.01019 7.5 6.03191 -140433 -148967 -123801 -9958.67 9636.47 -41645.5 -7.41229 
1428 1 19.9708 9.57942 7.5 6.03194 -148119 -146960 -83478.5 -4702.02 27198.8 -52464.9 -7.41446 
1429 1 19.2468 8.36022 7.5 6.03194 -138203 -155419 -135611 16153 10415.6 -35445.8 -7.41159 
1430 1 19.9406 7.1236 7.5 6.03194 -145812 -148026 -93105.3 -6292.89 23318.5 -51034.1 -7.41394 
1431 1 19.2166 5.90441 7.5 6.03194 -138582 -154033 -133382 14990.8 3954.14 -38120.1 -7.41172 
1432 1 19.9104 4.66779 7.5 6.03194 -143734 -149229 -102465 -7995.39 18898.9 -49218.5 -7.41343 
1433 1 19.1864 3.44859 7.5 6.03194 -139290 -152569 -129338 13580.8 -2194.86 -40565.8 -7.41196 
1434 1 19.8803 2.21197 7.5 6.03191 -141917 -150559 -111239 -9736.17 14032.7 -47100.2 -7.41295 
1435 1 19.1563 0.992776 7.5 6.03191 -140341 -151209 -123750 12044.3 -7958.66 -42809 -7.41227 
1569 1 21.3886 9.562 7.5 6.03194 -138673 -157533 -133163 17513.8 10979.8 -36319.9 -7.4117 
1570 1 22.0825 8.32539 7.5 6.03194 -147279 -149840 -75478.9 -5639.43 26354.9 -54960 -7.41488 
1571 1 21.3585 7.10619 7.5 6.03194 -139032 -156447 -130412 16473.4 4636.09 -39521.9 -7.41186 
1572 1 22.0523 5.86957 7.5 6.03194 -145286 -150968 -86155.6 -7414.83 22535.3 -53500.5 -7.4143 
1573 1 21.3283 4.65037 7.5 6.03194 -139679 -155221 -125754 15126.1 -1488.33 -42423.6 -7.41212 
1574 1 22.0222 3.41376 7.5 6.03194 -143483 -152193 -96510.3 -9269.58 18182.2 -51612.9 -7.41374 
1575 1 21.2981 2.19456 7.5 6.03191 -140593 -153920 -119448 13531.1 -7274.87 -45039.8 -7.41248 
1576 1 21.992 0.957942 7.5 6.03191 -141917 -153604 -106204 -11185.7 13372.1 -49363.1 -7.4132 
1710 1 24.2244 9.52717 7.5 6.03194 -148594 -151431 -56409 -4848.78 28718.1 -57404.3 -7.41591 
1711 1 23.5004 8.30797 7.5 6.03194 -139403 -158276 -128161 17581.8 4871.58 -39613.4 -7.41196 
1712 1 24.1942 7.07135 7.5 6.03194 -146759 -152505 -68173.1 -6633.05 25623.9 -56392.5 -7.41527 
1713 1 23.4702 5.85215 7.5 6.03194 -140052 -157367 -122850 16373 -1124.34 -42962.2 -7.41226 
1714 1 24.164 4.61554 7.5 6.03194 -145034 -153654 -79914.4 -8543.37 21909.3 -54854 -7.41463 
1715 1 23.44 3.39634 7.5 6.03194 -140932 -156310 -115794 14858.9 -6843.39 -45965.8 -7.41265 
1716 1 24.1339 2.15972 7.5 6.03191 -143440 -154854 -91276.9 -10490.9 17668.7 -52842.7 -7.414 
1717 1 23.4099 0.940525 7.5 6.03191 -142043 -155279 -107289 13168.9 -12189.3 -48621.8 -7.41313 
1851 1 25.6422 9.50975 7.5 6.03194 -139622 -159372 -126806 18222.3 4637.81 -38397.9 -7.41202 
1852 1 26.3361 8.27313 7.5 6.03194 -148091 -153728 -48989.5 -5719.47 28047.3 -57712.9 -7.4163 
1853 1 25.6121 7.05394 7.5 6.03194 -140328 -158846 -120837 17217.7 -1147.58 -42131.4 -7.41235 
1854 1 26.3059 5.81732 7.5 6.03194 -146516 -154822 -61863.2 -7619.28 25071.4 -56597.6 -7.4156 
1855 1 25.5819 4.59812 7.5 6.03194 -141234 -158113 -113028 15861.1 -6722.55 -45491.3 -7.41279 
1856 1 26.2758 3.36151 7.5 6.03194 -144994 -155935 -74672.2 -9599.77 21501.4 -54928 -7.41489 
1857 1 25.5517 2.14231 7.5 6.03191 -142302 -157228 -103668 14211.8 -11958.3 -48461.3 -7.4133 
1858 1 26.2456 0.905691 7.5 6.03191 -143567 -157144 -87040 -11628.5 17413 -52749.6 -7.41421 
1992 1 28.478 9.47492 7.5 6.03194 -149227 -154548 -29142.3 -4746.02 29745.8 -57411 -7.41738 
1993 1 27.754 8.25572 7.5 6.03194 -140437 -159550 -119865 17579.4 -1548.23 -40012 -7.4124 
1994 1 28.4478 7.0191 7.5 6.03194 -147866 -155609 -42851 -6569.77 27575.3 -56742.7 -7.41663 
1995 1 27.7238 5.7999 7.5 6.03194 -141422 -159196 -111339 16443.3 -6926.36 -43648 -7.41287 
1996 1 28.4176 4.56329 7.5 6.03194 -146481 -156666 -56829.9 -8517.92 24750.2 -55474.5 -7.41586 
1997 1 27.6936 3.34409 7.5 6.03194 -142544 -158624 -101157 14971 -12004.5 -46883.7 -7.41343 
1998 1 28.3875 2.10747 7.5 6.03191 -145077 -157686 -70692.4 -10492.7 21351.6 -53637.6 -7.4151 
1999 1 27.6635 0.888273 7.5 6.03191 -143777 -157995 -89652.7 13290.2 -16678.1 -49693.2 -7.41406 
2133 1 29.8958 9.4575 7.5 6.03194 -140331 -159444 -120006 17412.6 -2261.43 -36799.4 -7.4124 
2134 1 30.5897 8.22088 7.5 6.03194 -149030 -155963 -23415.6 -5467.94 29381.4 -55313.3 -7.41769 
2135 1 29.8657 7.00168 7.5 6.03194 -141430 -159496 -110845 16538.9 -7416.86 -40590 -7.41289 
2136 1 30.5595 5.76507 7.5 6.03194 -147846 -156985 -38250.6 -7319.11 27343.2 -54460 -7.41687 
2137 1 29.8355 4.54587 7.5 6.03194 -142653 -159289 -99914.2 15303.2 -12314.6 -44000.1 -7.41349 
2138 1 30.5294 3.30925 7.5 6.03194 -146567 -157943 -53311.7 -9238.37 24683.8 -53012.3 -7.41604 
2139 1 29.8053 2.09006 7.5 6.03191 -143933 -158857 -87545.5 13757.4 -16825.2 -46993.2 -7.41417 
2140 1 30.4992 0.853439 7.5 6.03191 -145231 -158906 -68187.8 -11190.6 21463.2 -51001.3 -7.41523 
2274 1 32.7316 9.42266 7.5 6.03194 -149962 -155878 -4098.86 -4380.55 30498.6 -52436.2 -7.41874 
2275 1 32.0076 8.20347 7.5 6.03194 -141214 -159028 -111575 16118.4 -8108.83 -36566.3 -7.41286 
2276 1 32.7014 6.96685 7.5 6.03194 -149033 -156882 -19458.9 -6077.36 29257.7 -51972.1 -7.4179 
2277 1 31.9774 5.74765 7.5 6.03194 -142571 -159201 -100018 15155.4 -12827.4 -40026.8 -7.41348 
2278 1 32.6712 4.51104 7.5 6.03194 -147939 -157806 -35391.7 -7880.11 27357.3 -50920.2 -7.41702 
2279 1 31.9472 3.29184 7.5 6.03194 -143979 -159104 -86891.7 13860 -17180.7 -43106.3 -7.4142 
2280 1 32.6411 2.05522 7.5 6.03191 -146675 -158612 -51485.2 -9693.56 24856.1 -49299.1 -7.41614 
2281 1 31.9171 0.836022 7.5 6.03191 -145387 -158881 -72578.9 12350.7 -21066.1 -45767.6 -7.41498 
2415 1 34.1494 9.40525 7.5 6.03194 -140761 -157879 -113466 15192.5 -8884.47 -31879 -7.41277 
2416 1 34.8433 8.16863 7.5 6.03194 -149999 -156385 -967.418 -4859.74 30512.6 -48178.8 -7.41891 
2417 1 34.1193 6.94943 7.5 6.03194 -142257 -158422 -101452 14512.5 -13442.7 -35250 -7.41342 
2418 1 34.8131 5.71282 7.5 6.03194 -149144 -157294 -17432.9 -6491.18 29363.4 -47496.5 -7.41801 
2419 1 34.0891 4.49362 7.5 6.03194 -143820 -158675 -87724.1 13497.8 -17664.8 -38294.7 -7.41416 
2420 1 34.783 3.257 7.5 6.03194 -148051 -158067 -34406.8 -8170.79 27582.9 -46266.7 -7.41707 
2421 1 34.0589 2.0378 7.5 6.03191 -145348 -158655 -72660.7 12189 -21425.1 -40971.5 -7.41498 
2422 1 34.7528 0.801188 7.5 6.03191 -146753 -158772 -51446.3 -9871.18 25208 -44514 -7.41614 
2557 1 36.2612 8.15121 7.5 6.03194 -141705 -157075 -104111 13397.5 -14038.2 -29981.7 -7.41329 
2559 1 36.231 5.6954 7.5 6.03194 -143424 -157660 -89981 12667.5 -18167.1 -32862.8 -7.41405 
2561 1 36.2008 3.23959 7.5 6.03194 -145132 -157948 -74348.2 11643.7 -21849.2 -35439.5 -7.41489 
2563 1 36.1706 0.783771 7.5 6.03191 -146742 -158071 -57645.7 10432.9 -24988.2 -37676.2 -7.4158 
2556 1 36.9852 9.37041 7.5 6.03194 -150713 -155565 16752.6 -3721.97 31156 -43292 -7.41989 
2558 1 36.955 6.9146 7.5 6.03194 -150136 -156469 86.9506 -5138.86 30729 -42931.8 -7.41897 
2560 1 36.9248 4.45878 7.5 6.03194 -149264 -157236 -17423.5 -6634.34 29647.4 -42067.5 -7.41801 
2562 1 36.8947 2.00297 7.5 6.03191 -148084 -157821 -35345.1 -8126.26 27946 -40713.9 -7.41702 
2697 1 38.403 9.353 7.5 6.03194 -140940 -155330 -107813 11867.7 -14489.1 -24517.6 -7.41311 
2698 1 39.0969 8.11638 7.5 6.03194 -150885 -155427 16736.5 -3878.94 31504.4 -37437.5 -7.41989 
2699 1 38.3729 6.89718 7.5 6.03194 -142792 -156211 -93515.8 11400.7 -18564.1 -27115.1 -7.41387 
2700 1 39.0667 5.66057 7.5 6.03194 -150275 -156199 -976.361 -5150.09 31083.2 -36896.5 -7.41891 
2701 1 38.3427 4.44137 7.5 6.03194 -144673 -156795 -77536.4 10660.3 -22221.3 -29475.2 -7.41473 
2702 1 39.0365 3.20475 7.5 6.03194 -149304 -156785 -19434.1 -6449.01 30024.1 -35916.4 -7.4179 
2703 1 38.3125 1.98555 7.5 6.03191 -146449 -157088 -60298.4 9674.87 -25339.1 -31564.2 -7.41567 
2704 1 39.0064 0.748936 7.5 6.03191 -148001 -157256 -38166.4 -7766.29 28341.4 -34519.8 -7.41688 
2838 1 41.2388 9.31816 7.5 6.03194 -151372 -154279 32144.7 -2754.01 31753.1 -31217.1 -7.42074 
2839 1 40.5147 8.09896 7.5 6.03194 -141949 -154508 -98114.5 9758.83 -18737.4 -21320.9 -7.41364 
2840 1 41.2086 6.86235 7.5 6.03194 -151051 -155065 14539.9 -3773.89 31943.1 -30950.1 -7.41977 
2841 1 40.4846 5.64315 7.5 6.03194 -143977 -155353 -82042 9276.12 -22418.8 -23360.9 -7.4145 
2842 1 41.1784 4.40653 7.5 6.03194 -150328 -155673 -4120.64 -4843.29 31482 -30304.8 -7.41875 
2843 1 40.4544 3.18733 7.5 6.03194 -145950 -155900 -64506.4 8569.97 -25579.5 -25197.6 -7.41545 
2844 1 41.1483 1.95072 7.5 6.03191 -149184 -156064 -23385.1 -5901.58 30383.3 -29296.2 -7.41769 
2845 1 40.4242 0.731519 7.5 6.03191 -147752 -156264 -45985.2 7731.46 -28129.6 -26806.8 -7.41646 
2979 1 42.6566 9.30075 7.5 6.03194 -140949 -152739 -103520 7822.94 -18588.7 -15692.3 -7.41337 
2980 1 43.3505 8.06413 7.5 6.03194 -151572 -153944 28785.5 -2549.48 32291.4 -24405.2 -7.42056 
2981 1 42.6265 6.84493 7.5 6.03194 -143076 -153802 -87624 7553.34 -22329.8 -17330 -7.41422 
2982 1 43.3203 5.60831 7.5 6.03194 -151124 -154585 10231.2 -3363.99 32375.5 -24050.2 -7.41954 
2983 1 42.5963 4.38912 7.5 6.03194 -145210 -154579 -70056.8 7097.98 -25588.9 -18824.8 -7.41516 
2984 1 43.2901 3.1525 7.5 6.03194 -150221 -155012 -9234.54 -4190.7 31814.1 -23392.4 -7.41847 
2985 1 42.5661 1.9333 7.5 6.03191 -147193 -155062 -51277.7 6472.38 -28247.3 -20158.1 -7.41618 
2986 1 43.26 0.696685 7.5 6.03191 -148893 -155301 -29120.2 -5047.64 30602.9 -22453 -7.41739 
3121 1 44.7683 8.04671 7.5 6.03194 -142022 -152312 -94007.1 5568.8 -21864.7 -11555.8 -7.41389 
3123 1 44.7382 5.5909 7.5 6.03194 -144268 -153282 -76687.8 5319.53 -25261.3 -12639.4 -7.41482 
3124 1 45.432 4.35428 7.5 6.03194 -151035 -154103 3943.66 -2627.24 32693.4 -16948.9 -7.4192 
3125 1 44.708 3.13508 7.5 6.03194 -146432 -153961 -57923.9 4937.31 -28086.7 -13618.4 -7.41583 
3126 1 45.4019 1.89847 7.5 6.03191 -149901 -154351 -16140.6 -3191.18 31962 -16375.4 -7.4181 
3127 1 44.6778 0.679268 7.5 6.03191 -148381 -154459 -38224.3 4500.38 -30255.8 -14484.7 -7.4169 
3120 1 45.4924 9.26591 7.5 6.03194 -151841 -152938 41477.5 -1509.6 32199.3 -17412 -7.42127 
3122 1 45.4622 6.8101 7.5 6.03194 -151673 -153619 23304.4 -2056.01 32771.9 -17299 -7.42026 
3261 1 46.9102 9.24849 7.5 6.03194 -140885 -151027 -100902 3403.52 -20960.3 -6155.11 -7.41353 
3262 1 47.6041 8.01188 7.5 6.03194 -151974 -152852 34829.2 -954.051 32746.7 -10175.1 -7.4209 
3263 1 46.8801 6.79268 7.5 6.03194 -143175 -152156 -84110.3 3305.95 -24513 -6777.72 -7.41443 
3264 1 47.5739 5.55606 7.5 6.03194 -151607 -153401 15846.8 -1256.45 33092.6 -10083.6 -7.41986 
3265 1 46.8499 4.33686 7.5 6.03194 -145464 -153007 -65648.7 3123.79 -27546.7 -7342.07 -7.41542 
3266 1 47.5437 3.10025 7.5 6.03194 -150734 -153724 -4132.92 -1565.14 32786.3 -9831.72 -7.41876 
3267 1 46.8197 1.88105 7.5 6.03191 -147577 -153573 -45997.9 2863.17 -29945.4 -7846.71 -7.41648 
3268 1 47.5136 0.644434 7.5 6.03191 -149386 -153900 -24606.3 -1926.22 31811.9 -9436.26 -7.41764 
3402 1 49.746 9.21366 7.5 6.03194 -152045 -152328 44580.3 -80.4643 32384.5 -2789.89 -7.42144 
3403 1 49.0219 7.99446 7.5 6.03194 -142001 -151306 -92025.3 1131.39 -23284.8 -1329.67 -7.41401 
3404 1 49.7158 6.75784 7.5 6.03194 -151935 -152950 26210.2 -115.097 33093.8 -2900.5 -7.42043 
3405 1 48.9918 5.53865 7.5 6.03194 -144347 -152304 -74154.1 1097.26 -26547.7 -1434.69 -7.41496 
3406 1 49.6856 4.30203 7.5 6.03194 -151327 -153367 6606.39 -154.924 33152.1 -2917.47 -7.41935 
3407 1 48.9616 3.08283 7.5 6.03194 -146602 -153017 -54844.5 1032.41 -29218.4 -1523.58 -7.416 
3408 1 49.6555 1.84622 7.5 6.03191 -150197 -153544 -13762.3 -199.061 32548.8 -2851.43 -7.41824 
3409 1 48.9314 0.627017 7.5 6.03191 -148621 -153552 -34620.5 1002.36 -31215.5 -1605.74 -7.4171 
3543 1 51.1638 9.19624 7.5 6.03194 -140818 -150799 -100135 -1134.24 -21538.4 3642.51 -7.41357 
3544 1 51.8577 7.95963 7.5 6.03194 -152035 -152755 34806.8 772.26 32790 4495.58 -7.4209 
3545 1 51.1337 6.74043 7.5 6.03194 -143144 -151920 -83133.8 -1074.32 -25031.5 4031.29 -7.41448 
3546 1 51.8275 5.50381 7.5 6.03194 -151678 -153274 15812.7 1001.56 33148.6 4272.83 -7.41985 
3547 1 51.1035 4.28461 7.5 6.03194 -145468 -152765 -64462.4 -991.567 -27997.9 4400.26 -7.41549 
3548 1 51.7973 3.048 7.5 6.03194 -150812 -153565 -4181.02 1227.59 32853.6 4067.31 -7.41876 
3549 1 51.0733 1.8288 7.5 6.03191 -147611 -153324 -44607.2 -888.252 -30325.3 4733.84 -7.41656 
3550 1 51.7672 0.592182 7.5 6.03191 -149467 -153707 -24670.4 1371.58 31884.8 3868.6 -7.41764 
3684 1 53.9996 9.16141 7.5 6.03194 -151949 -152783 41447.3 1395.02 32284.9 11982.1 -7.42126 
3685 1 53.2755 7.94221 7.5 6.03194 -141926 -151879 -92280.1 -3325.33 -22958.3 8996.89 -7.41399 
3686 1 53.9694 6.70559 7.5 6.03194 -151804 -153409 23254.8 1878.23 32877.7 11629 -7.42026 
3687 1 53.2454 5.48639 7.5 6.03194 -144243 -152837 -74538.7 -3145.72 -26226 9858.19 -7.41494 
3688 1 53.9392 4.24978 7.5 6.03194 -151182 -153831 3869.53 2374.86 32822.6 11222.6 -7.4192 
3689 1 53.2152 3.03058 7.5 6.03194 -146474 -153505 -55357.9 -2892.89 -28910.6 10647.6 -7.41597 
3690 1 53.909 1.79396 7.5 6.03191 -150059 -154015 -16243.7 2853.53 32107.7 10756.8 -7.4181 
3691 1 53.185 0.574765 7.5 6.03191 -148476 -153993 -35258.7 -2514.74 -30933.8 11339.3 -7.41706 
3825 1 55.4174 9.14399 7.5 6.03194 -140760 -152167 -101286 -5595.41 -20301.3 13399.9 -7.4135 
3826 1 56.1113 7.90738 7.5 6.03194 -151744 -153698 28739.6 2464.45 32451.6 19010.7 -7.42056 
3827 1 55.3872 6.68818 7.5 6.03194 -142992 -153220 -84756.1 -5366.76 -23860.3 14783.9 -7.41438 
3828 1 56.0811 5.45156 7.5 6.03194 -151327 -154257 10155.5 3216.39 32565.6 18486.6 -7.41954 
3829 1 55.3571 4.23236 7.5 6.03194 -145229 -153985 -66554.9 -5011.5 -26913.7 16063.2 -7.41536 
3830 1 56.0509 2.99575 7.5 6.03194 -150447 -154593 -9347.47 3968.93 32031.6 17831.7 -7.41847 
3831 1 55.3269 1.77655 7.5 6.03191 -147301 -154458 -47158.9 -4540.44 -29353.1 17206.6 -7.41641 
3832 1 56.0208 0.539931 7.5 6.03191 -149132 -154784 -29277 4612.26 30833.2 17042.1 -7.41738 
3966 1 58.2531 9.10916 7.5 6.03194 -151561 -154046 32118.2 2766.36 31986.4 26241.3 -7.42074 
3967 1 57.5291 7.88996 7.5 6.03194 -141778 -153867 -94792.1 -7593.55 -20872.1 19099.2 -7.41383 
3968 1 58.223 6.65334 7.5 6.03194 -151288 -154736 14485 3742.42 32201 25691.9 -7.41977 
3969 1 57.499 5.43414 7.5 6.03194 -143944 -154710 -77868.5 -7181.53 -24290.9 20897 -7.41474 
3970 1 58.1928 4.19753 7.5 6.03194 -150606 -155236 -4214.7 4751.75 31772.7 24937.6 -7.41874 
3971 1 57.4688 2.97833 7.5 6.03194 -146042 -155252 -59493.6 -6601.63 -27164 22523.8 -7.41573 
3972 1 58.1626 1.74171 7.5 6.03191 -149490 -155507 -23528.3 5734.95 30697.1 23975.8 -7.41768 
3973 1 57.4386 0.522514 7.5 6.03191 -147946 -155610 -40168.1 -5813.49 -29414 23939.5 -7.41678 
4107 1 59.671 9.09174 7.5 6.03194 -140659 -154712 -104320 -9764.99 -17245.2 22712.6 -7.41331 
4108 1 60.3649 7.85512 7.5 6.03194 -151129 -155150 16717.8 3962.06 31846.9 32631.4 -7.41989 
4109 1 59.6408 6.63592 7.5 6.03194 -142679 -155608 -88959.2 -9339.56 -21013.7 25049.4 -7.41413 
4110 1 60.3347 5.39931 7.5 6.03194 -150580 -155805 -1028.45 5194.63 31452.9 31873.1 -7.41891 
4111 1 59.6107 4.18011 7.5 6.03194 -144722 -156203 -71918.8 -8694.7 -24324.3 27183.5 -7.41505 
4112 1 60.3045 2.94349 7.5 6.03194 -149656 -156259 -19532.9 6436.91 30421.9 30833.7 -7.4179 
4113 1 59.5805 1.7243 7.5 6.03191 -146638 -156501 -53649 -7852.59 -27071.7 29070.3 -7.41604 
4114 1 60.2744 0.48768 7.5 6.03191 -148387 -156586 -38325.1 7552.59 28749.6 29514.3 -7.41687 
4248 1 62.5067 9.05691 7.5 6.03194 -150932 -155380 16775.7 3906.38 31608.8 39071.5 -7.41989 
4249 1 61.7827 7.83771 7.5 6.03194 -141491 -156595 -99479 -11418.7 -17070.3 28410.2 -7.41355 
4250 1 62.4766 6.60109 7.5 6.03194 -150436 -156170 89.7048 5311.66 31188.6 38400.1 -7.41897 
4251 1 61.7526 5.38189 7.5 6.03194 -143404 -157216 -84074.5 -10752.8 -20808.5 31062.3 -7.41438 
4252 1 62.4464 4.14528 7.5 6.03194 -149635 -156803 -17456.9 6774.65 30130.2 37378.9 -7.41801 
4253 1 61.7224 2.92608 7.5 6.03194 -145287 -157532 -67186 -9840.75 -24062.3 33436.4 -7.41529 
4254 1 62.4162 1.68946 7.5 6.03191 -148510 -157238 -35430.8 8212.05 28445.2 36006.8 -7.41702 
4255 1 61.6922 0.470262 7.5 6.03191 -147038 -157669 -49279.3 -8658.62 -26752.5 35482.6 -7.41627 
4389 1 63.9246 9.03949 7.5 6.03194 -140427 -157590 -109077 -13350.2 -12470.9 30874.3 -7.41302 
4390 1 64.6185 7.80287 7.5 6.03194 -150258 -156217 -909.813 5139.77 31077 44264.3 -7.41891 
4391 1 63.8944 6.58367 7.5 6.03194 -142144 -158201 -95590.6 -12704.4 -16613 34035 -7.41374 
4392 1 64.5883 5.34706 7.5 6.03194 -149498 -157003 -17393.1 6769.1 29933.2 43346.5 -7.41801 
4393 1 63.8643 4.12786 7.5 6.03194 -143915 -158509 -80395.8 -11767.4 -20367.4 36894.3 -7.41457 
4394 1 64.5581 2.89124 7.5 6.03194 -148487 -157630 -34403.2 8422.74 28166.7 42015.9 -7.41707 
4395 1 63.8341 1.67204 7.5 6.03191 -145622 -158532 -63905.6 -10575.3 -23628.1 39400.1 -7.41546 
4396 1 64.528 0.435428 7.5 6.03191 -147253 -158173 -51499.1 9944.79 25792.4 40276.9 -7.41614 
4530 1 66.7603 9.00465 7.5 6.03194 -150143 -155858 -3999.32 4736.04 31183.7 49223 -7.41875 
4531 1 66.0363 7.78546 7.5 6.03194 -140990 -159078 -106097 -14475.7 -11762.3 35995.6 -7.41316 
4532 1 66.7302 6.54884 7.5 6.03194 -149330 -156759 -19353.4 6464.01 29916.2 48471.7 -7.4179 
4533 1 66.0062 5.32964 7.5 6.03194 -142583 -159343 -92884.4 -13558 -15995 39311.9 -7.41388 
4534 1 66.7 4.09302 7.5 6.03194 -148346 -157556 -35298.7 8273.39 28017 47260.1 -7.41702 
4535 1 65.976 2.87383 7.5 6.03194 -144205 -159320 -78127.8 -12343.2 -19820.3 42260.4 -7.41468 
4536 1 66.6698 1.63721 7.5 6.03191 -147176 -158211 -51426 10066.7 25518.5 45589.3 -7.41614 
4537 1 65.9458 0.418011 7.5 6.03191 -145783 -159151 -62247.2 -10821.3 -23153.1 44788.5 -7.41555 
4671 1 68.1782 8.98724 7.5 6.03194 -139982 -159788 -115237 -15993.9 -6314.67 36880.6 -7.41266 
4672 1 68.8721 7.75062 7.5 6.03194 -149229 -156016 -23265.8 5924.15 30127.9 52521.8 -7.41769 
4673 1 68.148 6.53142 7.5 6.03194 -141340 -159968 -104263 -15135.4 -10986.8 40594.6 -7.41325 
4674 1 68.8419 5.29481 7.5 6.03194 -148179 -156937 -38084.9 7818.01 28066.9 51478.9 -7.41688 
4675 1 68.1179 4.07561 7.5 6.03194 -142806 -159871 -91527.7 -13944.9 -15351.9 43938.4 -7.41395 
4676 1 68.8117 2.83899 7.5 6.03194 -147025 -157767 -53150.6 9754.02 25404.4 49945.1 -7.41605 
4677 1 68.0877 1.61979 7.5 6.03191 -144290 -159526 -77399.8 -12470.1 -19300 46862.3 -7.41472 
4678 1 68.7816 0.383177 7.5 6.03191 -145795 -158578 -68055.8 11566.1 22175.4 47928.7 -7.41523 
4812 1 71.0139 8.9524 7.5 6.03194 -149290 -154763 -28979.6 5226.01 30574.4 55325.5 -7.41739 
4813 1 70.2899 7.7332 7.5 6.03194 -140230 -160345 -114166 -16426.4 -5422 40708.7 -7.41271 
4814 1 70.9838 6.49659 7.5 6.03194 -148083 -155755 -42643 7128.54 28346.6 54467.4 -7.41664 
4815 1 70.2598 5.27739 7.5 6.03194 -141480 -160135 -103700 -15303.5 -10283.7 44366.5 -7.41328 
4816 1 70.9536 4.04077 7.5 6.03194 -146849 -156717 -56593.6 9131.02 25504.3 53106.8 -7.41587 
4817 1 70.2296 2.82157 7.5 6.03194 -142838 -159684 -91604.6 -13865.7 -14814.8 47620.5 -7.41394 
4818 1 70.9234 1.58496 7.5 6.03191 -145584 -157615 -70449.6 11131.2 22100.1 51251.9 -7.41511 
4819 1 70.1994 0.36576 7.5 6.03191 -144258 -159146 -78251.9 -12113.4 -18923.9 50426.1 -7.41468 
4953 1 72.4318 8.93499 7.5 6.03194 -139289 -160457 -122277 -17366.4 583.846 39696.9 -7.41227 
4955 1 72.4016 6.47917 7.5 6.03194 -140276 -160101 -114276 -16348.7 -4715.67 43556.9 -7.41271 
4957 1 72.3715 4.02336 7.5 6.03194 -141442 -159518 -104445 -14993.7 -9778.15 47040.8 -7.41325 
4959 1 72.3413 1.56754 7.5 6.03191 -142728 -158755 -93106.1 -13358.1 -14490.5 50115.3 -7.41387 
4954 1 73.1256 7.69837 7.5 6.03194 -148151 -154042 -48777.9 6287.54 28843.8 56102.2 -7.41631 
4956 1 73.0955 5.24255 7.5 6.03194 -146748 -155079 -61591.1 8278.6 25829.4 54916 -7.41561 
4958 1 73.0653 2.78674 7.5 6.03194 -145395 -156107 -74356.8 10325.1 22251.2 53246.2 -7.41491 
4960 1 73.0351 0.330925 7.5 6.03191 -144121 -157203 -86703.7 12262.4 18156.5 51108.7 -7.41423 
5094 1 75.2675 8.90015 7.5 6.03194 -148464 -151874 -56234.5 5377.52 29510.8 56355.3 -7.41592 
5095 1 74.5435 7.68095 7.5 6.03194 -139230 -159784 -122949 -17022.1 1218.03 41609.6 -7.41224 
5096 1 75.2374 6.44434 7.5 6.03194 -146816 -152928 -67910.4 7284.74 26350.6 55313.6 -7.41528 
5097 1 74.5133 5.22514 7.5 6.03194 -140156 -159044 -115555 -15788.8 -4309.55 45196.2 -7.41265 
5098 1 75.2072 3.98852 7.5 6.03194 -145282 -154032 -79573.9 9297.93 22620.6 53817.1 -7.41464 
5099 1 74.4832 2.76932 7.5 6.03194 -141282 -158132 -106441 -14257.1 -9561.04 48424.2 -7.41315 
5100 1 75.177 1.53271 7.5 6.03191 -143871 -155162 -90874.1 11321.4 18382.3 51887.2 -7.41402 
5101 1 74.453 0.313508 7.5 6.03191 -142590 -157217 -95932.6 -12431.2 -14445.5 51268.3 -7.41373 
5235 1 76.6854 8.88273 7.5 6.03194 -138372 -159217 -129494 -17283.4 7360.46 38705.7 -7.41189 
5236 1 77.3792 7.64612 7.5 6.03194 -147126 -150379 -75269.8 6234.07 27009.9 54343.2 -7.41489 
5237 1 76.6552 6.42692 7.5 6.03194 -139021 -158305 -124648 -16201.4 1441.81 42254 -7.41216 
5238 1 77.3491 5.1903 7.5 6.03194 -145339 -151501 -85840.4 8142.79 23163.7 52981.4 -7.41431 
5239 1 76.6251 3.9711 7.5 6.03194 -139932 -157236 -117903 -14812.8 -4273.16 45498 -7.41254 
5240 1 77.3189 2.73449 7.5 6.03194 -143744 -152697 -96096.7 10111.5 18819.5 51236.3 -7.41375 
5241 1 76.5949 1.51529 7.5 6.03191 -141073 -156068 -109546 -13175.1 -9675.92 48432.8 -7.413 
5242 1 77.2887 0.278674 7.5 6.03191 -142375 -154051 -105705 11987.1 14020.1 49134.9 -7.41322 
5376 1 79.5211 8.8479 7.5 6.03194 -147735 -147567 -83360.3 5196.82 27738.2 52135.9 -7.41447 
5377 1 78.7971 7.6287 7.5 6.03194 -138067 -157363 -131534 -16202.6 7313.16 38457.5 -7.4118 
5378 1 79.491 6.39209 7.5 6.03194 -145638 -148658 -92861.3 6945.68 23816 50858.1 -7.41395 
5379 1 78.7669 5.17289 7.5 6.03194 -138726 -156131 -127237 -14984.4 1213.03 41575.3 -7.41204 
5380 1 79.4608 3.93627 7.5 6.03194 -143785 -149870 -102095 8791.04 19409.5 49253.3 -7.41345 
5381 1 78.7368 2.71707 7.5 6.03194 -139682 -154806 -121147 -13512.4 -4621.93 44457.9 -7.41238 
5382 1 79.4306 1.48046 7.5 6.03191 -142189 -151186 -110744 10654.3 14572 47360.5 -7.41297 
5383 1 78.7066 0.261257 7.5 6.03191 -140936 -153564 -113555 -11786.2 -10115.6 47107 -7.41281 
5517 1 80.939 8.83048 7.5 6.03194 -137321 -156284 -136128 -15786.6 13147.9 34093.7 -7.41156 
5518 1 81.6328 7.59387 7.5 6.03194 -146230 -145658 -100329 5774.63 24513.3 47641.3 -7.41356 
5519 1 80.9088 6.37467 7.5 6.03194 -137696 -154900 -134295 -14754.8 6734.5 36957.5 -7.41167 
5520 1 81.6027 5.13805 7.5 6.03194 -144066 -146838 -108574 7445.88 20084.2 46128.2 -7.41312 
5521 1 80.8787 3.91885 7.5 6.03194 -138423 -153429 -130517 -13472.6 548.891 39649.2 -7.41189 
5522 1 81.5725 2.68224 7.5 6.03194 -142214 -148157 -116301 9170.99 15257.9 44395.5 -7.41269 
5523 1 80.8485 1.46304 7.5 6.03191 -139483 -151938 -125059 -11993.8 -5319.25 42196.8 -7.4122 
5524 1 81.5423 0.226423 7.5 6.03191 -140712 -149707 -123213 10815.8 10050.7 42482.1 -7.41231 
5658 1 83.7747 8.79565 7.5 6.03194 -147138 -142646 -107938 4676.79 25211 43560.6 -7.41316 
5659 1 83.0507 7.57645 7.5 6.03194 -136870 -153623 -139042 -14129.4 12147.1 31966.7 -7.41143 
5660 1 83.7446 6.33983 7.5 6.03194 -144632 -143764 -115239 6141.3 20787.2 42104.2 -7.41277 
5661 1 83.0205 5.12063 7.5 6.03194 -137336 -152022 -137562 -13049.3 5677.85 34353.3 -7.41153 
5662 1 83.7144 3.88402 7.5 6.03194 -142472 -145049 -122090 7682.19 16007.5 40486.6 -7.4124 
5663 1 82.9904 2.66482 7.5 6.03194 -138192 -150395 -134253 -11777.6 -482.193 36667.4 -7.41172 
5664 1 83.6842 1.4282 7.5 6.03191 -140678 -146494 -128211 9239.89 10896.9 38761.9 -7.41207 
5665 1 82.9602 0.209005 7.5 6.03191 -139450 -148924 -129390 -10302.6 -6290.8 38937.4 -7.41199 
5799 1 85.1926 8.77823 7.5 6.03194 -136266 -152373 -141552 -13133.4 17344.5 26899.6 -7.41131 
5800 1 85.8864 7.54162 7.5 6.03194 -145505 -140790 -121810 4920.55 21492.9 37431.2 -7.41243 
5801 1 85.1624 6.32242 7.5 6.03194 -136448 -150672 -142303 -12256.5 10638 28908.2 -7.41129 