ITEM: TIMESTEP
508
ITEM: NUMBER OF ATOMS
30248
ITEM: BOX BOUNDS pp pp pp
0.0000000000000000e+00 1.5101903700000000e+02
0.0000000000000000e+00 2.6157264400000003e+02
0.0000000000000000e+00 1.8399999999999999e+01
ITEM: ATOMS id type x y z c_csym c_2[1] c_2[2] c_2[3] c_2[4] c_2[5] c_2[6] c_3 
243 1 0.875179 8.57938 7.38604 6.01794 -171263 -152842 -3112.8 -16582 11807.4 -2904.91 -7.41377 
244 1 0.14342 7.36519 7.38314 6.02396 -158282 -166328 2183.62 -11480.7 13394.7 -1254.32 -7.41392 
245 1 0.82864 6.12401 7.38078 6.02247 -168160 -155773 -1004.61 -7977.75 8115.48 -2414.88 -7.41369 
246 1 0.0962683 4.91014 7.37878 6.02621 -158852 -164640 801.851 -4799.75 7913.88 -844.595 -7.41369 
247 1 0.781057 3.66875 7.37736 6.02563 -165325 -158299 -9.3524 -3033.83 4673.47 -1826.01 -7.41361 
248 1 0.0483146 2.45508 7.37625 6.02818 -160550 -163455 327.913 -1104.7 3524.98 -433.59 -7.41359 
249 1 0.732896 1.21359 7.3757 6.02841 -162922 -160757 269.281 -545.869 1485.84 -1223.78 -7.41356 
250 1 3.1821e-06 2.08913e-06 7.37542 6.0296 -161509 -161610 277.905 -64.6488 -0.136622 0.0532863 -7.41355 
457 1 2.29266 8.55159 7.38667 6.01984 -165584 -158877 2588.32 -13559.1 16174.2 -3848.88 -7.41407 
458 1 2.97793 7.31037 7.38429 6.01998 -176312 -147842 -929.112 -11473.8 9995.31 -7115.05 -7.41381 
459 1 2.2461 6.09618 7.38137 6.02297 -163898 -160161 819.878 -5306.84 10146.2 -3525.11 -7.41379 
460 1 2.93092 4.85477 7.37992 6.02354 -170564 -152822 215.519 -4798.67 6398.41 -5970.1 -7.41371 
461 1 2.19851 3.64089 7.37792 6.02538 -162669 -161023 171.987 -133.636 5156.22 -3209.94 -7.41364 
462 1 2.8831 2.39939 7.37736 6.0266 -166232 -157729 460.043 -1246.67 3029.86 -4849.61 -7.41363 
463 1 2.15034 1.18572 7.37624 6.02722 -161966 -161489 171.295 1870.4 1191.53 -2964.96 -7.41357 
670 1 5.1264 8.49751 7.38964 6.0172 -187485 -136983 352.488 -13690 12275 -12525.1 -7.41406 
671 1 4.39537 7.28285 7.38578 6.01728 -171442 -153040 -137.616 -4520.24 12669.7 -6269.16 -7.41392 
672 1 5.08022 6.0414 7.38432 6.02095 -179251 -145026 1385.76 -5331.92 8672.91 -10947.2 -7.41392 
673 1 4.34836 4.82719 7.38137 6.02138 -167208 -156311 -732.813 1938.94 7058.68 -6113.67 -7.41372 
674 1 5.03297 3.58567 7.3808 6.02445 -171617 -152223 1327.56 -558.298 5119.04 -9332.32 -7.41379 
675 1 4.30054 2.37178 7.37877 6.02418 -164495 -159477 -446.662 5388.54 2463.88 -6020.57 -7.41364 
676 1 4.98512 1.13028 7.37906 6.02526 -164858 -158938 603.452 1657 1653.7 -7878.16 -7.4137 
883 1 6.5438 8.47056 7.39201 6.01008 -182094 -142650 -2435.7 -2428.74 15294.3 -8944.91 -7.41403 
884 1 7.2287 7.22907 7.39059 6.01719 -190660 -134100 3926.96 -4339.66 11297.4 -16644.1 -7.41427 
885 1 6.49763 6.01437 7.38667 6.01566 -175261 -149021 -2777.44 5712.71 9216.08 -9141.11 -7.41382 
886 1 7.18228 4.77282 7.38611 6.02183 -180179 -144129 3337.8 2064.12 7719.13 -14712 -7.41408 
887 1 6.45039 3.55857 7.38311 6.01994 -169171 -154660 -1993.42 10566.7 3966.92 -9301.3 -7.41372 
888 1 7.135 2.31706 7.38343 6.02276 -170802 -153676 1868.78 5295.18 4096.98 -12834.7 -7.41392 
889 1 6.40255 1.10313 7.38136 6.02208 -164010 -159793 -573.097 12344.2 -410.661 -9590.37 -7.41372 
1096 1 9.37608 8.41827 7.39852 6.01051 -204925 -120060 8132.58 -1432.94 13946.8 -22619.9 -7.41477 
1097 1 8.64606 7.20288 7.39375 6.00848 -186083 -138401 -6281.65 11293.2 11407.3 -12010.2 -7.41389 
1098 1 9.33076 5.96131 7.39323 6.01671 -191793 -133005 6867.97 6651.37 10607.2 -20650.8 -7.41452 
1099 1 8.59966 4.74652 7.38929 6.01489 -177082 -146917 -4831.68 17622 5647.78 -12617.1 -7.4138 
1100 1 9.28432 3.505 7.38964 6.01995 -179351 -145358 4467.92 11207.6 6998.3 -18555.2 -7.41428 
1101 1 8.55241 2.29068 7.38663 6.01844 -169181 -155027 -2475.32 20792.7 642.516 -13224.8 -7.41382 
1102 1 9.23722 1.04932 7.38786 6.01672 -167346 -157151 1414.62 12975.8 3216.09 -16545.5 -7.41406 
1309 1 10.7934 8.3932 7.40227 6.00029 -199901 -124826 -11438.4 18504.5 13307.6 -14332.6 -7.41392 
1310 1 11.4782 7.1516 7.40182 6.01011 -206307 -119076 12114.5 13286.4 13464.9 -26545.7 -7.41512 
1311 1 10.7481 5.93612 7.39711 6.00801 -188160 -136247 -9230.34 26714.9 7290.76 -15568.9 -7.41385 
1312 1 11.4328 4.6946 7.39748 6.01611 -191041 -134223 8709.57 19468.6 10121.8 -24505.6 -7.41479 
1313 1 10.7017 3.47972 7.39364 6.0138 -177178 -147298 -5814.83 31418.9 1793.64 -16658.5 -7.4139 
1314 1 11.3866 2.23837 7.39488 6.01256 -176282 -149045 4358.52 22468.2 6445.62 -22339.3 -7.41448 
1315 1 10.6546 1.02396 7.39195 6.01567 -166592 -157827 -1720.38 32991.2 -3057.88 -17753.2 -7.41404 
1522 1 13.6242 8.34414 7.4113 6.00253 -222240 -102834 19025.6 21609.6 15997.1 -31743 -7.41586 
1523 1 12.8954 7.1278 7.4061 6.00041 -202051 -122741 -15295.3 37412.4 8628.61 -17759.1 -7.41384 
1524 1 13.5802 5.8863 7.40648 6.00978 -204987 -120382 14682.8 29770.9 13170.6 -30008.7 -7.41546 
1525 1 12.8501 4.6707 7.402 6.00856 -188220 -136550 -10803.5 44004.3 2864.34 -19448.3 -7.41393 
1526 1 13.5351 3.42939 7.40322 6.00855 -187755 -138017 9041.76 34297.1 9824.71 -27940 -7.41505 
1527 1 12.8039 2.2144 7.3996 6.01219 -174895 -150182 -5300.07 47068.6 -2398.55 -20990.1 -7.41412 
1528 1 13.4892 0.97338 7.40166 6.00384 -170261 -155221 2660.29 35757.1 6081.11 -25691.9 -7.41466 
1735 1 15.0414 8.32193 7.4156 5.99272 -217338 -107166 -22901 48905.1 9461.84 -18965.3 -7.41374 
1736 1 15.7264 7.08048 7.41596 6.00272 -220352 -104646 22213 41357.9 15882.9 -34472.5 -7.41625 
1737 1 14.9975 5.86403 7.41114 6.00209 -201488 -123317 -17455.5 57738.7 3666.96 -21259.2 -7.41388 
1738 1 15.6826 4.62277 7.41228 6.00392 -201205 -124358 15448.4 47891.7 13077.8 -32710.3 -7.41576 
1739 1 14.9524 3.40707 7.40822 6.00872 -185689 -139580 -10616.6 62831.2 -1821.77 -23302.4 -7.41414 
1740 1 15.6378 2.16611 7.41017 5.99896 -181767 -144293 7549.5 50911.3 9745.65 -30573.2 -7.41525 
1741 1 14.9066 0.951018 7.40694 6.00672 -169657 -155629 -2985.03 64317.3 -6807.4 -25172.4 -7.41449 
1948 1 17.8712 8.27739 7.42523 5.99544 -235831 -88036.5 30891.6 53406.6 18092.7 -37547.1 -7.41713 
1949 1 17.1436 7.06 7.42034 5.99528 -216159 -108538 -25532.3 71768.5 4092.2 -21981.2 -7.41375 
1950 1 17.8289 5.81884 7.42136 5.99848 -215790 -109309 23299 62250.6 15976.6 -36205.5 -7.41657 
1951 1 17.0998 4.60229 7.41712 6.00444 -198504 -126853 -17587 79133 -1434.24 -24477 -7.41407 
1952 1 17.7854 3.36143 7.41891 5.99485 -194918 -131117 14148.6 67237.3 13212.2 -34355.2 -7.41596 
1953 1 17.0552 2.14562 7.41543 6.0026 -180516 -145208 -8437.2 82517 -6574.03 -26716.2 -7.41449 
1954 1 17.7413 0.905168 7.41794 5.98887 -173188 -152941 4069.31 68574.4 9902 -32087 -7.41536 
2161 1 19.2883 8.25874 7.42899 5.98909 -230762 -92934.2 -34577.7 85057.8 4136.69 -21722.6 -7.41354 
2162 1 19.9738 7.01773 7.42982 5.99344 -230045 -93527.9 32125.1 76346.6 18384.4 -38259.6 -7.41743 
2163 1 19.2461 5.80027 7.42565 5.99945 -212203 -112670 -25877.4 94942.7 -1274.91 -24536.8 -7.4139 
2164 1 19.9319 4.55955 7.42721 5.99024 -208611 -116490 22107.1 83630 16286.3 -36781.5 -7.41676 
2165 1 19.2027 3.34292 7.42372 5.99929 -192876 -132793 -15536.3 100652 -6438.65 -27067.8 -7.41439 
2166 1 19.889 2.10259 7.42599 5.98454 -186098 -139874 10708.3 86941.2 13557.6 -34786.6 -7.41605 
2167 1 19.1587 0.886679 7.42322 5.99267 -172749 -152959 -4232.25 102269 -11116.5 -29333.8 -7.41497 
2374 1 22.1175 8.21946 7.43721 5.98704 -243187 -78034.6 41382.8 89363.4 20248.8 -38957.7 -7.4183 
2375 1 21.391 7.00107 7.43325 5.99408 -225527 -98058.6 -34975.7 109336 -1311.98 -23684.8 -7.41367 
2376 1 22.0771 5.76053 7.43453 5.98517 -222143 -101503 30922.6 99042.2 18853.2 -37855.1 -7.41759 
2377 1 21.3491 4.54303 7.43123 5.99688 -205698 -119258 -23873.2 117508 -6395.72 -26375.9 -7.4142 
2378 1 22.0357 3.30286 7.43321 5.98136 -199508 -125624 18659.4 104636 16758 -36200.7 -7.4168 
2379 1 21.3063 2.08616 7.43059 5.98887 -184855 -140653 -11353.5 121364 -11083.8 -28795.4 -7.41485 
2380 1 21.9936 0.846466 7.43318 5.97466 -175713 -150166 5267.61 106093 14023.4 -34047 -7.416 
2587 1 23.5345 8.20464 7.43959 5.98949 -237774 -83993.5 -44329.4 121551 -1473.79 -22202.7 -7.41338 
2588 1 24.2211 6.96432 7.44052 5.98101 -234389 -86933.4 40066.7 112728 20878.3 -37764.5 -7.41841 
2589 1 23.4943 5.74593 7.43752 5.99357 -218259 -105519 -32910.1 132331 -6404.06 -24914.1 -7.41394 
2590 1 24.1812 4.50596 7.43918 5.97751 -212532 -111282 27408.9 120700 19419.8 -36451.5 -7.41758 
2591 1 23.4529 3.28843 7.43686 5.98617 -197377 -127603 -19655.4 138590 -11048 -27373.5 -7.41463 
2592 1 24.1404 2.0489 7.43917 5.9717 -188994 -136095 13183 124390 17277.9 -34625.5 -7.4167 
2593 1 23.4109 0.832128 7.43746 5.97856 -175434 -149928 -5284.17 140436 -15158.3 -29582.5 -7.41541 
2800 1 26.3638 8.17077 7.44502 5.97782 -244760 -73522.5 49084.6 124233 22379.8 -36784.4 -7.41919 
2801 1 25.6382 6.95151 7.44234 5.9901 -229418 -92197.4 -42116.5 144568 -6409.16 -22980.2 -7.41363 
2802 1 26.3255 5.71177 7.44364 5.97355 -224279 -97344.4 36449 134486 21527.4 -35774.1 -7.41835 
2803 1 25.5983 4.4934 7.44171 5.98452 -209307 -114403 -28596.7 153271 -10969.7 -25374.7 -7.41433 
2804 1 26.2862 3.25407 7.44374 5.96997 -201719 -121983 21880.6 140537 19959.2 -34274.5 -7.41742 
2805 1 25.5577 2.03651 7.44244 5.97582 -187703 -136887 -13530.2 157429 -15080.2 -27544.5 -7.41516 
2806 1 26.2462 0.797658 7.44503 5.96313 -177745 -147068 6064.94 142196 17702 -32320.2 -7.41647 
3013 1 27.7808 8.1596 7.44562 5.98642 -238873 -80198.3 -51064.9 153918 -6366.33 -20827.9 -7.4133 
3015 1 27.7426 5.70093 7.44496 5.98257 -219997 -101842 -37677.9 165079 -10812.8 -23083.1 -7.414 
3017 1 27.7034 3.24347 7.44586 5.97421 -199379 -124076 -22392.5 171584 -14912.4 -25140.3 -7.41483 
3019 1 27.6635 0.787197 7.448 5.96625 -177565 -146743 -5924.24 173547 -18430.3 -27009.3 -7.41576 
3014 1 28.4686 6.92011 7.4465 5.97062 -234219 -84542.7 45355.3 145711 23111.3 -34429.3 -7.41908 
3016 1 28.4308 4.46181 7.44669 5.96711 -213456 -108590 30869.3 154042 22076.3 -33226.5 -7.41814 
3018 1 28.3921 2.00478 7.44829 5.96172 -190580 -133112 14748.9 157949 20341.8 -31590.6 -7.41714 
3226 1 30.6105 8.13077 7.4478 5.96865 -242332 -73451.2 53824.1 154302 24226.4 -32651 -7.41975 
3227 1 29.8856 6.91081 7.44659 5.97999 -228894 -90345.8 -46510.3 173889 -10554.2 -20715.2 -7.41365 
3228 1 30.5742 5.67193 7.44799 5.96444 -223404 -96286 39748.3 164687 23675.3 -31702.5 -7.41882 
3229 1 29.8479 4.45282 7.44762 5.97358 -209990 -112027 -31401.7 182673 -14629.9 -22617.4 -7.41446 
3230 1 30.537 3.21433 7.44989 5.96043 -202266 -119862 23743.8 170968 22419.7 -30359.6 -7.41781 
3231 1 29.8094 1.996 7.45017 5.96484 -189205 -133911 -14738.2 187003 -18209.8 -24352.4 -7.41539 
3232 1 30.4991 0.757974 7.45307 5.95439 -179516 -144028 6473.6 172767 20472.4 -28647.2 -7.41676 
3439 1 32.0276 8.12281 7.44671 5.9782 -236046 -80405.3 -54828.8 179846 -10190 -18410.8 -7.4133 
3440 1 32.7166 6.88419 7.44772 5.96271 -231253 -85328.1 48229.1 172690 24820 -29884.7 -7.41946 
3441 1 31.9913 5.66435 7.44775 5.97331 -218784 -100931 -40197.2 190878 -14222.7 -20143.6 -7.41408 
3442 1 32.6808 4.42607 7.44982 5.95933 -212424 -107862 32664.2 181030 23995.8 -28799.7 -7.41845 
3443 1 31.9542 3.20702 7.45065 5.96439 -199743 -122031 -23728.8 197364 -17862.5 -21725.2 -7.41499 
3444 1 32.6442 1.96915 7.45357 5.95316 -191289 -130770 15506.7 185119 22493 -27371.1 -7.41738 
3445 1 31.9164 0.750823 7.45489 5.9566 -179275 -143563 -6103.88 199496 -20895.3 -23175.7 -7.416 
3652 1 34.858 8.09836 7.44606 5.9618 -237493 -76156.9 56133.2 178174 25578.2 -27911.7 -7.42005 
3653 1 34.1337 6.87784 7.44637 5.97172 -225624 -91159.8 -48535.5 196299 -13694.9 -17813.4 -7.41371 
3654 1 34.8236 5.63979 7.4482 5.95779 -220586 -97123.1 41232.3 188391 25140.3 -27044.3 -7.41906 
3655 1 34.0979 4.42006 7.44949 5.96474 -208746 -111319 -32556.3 204934 -17381 -19244.9 -7.41458 
3656 1 34.7882 3.18236 7.4524 5.95286 -201690 -118881 24505 194689 24037.2 -25869.1 -7.418 
3657 1 34.0614 1.96336 7.45436 5.95637 -189864 -131712 -15108.3 209278 -20546 -20551 -7.41556 
3658 1 34.7523 0.726083 7.45803 5.94713 -180877 -141232 6570.32 196612 22279.8 -24406.4 -7.41691 
3865 1 36.275 8.09307 7.44371 5.97082 -230952 -82991.3 -56271.3 199285 -13062.8 -15668.6 -7.41336 
3866 1 36.9654 6.85526 7.44525 5.95702 -226873 -87860.7 49274.8 193402 25922.3 -25194.4 -7.41964 
3867 1 36.2406 5.63489 7.44687 5.96563 -215776 -101733 -40987.8 209943 -16772 -16965.3 -7.41418 
3868 1 36.9313 4.39738 7.4497 5.95325 -210385 -108381 33201.9 201534 25178.1 -24237.1 -7.4186 
3869 1 36.2054 3.17774 7.4522 5.95684 -199045 -121044 -24007.6 216234 -20058.7 -18142 -7.41512 
3870 1 36.8965 1.9406 7.45604 5.94696 -191311 -129086 15649.1 205686 23804.8 -23015.9 -7.4175 
3871 1 36.1695 0.721617 7.45905 5.94955 -180559 -140722 -5956.51 218478 -22733.1 -19219.2 -7.41616 
4078 1 39.1063 8.07227 7.44123 5.95688 -231424 -80286.1 56702.3 196216 26402.5 -23323.5 -7.42017 
4079 1 38.3824 6.85132 7.44302 5.96532 -221043 -93454.6 -48882.6 212580 -16051.9 -14899.2 -7.4138 
4080 1 39.0735 5.61401 7.44572 5.9531 -216794 -99077.5 41425.3 206058 25982.3 -22546.6 -7.41916 
4081 1 38.3484 4.39377 7.4486 5.95788 -206554 -111676 -32575.6 220881 -19438.4 -15967.8 -7.41469 
4082 1 39.0398 3.15678 7.45254 5.94748 -200352 -118608 24479.7 212240 24955 -21535.2 -7.41808 
4083 1 38.3137 1.9372 7.45616 5.95014 -189808 -130031 -14934.3 225142 -22293.4 -16932.6 -7.41569 
4084 1 39.0056 0.700578 7.46093 5.94219 -181730 -138697 6432.94 214229 23330.8 -20309.8 -7.41699 
4291 1 40.5233 8.06915 7.43823 5.96514 -224698 -86748.2 -56169.6 213265 -15242.4 -13040.4 -7.41345 
4292 1 41.2148 6.83206 7.44072 5.95304 -221628 -91201.9 49085.4 208675 26504.7 -20850.2 -7.41968 
4293 1 40.4905 5.61126 7.44382 5.95931 -211819 -103347 -40672.1 223415 -18698.5 -14020.2 -7.41428 
4294 1 41.1823 4.37443 7.44777 5.94844 -207591 -109462 32894.8 216444 25792.8 -20016 -7.41864 
4295 1 40.457 3.15429 7.45184 5.95125 -197620 -120699 -23646.4 229456 -21712.9 -14896.9 -7.41523 
4296 1 41.1491 1.91778 7.45686 5.94274 -190828 -127870 15372.7 220615 24510.5 -18989.2 -7.41755 
4297 1 40.4229 0.698237 7.46147 5.94458 -181357 -138224 -5658.54 231761 -24121.3 -15685.5 -7.41626 
4504 1 43.3553 8.05133 7.43503 5.95345 -224950 -85089.7 56142.2 209446 26784.4 -19180.4 -7.42017 
4505 1 42.6318 6.83003 7.43817 5.9605 -215720 -96517.7 -48219.8 223988 -17857.2 -12280.1 -7.4139 
4506 1 43.3239 5.59338 7.44205 5.94969 -212618 -101530 40797.2 218833 26364.1 -18495.2 -7.41916 
4507 1 42.5994 4.37272 7.44637 5.95275 -203693 -112629 -31950.9 231939 -21003.2 -13088.9 -7.4148 
4508 1 43.2918 3.13634 7.45154 5.94376 -198588 -118753 23957.8 224850 25396.5 -17638.5 -7.4181 
4509 1 42.5663 1.91627 7.45665 5.94571 -189247 -128716 -14490.4 236053 -23616.4 -13804.2 -7.41578 
4510 1 43.2591 0.680204 7.46263 5.93899 -182243 -136371 6142.5 226879 23888.7 -16633.5 -7.41702 
4717 1 44.7724 8.04991 7.43196 5.96085 -218083 -91035.5 -55179.9 223038 -16937.6 -10729.7 -7.41356 
4718 1 45.4648 6.81345 7.4357 5.95029 -216090 -94889.4 48138.5 219661 26701.8 -16991.7 -7.41965 
4719 1 44.741 5.59231 7.44007 5.9545 -207565 -105525 -39762.5 232713 -20180.3 -11483.8 -7.41439 
4720 1 45.4337 4.35608 7.44528 5.94507 -204457 -110937 32085 227098 26029.1 -16282.1 -7.41862 
4721 1 44.7089 3.13553 7.45068 5.94721 -195799 -120740 -22976.9 238446 -22971.2 -12144.1 -7.41532 
4722 1 45.402 1.89955 7.45691 5.93998 -190078 -126944 14850.8 231206 24839.4 -15440.4 -7.41756 
4723 1 44.6763 0.679529 7.4629 5.94121 -181830 -135949 -5332.38 240764 -25170.9 -12720.5 -7.41634 
4931 1 46.8819 6.81294 7.43329 5.95637 -210138 -99888.5 -47030.5 231855 -19264.2 -10055.7 -7.41401 
4933 1 46.8508 4.35585 7.44391 5.94894 -200466 -113775 -31025.2 239443 -22201.5 -10676.4 -7.41489 
4935 1 46.8191 1.89951 7.45659 5.94265 -188464 -127746 -13953.2 243368 -24614.2 -11209.7 -7.41586 
4930 1 47.605 8.0345 7.42908 5.95105 -218346 -89946.2 54890.7 218996 26828.6 -15505.2 -7.42011 
4932 1 47.5749 5.57685 7.43846 5.94641 -208256 -104115 39690.7 227985 26434.9 -14928.6 -7.41911 
4934 1 47.5441 3.11999 7.45029 5.94124 -196575 -119109 23158.5 233707 25546.1 -14230.9 -7.41808 
4936 1 47.5127 0.663914 7.46367 5.93707 -182534 -134292 5766.37 235811 24162.9 -13435.1 -7.41703 
5143 1 49.0221 8.03444 7.42643 5.95761 -211516 -95678.1 -53724.4 229830 -18281 -8780.21 -7.41368 
5144 1 49.7155 6.79851 7.43148 5.94786 -210791 -98769.2 46735.1 227593 26634.4 -13568.9 -7.41958 
5145 1 48.992 5.57711 7.43675 5.95081 -203242 -107953 -38574.3 239024 -21326.6 -9372.77 -7.41449 
5146 1 49.6855 4.34137 7.44316 5.94265 -201298 -112512 30988.8 234690 26033.1 -13004.8 -7.41857 
5147 1 48.9612 3.12049 7.44951 5.94431 -193780 -120982 -22191.1 244489 -23921.9 -9877.53 -7.41541 
5148 1 49.655 1.88496 7.4568 5.93824 -189276 -126223 14193.7 238674 24958.2 -12351.7 -7.41754 
5149 1 48.9299 0.664535 7.46382 5.93901 -182097 -133896 -5033.85 246745 -25950.2 -10304.6 -7.41639 
5356 1 51.8555 8.02094 7.42486 5.94929 -211901 -94801.3 53196.3 225899 26651.2 -12187.6 -7.42001 
5357 1 51.1326 6.79919 7.42965 5.95271 -204793 -103407 -45577.3 237232 -20370.3 -8202.09 -7.41413 
5358 1 51.8264 5.56358 7.43599 5.94396 -203947 -106769 38289 234542 26322.1 -11751.2 -7.41904 
5359 1 51.1027 4.34231 7.44211 5.94609 -197263 -115081 -29972.9 244492 -23114.1 -8694.54 -7.41499 
5360 1 51.7966 3.10688 7.44948 5.93955 -194539 -119585 22193 239990 25542.2 -11230.8 -7.41804 
5361 1 51.0721 1.88607 7.45654 5.94054 -187644 -126993 -13403.2 248235 -25351.6 -9105.61 -7.41592 
5362 1 51.7664 0.650857 7.46444 5.936 -182754 -132425 5333.73 242155 24304.7 -10643.1 -7.41703 
5569 1 53.2726 8.02195 7.42317 5.95451 -205063 -100272 -52014.5 234516 -19361.7 -7126.24 -7.4138 
5570 1 53.9667 6.78649 7.42938 5.94531 -205616 -102579 45031.9 233307 26439.8 -10452.5 -7.41948 
5571 1 53.2435 5.56489 7.43493 5.94791 -198941 -110417 -37248.9 243262 -22213.3 -7622.08 -7.41459 
5572 1 53.9377 4.32956 7.44227 5.9408 -198111 -114046 29702.3 240135 25938.5 -10059.4 -7.41851 
5573 1 53.2138 3.10841 7.44902 5.94217 -191712 -121320 -21366.5 248554 -24626.9 -8035.41 -7.41548 
5574 1 53.9081 1.87325 7.45702 5.93713 -188404 -125620 13440.5 244014 25001.4 -9605.58 -7.41752 
5575 1 53.1836 0.65249 7.46457 5.93757 -182274 -132018 -4781.48 250717 -26504.7 -8378.63 -7.41643 
5782 1 56.1066 8.00999 7.42396 5.94665 -205671 -99835.9 51225.1 230993 26419.2 -9107.29 -7.4199 
5783 1 55.3839 6.78811 7.42858 5.94969 -199651 -107167 -43989.1 240932 -21244.4 -6618.64 -7.41424 
5784 1 56.0783 5.55289 7.43578 5.94205 -199786 -109604 36693.4 239359 26175.9 -8828.79 -7.41896 
5785 1 55.3549 4.33143 7.44186 5.94387 -194112 -116624 -28866.1 247932 -23798.4 -7053.47 -7.41507 
5786 1 56.0494 3.09635 7.44981 5.93838 -192499 -120194 21108.4 244625 25521.1 -8499.2 -7.41799 
5787 1 55.3253 1.87527 7.45699 5.93903 -186758 -126410 -12870.5 251559 -25870.6 -7413.82 -7.41598 
5788 1 56.0201 0.640362 7.46524 5.9354 -182869 -130799 4848.24 246802 24441.9 -8123.05 -7.41702 
5995 1 57.5238 8.01184 7.42375 5.95119 -198702 -105023 -50204.6 237825 -20230.1 -5644.96 -7.41392 
5996 1 58.2185 6.77676 7.4307 5.9432 -200262 -106548 43180.9 237565 26289.8 -7544.41 -7.41938 
5997 1 57.4955 5.55503 7.43572 5.94556 -194717 -113137 -35875.5 246210 -22886.9 -6114.77 -7.41469 
5998 1 58.1902 4.32004 7.4435 5.93938 -194706 -115794 28310.3 244240 25894.3 -7324.48 -7.41844 
5999 1 57.4666 3.09868 7.44989 5.94054 -189613 -121906 -20545.3 251408 -25120.6 -6510.53 -7.41555 
6000 1 58.1615 1.86383 7.45805 5.93642 -187269 -125285 12622.3 248043 25097 -7070.62 -7.41749 
6001 1 57.4373 0.642793 7.46543 5.93659 -182340 -130508 -4583.1 253516 -26849.1 -6840.63 -7.41646 
6207 1 59.6633 9.236 7.42107 5.95263 -196408 -104166 -55949.4 233998 -19180.6 -4672.32 -7.41363 
6208 1 60.3583 8.00107 7.4277 5.94435 -199408 -105030 49216.6 234847 26312 -6234.66 -7.41978 
6209 1 59.6357 6.77912 7.4313 5.94695 -194282 -111202 -42407.5 243521 -21909 -5179.94 -7.41435 
6210 1 60.3307 5.54424 7.43877 5.94039 -195548 -112719 35064.1 243002 26152 -6096.28 -7.41887 
6211 1 59.6074 4.32263 7.44398 5.94205 -190709 -118496 -27783.4 250309 -24273.3 -5624.89 -7.41515 
6212 1 60.3024 3.08785 7.45188 5.93737 -190199 -121098 19992.2 248147 25613.2 -5945.21 -7.41794 
6213 1 59.5786 1.86656 7.45837 5.93789 -185596 -126181 -12381.8 253880 -26176.8 -6001.6 -7.41602 
6214 1 60.2738 0.631895 7.46626 5.93508 -182710 -129527 4337.92 250357 24678.3 -5772.76 -7.41701 
6420 1 62.4978 9.2257 7.42726 5.94547 -196763 -104502 54888.4 231372 26265.2 -4947.87 -7.42017 
6421 1 61.7755 8.00357 7.42919 5.94825 -192396 -110325 -48514.8 240110 -20872.3 -4230.61 -7.41404 
6422 1 62.4708 6.76882 7.43625 5.94135 -194883 -111026 41429.3 240784 26321.1 -4850.75 -7.41929 
6423 1 61.7478 5.54702 7.43993 5.94337 -190485 -116426 -34598.1 248210 -23340 -4722.81 -7.41478 
6424 1 62.4431 4.31231 7.44743 5.93819 -191304 -118085 26978.8 247354 26017.2 -4772.38 -7.41838 
6425 1 61.7196 3.09081 7.45263 5.93921 -187322 -123013 -19797.8 253327 -25394.3 -5154.67 -7.41561 
6426 1 62.4149 1.85619 7.46016 5.93596 -186005 -125470 11826.7 251065 25336.9 -4695.93 -7.41746 
6427 1 61.691 0.634946 7.46656 5.93589 -182205 -129530 -4438.35 255377 -26966.9 -5521.15 -7.41649 
6633 1 63.9151 9.2283 7.42978 5.94947 -188895 -110657 -54278 235920 -19773 -3268.5 -7.41375 
6634 1 64.6106 7.99368 7.43634 5.94227 -192869 -110593 47485.5 237727 26414.5 -3635.58 -7.41968 
6635 1 63.888 6.77173 7.43827 5.9445 -188778 -115640 -41042.5 245226 -22324.3 -3792.41 -7.41445 
6636 1 64.5834 5.53713 7.44525 5.93895 -191035 -116259 33640.5 245700 26327.2 -3592.24 -7.4188 
6637 1 63.8603 4.31545 7.44883 5.94041 -187220 -120815 -26850.2 251806 -24509.4 -4275.29 -7.41522 
6638 1 64.5557 3.08089 7.45586 5.9366 -187657 -122439 19000 250742 25881.4 -3579.44 -7.4179 
6639 1 63.8321 1.85946 7.46087 5.937 -184252 -126422 -11973.3 255350 -26248.2 -4697.95 -7.41607 
6640 1 64.5276 0.624983 7.46755 5.935 -182417 -128775 3870.87 252968 25056.8 -3581.08 -7.417 
6847 1 66.0279 7.99668 7.43932 5.94558 -185866 -116173 -47191 241479 -21222.6 -2843.84 -7.41414 
6849 1 66.0006 5.54038 7.44748 5.94138 -185959 -120130 -33589.8 249358 -23523.9 -3357.6 -7.41487 
6851 1 65.9729 3.08431 7.4572 5.9381 -184778 -124538 -19205.9 254419 -25417.2 -3827.8 -7.41567 
6853 1 65.9448 0.628485 7.46793 5.93543 -181908 -128950 -4330.44 256418 -26846.1 -4234.98 -7.41652 
6846 1 66.7503 9.21873 7.43922 5.9432 -189366 -111413 53312.2 233866 26429.9 -2494.03 -7.42007 
6848 1 66.7236 6.76219 7.44571 5.93971 -189464 -115937 40047.6 243127 26548.4 -2447.57 -7.41921 
6850 1 66.6962 4.3059 7.45388 5.93717 -187843 -120762 25909.3 249588 26321.8 -2461.9 -7.41832 
6852 1 66.6685 1.84988 7.46328 5.93563 -184649 -126038 11171.2 253236 25730.5 -2518.48 -7.41744 
7059 1 68.1676 9.22174 7.44313 5.94661 -181412 -117647 -53112.3 236957 -20027.7 -1905.13 -7.41384 
7060 1 68.8636 7.98738 7.44888 5.94045 -186227 -116714 46266.7 239671 26675.1 -1376.45 -7.41962 
7061 1 68.1408 6.76549 7.44881 5.9423 -183309 -120688 -40077.1 246077 -22433.2 -2419.74 -7.41453 
7062 1 68.8366 5.5311 7.45453 5.93775 -186441 -120377 32617.2 247540 26659.4 -1382.67 -7.41875 
7063 1 68.1134 4.30941 7.456 5.93889 -183769 -123756 -26179.4 252517 -24472.1 -2916.65 -7.41528 
7064 1 68.8092 3.07503 7.46137 5.936 -185078 -124334 18268.4 252571 26290.9 -1459.01 -7.41787 
7065 1 68.0857 1.85351 7.46427 5.93633 -182868 -127132 -11672.1 256042 -26076.3 -3365.48 -7.4161 
7066 1 68.7815 0.619169 7.469 5.93513 -181991 -128485 3509.69 254783 25546.7 -1588.84 -7.41699 
7272 1 71.0035 9.21261 7.45463 5.94121 -181783 -118661 52341.3 235436 26693.8 -396.592 -7.42002 
7273 1 70.2808 7.99068 7.45282 5.94319 -179109 -122323 -46372.9 241974 -21233.6 -1491.61 -7.4142 
7274 1 70.9769 6.7564 7.45784 5.93828 -183757 -121147 39175.2 244604 26886.9 -370.407 -7.41916 
7275 1 70.2538 5.53465 7.45745 5.93965 -181255 -124286 -32949.7 249765 -23410 -1984.61 -7.41492 
7276 1 70.9497 4.30034 7.46207 5.93635 -184186 -123928 25213.3 251053 26736.1 -434.248 -7.41829 
7277 1 70.2264 3.07874 7.46309 5.93703 -182119 -126507 -18813.6 254763 -25186.5 -2453.12 -7.4157 
7278 1 70.9222 1.84443 7.46706 5.93541 -183092 -126966 10725.3 254705 26217.7 -577.229 -7.41742 
7279 1 70.1987 0.622959 7.46941 5.93518 -181415 -128727 -4236.28 256785 -26516.4 -2866.14 -7.41653 
7485 1 72.4208 9.21584 7.45927 5.94409 -173821 -125143 -52517 237101 -19928.2 -603.448 -7.41389 
7486 1 73.1171 7.98169 7.46365 5.93884 -179652 -123298 45615.3 240776 26995.7 563.522 -7.41958 
7487 1 72.3941 6.75993 7.46153 5.94038 -177643 -126260 -39565.5 246170 -22230.1 -1062.17 -7.41458 
7488 1 73.0902 5.5257 7.4654 5.93671 -181883 -124959 32048.2 248680 27060.1 533.666 -7.41872 
7489 1 72.367 4.30407 7.46455 5.93759 -180142 -127202 -25802.4 252560 -24173.3 -1522.02 -7.41532 
7490 1 73.0629 3.06981 7.46772 5.93554 -182576 -126738 17839.5 253728 26765.2 406.604 -7.41785 
7491 1 72.3394 1.84828 7.46818 5.93577 -181343 -128320 -11475.7 256080 -25697.6 -1949.09 -7.41613 
7492 1 73.0354 0.614016 7.47046 5.93496 -181622 -128624 3272.43 255968 26083.8 193.66 -7.41698 
7698 1 75.2573 9.20687 7.47161 5.93943 -174097 -126305 51957 236137 26983.9 1421.54 -7.42 
7699 1 74.5344 7.98513 7.46798 5.94109 -172455 -129036 -46057.5 241749 -20936.4 -178.455 -7.41424 
7700 1 75.2307 6.75101 7.47119 5.93705 -177972 -126980 38803.5 245361 27262.6 1435.59 -7.41914 
7701 1 74.5075 5.52939 7.4686 5.93813 -176647 -129047 -32676.6 249493 -23036.7 -600.489 -7.41495 
7702 1 75.2036 4.2952 7.471 5.93561 -180418 -127654 24890.4 251884 27188.4 1343.63 -7.41828 
7703 1 74.4801 3.07366 7.46958 5.93613 -179567 -129045 -18614.4 254498 -24752.6 -1013.81 -7.41572 
7704 1 75.1761 1.83943 7.47104 5.93483 -181495 -128462 10489.8 255581 26731.8 1149.32 -7.41741 
7705 1 74.4526 0.617942 7.47086 5.93507 -180986 -128967 -4139.32 256534 -26043.7 -1385.95 -7.41655 
7911 1 76.6746 9.21018 7.47643 5.94186 -166091 -133027 -52449 236468 -19541.3 644.431 -7.41391 
7912 1 77.3712 7.97618 7.47908 5.93743 -172811 -130198 45494.2 241193 27345.1 2273.58 -7.41957 
7913 1 76.648 6.75461 7.47499 5.93867 -171750 -132112 -39471.1 245588 -21782.1 285.165 -7.41459 
7914 1 77.3443 5.5205 7.4767 5.93566 -176993 -129860 31906.3 249145 27488.4 2224.89 -7.41871 
7915 1 76.6208 4.299 7.47355 5.93646 -176300 -131015 -25692.4 251988 -23681.5 -86.6629 -7.41534 
7916 1 77.3169 3.06481 7.47423 5.93465 -179805 -129504 17695 254288 27254.2 2066.86 -7.41784 
7917 1 76.5933 1.84334 7.47217 5.93525 -179691 -129915 -11366 255557 -25182.8 -441.003 -7.41614 
7918 1 77.2893 0.609103 7.47179 5.93469 -181094 -129164 3147.78 256592 26611.7 1804.93 -7.41697 
8124 1 79.5118 9.20112 7.48859 5.93789 -166338 -134409 52133.8 236083 27315.3 3056.51 -7.42001 
8125 1 78.7885 7.97963 7.48333 5.93925 -165634 -136214 -46205.9 240794 -20419.8 1113.62 -7.41424 
8126 1 79.485 6.74561 7.48447 5.93575 -172166 -133194 38909.7 245462 27672 3048.59 -7.41915 
8127 1 78.7615 5.52419 7.47983 5.9368 -171797 -134237 -32738.6 248612 -22489.2 808.046 -7.41496 
8128 1 79.4577 4.29006 7.47982 5.93449 -176686 -131839 24921.5 252110 27655.3 2933.62 -7.41828 
8129 1 78.7341 3.06865 7.47603 5.93537 -176835 -132078 -18586.7 253656 -24194.7 499.998 -7.41573 
8130 1 79.4301 1.83444 7.47487 5.93429 -179856 -130378 10448.9 255927 27231.1 2709.13 -7.4174 
8131 1 78.7065 0.613018 7.47213 5.93485 -180462 -129678 -4030.36 255776 -25497.2 215.346 -7.41656 
8337 1 80.9292 9.20436 7.49307 5.93991 -158243 -141248 -52895.3 235039 -18960.3 1869.35 -7.4139 
8338 1 81.6259 7.97046 7.49379 5.93592 -165716 -137462 45915.5 240829 27747 3819.83 -7.4196 
8339 1 80.9023 6.74914 7.488 5.93719 -165864 -138416 -39777.7 244313 -21181.9 1649.37 -7.41458 
8340 1 81.5987 5.51509 7.48741 5.93437 -171952 -135163 32195.8 248983 27942.5 3744.25 -7.41873 
8341 1 80.875 4.29378 7.48216 5.93551 -172490 -135250 -25832.6 250828 -23082.3 1413.44 -7.41533 
8342 1 81.5711 3.05961 7.4803 5.9339 -176925 -132687 17832.6 254289 27730.8 3563.81 -7.41784 
8343 1 80.8474 1.83827 7.47587 5.93477 -177991 -131932 -11331.3 254484 -24604 1180.57 -7.41614 
8344 1 81.5433 0.604018 7.47287 5.93453 -180376 -130074 3127.71 256713 27080.5 3279.55 -7.41696 
8550 1 83.767 9.19495 7.504 5.93623 -158280 -142758 52926 235182 27710.4 4551.27 -7.42006 
8551 1 83.0433 7.97375 7.49747 5.93767 -158489 -143661 -46827.6 239038 -19763.8 2419.93 -7.41422 
8552 1 83.7399 6.7398 7.49645 5.93432 -166135 -139614 39533.2 244844 28116.6 4501.8 -7.41919 
8553 1 83.016 5.51862 7.49009 5.9357 -166709 -139688 -33133.4 247061 -21847.4 2276.01 -7.41494 
8554 1 83.7122 4.28452 7.48767 5.93357 -172823 -136228 25327.9 251729 28114.5 4360.56 -7.41829 
8555 1 82.9883 3.0633 7.48182 5.93471 -173913 -135354 -18721.5 252240 -23585.3 2122.67 -7.41572 
8556 1 83.6843 1.82907 7.47815 5.93392 -178162 -132576 10607.9 255695 27669.7 4122.43 -7.4174 
8557 1 82.9605 0.607772 7.47311 5.93474 -179740 -130767 -3899.47 254489 -24935.1 1973.74 -7.41656 
8763 1 85.1844 9.19795 7.50753 5.93829 -150202 -149980 -53884.5 232733 -18239.3 3108.18 -7.41385 
8764 1 85.8812 7.96411 7.50622 5.93441 -158517 -145168 46927.8 239680 28172 5221.35 -7.41966 
8765 1 85.1572 6.7431 7.49921 5.93597 -159868 -145201 -40499.9 242299 -20490 3068.83 -7.41454 
8766 1 85.8536 5.50907 7.49636 5.9333 -166937 -140878 32948.4 248162 28380 5104.62 -7.41877 
8767 1 85.1295 4.28801 7.48947 5.93472 -168648 -139899 -26226.3 249018 -22439 3015.79 -7.41531 
8768 1 85.8255 3.05382 7.48526 5.93334 -174111 -136260 18265.2 253684 28139.9 4907.26 -7.41786 
8769 1 85.1015 1.83267 7.47888 5.93443 -176312 -134367 -11365.8 252824 -24022.1 2954.09 -7.41613 
8770 1 85.7973 0.598346 7.47356 5.93451 -179694 -131459 3209.2 256238 27424.2 4625.08 -7.41696 
8976 1 88.0228 9.18794 7.51593 5.93466 -149685 -151496 54344.5 233391 28087 5932.37 -7.42014 
8977 1 87.2986 7.9671 7.50874 5.93637 -151194 -151543 -47921.7 236445 -19005.8 3780.24 -7.41415 
8978 1 87.9952 6.73317 7.50563 5.93314 -159662 -146409 40677.7 243478 28513.6 5818 -7.41925 
8979 1 87.2709 5.5123 7.49817 5.93483 -161585 -145493 -33855.6 244777 -21158.2 3839.02 -7.41489 