ITEM: TIMESTEP
0
ITEM: NUMBER OF ATOMS
30248
ITEM: BOX BOUNDS pp pp pp
0.0000000000000000e+00 1.5101903700000000e+02
0.0000000000000000e+00 2.6157264400000003e+02
0.0000000000000000e+00 1.8399999999999999e+01
ITEM: ATOMS id type x y z c_csym c_2[1] c_2[2] c_2[3] c_2[4] c_2[5] c_2[6] c_3 
243 1 0.77886 8.58995 7.5 6.03193 -142189 -133344 -155323 -320.794 10956.3 -1561.59 -7.41069 
244 1 0.0599123 7.36776 7.5 6.03192 -134680 -140385 -155345 81.429 10710.7 -287.744 -7.4107 
245 1 0.75889 6.13403 7.5 6.03193 -140369 -134264 -156525 -321.261 7852.34 -1372.93 -7.41063 
246 1 0.0399416 4.91184 7.5 6.03192 -135184 -139165 -156836 54.7772 6897.37 -203.868 -7.41062 
247 1 0.738919 3.67811 7.5 6.03193 -138780 -135254 -157386 -321.458 4746.22 -1191.08 -7.41059 
248 1 0.0199708 2.45592 7.5 6.03192 -135934 -137979 -157671 28.009 3344.74 -107.855 -7.41058 
249 1 0.718948 1.22219 7.5 6.0319 -137419 -136318 -157849 -321.894 1589.49 -1020.94 -7.41057 
250 1 0 0 7.5 6.0319 -136952 -136972 -157932 70.8669 0.0195251 0.0957345 -7.41057 
457 1 2.19679 8.57842 7.5 6.03194 -134485 -141078 -154240 1324.5 12575.4 -2830.55 -7.41075 
458 1 2.89576 7.3447 7.5 6.03194 -141247 -133970 -155503 -1038.42 9457.8 -4753.47 -7.41068 
459 1 2.17682 6.1225 7.5 6.03194 -134864 -139844 -156061 1226.62 8616.92 -2826.95 -7.41066 
460 1 2.87579 4.88878 7.5 6.03194 -139546 -134926 -156594 -1120.91 6338.69 -4400.86 -7.41063 
461 1 2.15684 3.66658 7.5 6.03194 -135491 -138639 -157185 1123.7 4939.21 -2826.18 -7.4106 
462 1 2.85582 2.43286 7.5 6.03191 -138073 -135959 -157313 -1204.69 3192.88 -4072.99 -7.4106 
463 1 2.13687 1.21066 7.5 6.03191 -136389 -137610 -157695 1089.22 1497.94 -2830.68 -7.41058 
670 1 5.03264 8.55536 7.5 6.03194 -142202 -133873 -153776 -1666.28 11236.7 -8344.89 -7.41077 
671 1 4.31369 7.33317 7.5 6.03194 -134738 -140710 -154919 2468.98 10344.4 -5412.43 -7.41071 
672 1 5.01267 6.09944 7.5 6.03194 -140399 -134792 -155142 -1831.53 8088.79 -7816.15 -7.4107 
673 1 4.29372 4.87725 7.5 6.03194 -135239 -139487 -156302 2293.89 6517.32 -5494.6 -7.41065 
674 1 4.9927 3.64352 7.5 6.03194 -138824 -135781 -156163 -1997.49 4929.66 -7320.07 -7.41065 
675 1 4.27375 2.42133 7.5 6.03191 -135980 -138308 -157029 2112.6 2949.41 -5595.99 -7.41061 
676 1 4.97272 1.1876 7.5 6.03191 -137510 -136970 -156779 -2234.72 1714.65 -6867.15 -7.41062 
883 1 6.45056 8.54383 7.5 6.03194 -134720 -141766 -153465 3776.47 12096.6 -7994.75 -7.41078 
884 1 7.14954 7.31011 7.5 6.03194 -141325 -134854 -152947 -2446.38 10008.7 -11467.5 -7.41081 
885 1 6.43059 6.08791 7.5 6.03194 -135098 -140527 -155080 3533.31 8104.29 -8154.61 -7.4107 
886 1 7.12957 4.85419 7.5 6.03194 -139652 -135807 -154314 -2696.72 6821.1 -10801 -7.41075 
887 1 6.41062 3.63199 7.5 6.03194 -135718 -139316 -155995 3277.79 4385.18 -8342.46 -7.41066 
888 1 7.1096 2.39827 7.5 6.03191 -138201 -136840 -155301 -2947.69 3594.8 -10183.6 -7.4107 
889 1 6.39065 1.17607 7.5 6.03191 -136603 -138282 -156293 3083.98 898.37 -8565.43 -7.41065 
1096 1 9.28641 8.52077 7.5 6.03194 -142315 -135112 -149925 -2959.45 12096.1 -15364.6 -7.41097 
1097 1 8.56746 7.29858 7.5 6.03194 -135065 -141751 -153572 4835.68 9714.77 -10830.7 -7.41077 
1098 1 9.26644 6.06485 7.5 6.03194 -140552 -136025 -151681 -3294.35 8876.17 -14535.5 -7.41088 
1099 1 8.54749 4.84266 7.5 6.03194 -135562 -140521 -154648 4510.81 5828.77 -11102.2 -7.41072 
1100 1 9.24647 3.60893 7.5 6.03194 -139012 -137013 -153084 -3631.51 5625.09 -13754.3 -7.41081 
1101 1 8.52752 2.38674 7.5 6.03191 -136290 -139337 -155062 4171.45 2191.95 -11415 -7.4107 
1102 1 9.2265 1.15301 7.5 6.03191 -137725 -138203 -154072 -4038.7 2305.62 -13036.2 -7.41076 
1309 1 10.7043 8.50924 7.5 6.03194 -135137 -143150 -151826 6192.78 11350.4 -13526.3 -7.41085 
1310 1 11.4033 7.27552 7.5 6.03194 -141517 -136434 -148184 -3784.09 11088.9 -18519.6 -7.41106 
1311 1 10.6844 6.05332 7.5 6.03194 -135513 -141906 -153038 5804.04 7292.55 -13887.3 -7.41079 
1312 1 11.3833 4.8196 7.5 6.03194 -139892 -137383 -150044 -4208.79 7810.87 -17585.5 -7.41096 
1313 1 10.6644 3.5974 7.5 6.03194 -136123 -140691 -153542 5392.7 3491 -14288.9 -7.41077 
1314 1 11.3634 2.36368 7.5 6.03191 -138481 -138414 -151515 -4634.23 4473.89 -16710.2 -7.41088 
1315 1 10.6444 1.14148 7.5 6.03191 -136989 -139653 -153419 5035.42 -88.0827 -14741.7 -7.41078 
1522 1 13.5402 8.48618 7.5 6.03194 -142534 -137029 -143749 -4159.87 13437.4 -22722.3 -7.41128 
1523 1 12.8212 7.26399 7.5 6.03194 -135570 -143454 -151212 7148.38 8775.77 -16686.9 -7.41088 
1524 1 13.5202 6.03026 7.5 6.03194 -140835 -137934 -146102 -4671.85 10142.6 -21657.7 -7.41116 
1525 1 12.8013 4.80807 7.5 6.03194 -136061 -142225 -151781 6671.55 4805.62 -17185.3 -7.41085 
1526 1 13.5002 3.57434 7.5 6.03194 -139347 -138917 -148095 -5186.67 6788.26 -20638.9 -7.41106 
1527 1 12.7813 2.35215 7.5 6.03191 -136772 -141040 -151678 6171.37 1068.21 -17730.6 -7.41086 
1528 1 13.4803 1.11842 7.5 6.03191 -138104 -140105 -149662 -5770.45 3347.34 -19684.7 -7.41097 
1735 1 14.9581 8.47465 7.5 6.03194 -135723 -145145 -149217 8530.7 10263.9 -19466.9 -7.41097 
1736 1 15.6571 7.24092 7.5 6.03194 -141830 -138660 -141192 -5015.04 12595 -25924.1 -7.41142 
1737 1 14.9381 6.01873 7.5 6.03194 -136102 -143909 -149826 7996.83 6132.78 -20078.3 -7.41094 
1738 1 15.6371 4.78501 7.5 6.03194 -140272 -139600 -143740 -5619.81 9235.43 -24786.7 -7.41128 
1739 1 14.9182 3.56281 7.5 6.03194 -136700 -142700 -149719 7428.66 2234.7 -20725.4 -7.41096 
1740 1 15.6171 2.32909 7.5 6.03191 -138917 -140625 -145891 -6225.65 5790.91 -23697.3 -7.41117 
1741 1 14.8982 1.10689 7.5 6.03191 -137542 -141669 -148975 6904.86 -1454.43 -21420.3 -7.411 
1948 1 17.794 8.45159 7.5 6.03194 -142865 -139548 -135262 -5235.04 15128.2 -30311.8 -7.41172 
1949 1 17.075 7.22939 7.5 6.03194 -136237 -145717 -147728 9354.03 7456.3 -22919.8 -7.41104 
1950 1 17.774 5.99567 7.5 6.03194 -141251 -140443 -138388 -5927.14 11787.1 -29090.7 -7.41156 
1951 1 17.055 4.77348 7.5 6.03194 -136726 -144505 -147591 8727.68 3406.34 -23685.6 -7.41105 
1952 1 17.754 3.53975 7.5 6.03194 -139833 -141416 -141154 -6624.37 8353.31 -27893.2 -7.41141 
1953 1 17.0351 2.31756 7.5 6.03191 -137420 -143335 -146775 8065.29 -430.756 -24484.4 -7.4111 
1954 1 17.7341 1.08383 7.5 6.03191 -138643 -142592 -143487 -7388.29 4810.99 -26739.9 -7.41128 
2161 1 19.2119 8.44006 7.5 6.03194 -136457 -147612 -145536 10724.2 8748.12 -25642.9 -7.41114 
2162 1 19.9109 7.20633 7.5 6.03194 -142270 -141430 -132000 -6106.07 14401.3 -33464.3 -7.41189 
2163 1 19.1919 5.98414 7.5 6.03194 -136846 -146411 -145347 10051.3 4565.63 -26550.3 -7.41116 
2164 1 19.8909 4.75042 7.5 6.03194 -140798 -142357 -135399 -6892.34 11003.3 -32195.1 -7.41171 
2165 1 19.1719 3.52822 7.5 6.03194 -137438 -145231 -144436 9329.57 590.589 -27470.3 -7.41121 
2166 1 19.8709 2.2945 7.5 6.03191 -139510 -143366 -138403 -7678.87 7491.43 -30942.6 -7.41154 
2167 1 19.152 1.0723 7.5 6.03191 -138254 -144222 -142882 8641.17 -3190.03 -28414.5 -7.4113 
2374 1 22.0477 8.417 7.5 6.03194 -143316 -142539 -124557 -6156.82 17024.9 -37802.1 -7.41228 
2375 1 21.3288 7.1948 7.5 6.03194 -137047 -148377 -143041 11379.1 5684.43 -29243.1 -7.41126 
2376 1 22.0278 5.96108 7.5 6.03194 -141805 -143420 -128597 -7026.58 13697.1 -36504.6 -7.41206 
2377 1 21.3088 4.73889 7.5 6.03194 -137542 -147213 -142012 10611.4 1591.23 -30306.2 -7.41132 
2378 1 22.0078 3.50516 7.5 6.03194 -140469 -144373 -132286 -7902.27 10242.1 -35190.3 -7.41186 
2379 1 21.2889 2.28297 7.5 6.03191 -138222 -146082 -140299 9794.18 -2308.89 -31370.5 -7.41142 
2380 1 21.9878 1.04924 7.5 6.03191 -139341 -145525 -135546 -8842.62 6655.04 -33879.8 -7.41168 
2587 1 23.4657 8.40547 7.5 6.03194 -137309 -150355 -140733 12685.4 6726.91 -31678.2 -7.41136 
2588 1 24.1646 7.17174 7.5 6.03194 -142840 -144577 -120742 -7028.42 16381.4 -40708.4 -7.41247 
2589 1 23.4457 5.94955 7.5 6.03194 -137724 -149225 -139562 11888 2543.38 -32909 -7.41144 
2590 1 24.1447 4.71583 7.5 6.03194 -141467 -145484 -125119 -7987.89 13017.7 -39375.9 -7.41224 
2591 1 23.4257 3.49363 7.5 6.03194 -138317 -148106 -137670 11025 -1456.32 -34114.1 -7.41155 
2592 1 24.1247 2.25991 7.5 6.03191 -140254 -146465 -129115 -8946.6 9511.18 -38012.1 -7.41202 
2593 1 23.4058 1.03771 7.5 6.03191 -139113 -147148 -135137 10181.9 -5274.35 -35303.3 -7.41169 
2800 1 26.3015 8.38241 7.5 6.03194 -143888 -145801 -111856 -6903.85 18996.5 -44685.6 -7.41294 
2801 1 25.5826 7.16021 7.5 6.03194 -137967 -151215 -137152 13132.3 3413.12 -35190.5 -7.41155 
2802 1 26.2815 5.92649 7.5 6.03194 -142494 -146661 -116910 -7937.17 15764.8 -43381.6 -7.41267 
2803 1 25.5626 4.7043 7.5 6.03194 -138483 -150137 -135059 12241.6 -659.24 -36558.6 -7.41167 
2804 1 26.2616 3.47057 7.5 6.03194 -141249 -147584 -121637 -8977.21 12373.2 -42007.8 -7.41241 
2805 1 25.5426 2.24838 7.5 6.03191 -139159 -149079 -132288 11285.8 -4554.79 -37883 -7.41183 
2806 1 26.2416 1.01465 7.5 6.03191 -140184 -148694 -125953 -10078.1 8826.38 -40583.6 -7.41217 
3013 1 27.7194 8.37088 7.5 6.03194 -138248 -153126 -134848 14313.8 4164.17 -37065.9 -7.41165 
3015 1 27.6995 5.91496 7.5 6.03194 -138705 -152112 -132534 13415.3 50.7129 -38617 -7.41179 
3017 1 27.6795 3.45904 7.5 6.03194 -139314 -151091 -129509 12434.7 -3896.89 -40096.2 -7.41196 
3019 1 27.6595 1.00312 7.5 6.03191 -140098 -150215 -125855 11459.3 -7671.3 -41509.4 -7.41216 
3014 1 28.4184 7.13715 7.5 6.03194 -143536 -147872 -107692 -7757.13 18425.7 -47086.8 -7.41316 
3016 1 28.3984 4.68123 7.5 6.03194 -142270 -148747 -113134 -8868.62 15188 -45748.5 -7.41286 
3018 1 28.3785 2.22532 7.5 6.03191 -141134 -149684 -118224 -9977.65 11780.6 -44321.6 -7.41258 
3226 1 30.5553 8.34782 7.5 6.03194 -144576 -149080 -97528.7 -7458.65 20941.9 -50376.2 -7.4137 
3227 1 29.8363 7.12562 7.5 6.03194 -138961 -153970 -130166 14515.1 641.124 -40210.3 -7.4119 
3228 1 30.5353 5.8919 7.5 6.03194 -143308 -149912 -103655 -8628.39 17899.6 -49117.4 -7.41336 
3229 1 29.8164 4.6697 7.5 6.03194 -139517 -153019 -126870 13530.6 -3329.55 -41860.8 -7.41208 
3230 1 30.5154 3.43598 7.5 6.03194 -142156 -150789 -109494 -9804.89 14668.8 -47731.9 -7.41304 
3231 1 29.7964 2.21379 7.5 6.03191 -140202 -152070 -122912 12464.7 -7133.48 -43418.1 -7.41231 
3232 1 30.4954 0.980061 7.5 6.03191 -141152 -151835 -114955 -11037.6 11261.2 -46236.7 -7.41274 
3439 1 31.9732 8.33629 7.5 6.03194 -139228 -155654 -128026 15508.2 1082.58 -41273.9 -7.412 
3440 1 32.6722 7.10256 7.5 6.03194 -144344 -151040 -93272.8 -8268.57 20452.9 -52007.4 -7.41392 
3441 1 31.9532 5.88037 7.5 6.03194 -139750 -154797 -124444 14542.2 -2881.13 -43106.6 -7.4122 
3442 1 32.6522 4.64664 7.5 6.03194 -143189 -151872 -99825.8 -9498.88 17437 -50705.1 -7.41356 
3443 1 31.9333 3.42445 7.5 6.03194 -140393 -153914 -120171 13476.9 -6688.77 -44821.2 -7.41244 
3444 1 32.6323 2.19073 7.5 6.03191 -142129 -152744 -106070 -10723.7 14228 -49257.1 -7.41321 
3445 1 31.9133 0.968531 7.5 6.03191 -141178 -153154 -115294 12403.3 -10325.7 -46419.1 -7.41271 
3652 1 34.8091 8.31323 7.5 6.03194 -145363 -152096 -82087.9 -7805.06 22797.5 -54327.1 -7.41451 
3653 1 34.0901 7.09103 7.5 6.03194 -139989 -156369 -122304 15436.9 -2575.78 -43781.6 -7.4123 
3654 1 34.7891 5.85731 7.5 6.03194 -144223 -152888 -89303.2 -9072.52 20033.5 -53145 -7.41412 
3655 1 34.0702 4.63511 7.5 6.03194 -140604 -155583 -117706 14395.9 -6361.26 -45660.2 -7.41256 
3656 1 34.7691 3.40139 7.5 6.03194 -143163 -153703 -96287.7 -10344.6 17057.8 -51784 -7.41374 
3657 1 34.0502 2.1792 7.5 6.03191 -141316 -154776 -112474 13259.6 -9982.32 -47400 -7.41285 
3658 1 34.7492 0.945471 7.5 6.03191 -142212 -154665 -102940 -11668.6 13886 -50258.7 -7.41337 
3865 1 36.227 8.3017 7.5 6.03194 -140208 -157682 -120515 16183.7 -2430.36 -43856 -7.41238 
3866 1 36.926 7.06797 7.5 6.03194 -145242 -153801 -78035.2 -8542.71 22412 -54974.4 -7.41472 
3867 1 36.207 5.84578 7.5 6.03194 -140815 -157017 -115588 15189.6 -6169.89 -45897.5 -7.41266 
3868 1 36.906 4.61205 7.5 6.03194 -144194 -154576 -85703.5 -9845.9 19702.4 -53734.5 -7.4143 
3869 1 36.1871 3.38986 7.5 6.03194 -141511 -156301 -109998 14082.8 -9753.82 -47782.5 -7.41297 
3870 1 36.886 2.15614 7.5 6.03191 -143201 -155366 -93121.1 -11140.4 16780.3 -52300.7 -7.41389 
3871 1 36.1671 0.933941 7.5 6.03191 -142314 -155686 -103839 12955 -13162.8 -49508.3 -7.41331 
4078 1 39.0628 8.27864 7.5 6.03194 -146227 -154582 -66149.4 -7928.66 24534.3 -56138.5 -7.41537 
4079 1 38.3439 7.05644 7.5 6.03194 -141004 -158169 -113881 15827.9 -6125.67 -45519.2 -7.41274 
4080 1 39.0429 5.82272 7.5 6.03194 -145212 -155323 -74433.1 -9245.1 22119.7 -55046.5 -7.41491 
4081 1 38.3239 4.60052 7.5 6.03194 -141698 -157577 -107934 14774 -9653.98 -47544.4 -7.41307 
4082 1 39.0229 3.3668 7.5 6.03194 -144234 -156061 -82553.8 -10563 19475.6 -53735.9 -7.41446 
4083 1 38.304 2.14461 7.5 6.03191 -142456 -156937 -101389 13613.3 -13012.1 -49396.7 -7.41343 
4084 1 39.0029 0.910881 7.5 6.03191 -143324 -156918 -90402.5 -11927 16618.4 -52219.3 -7.41403 
4291 1 40.4808 8.26711 7.5 6.03194 -141144 -159005 -112637 16284 -6230 -44536.9 -7.4128 
4292 1 41.1797 7.03338 7.5 6.03194 -146197 -155917 -62608.9 -8561.74 24276 -55681.4 -7.41555 
4293 1 40.4608 5.81119 7.5 6.03194 -141857 -158554 -106343 15304.7 -9688.29 -46688.3 -7.41315 
4294 1 41.1598 4.57746 7.5 6.03194 -145249 -156621 -71359.3 -9885.72 21933.9 -54518.1 -7.41507 
4295 1 40.4408 3.35527 7.5 6.03194 -142625 -158027 -99419.5 14202.8 -12982.6 -48659 -7.41353 
4296 1 41.1398 2.12154 7.5 6.03191 -144312 -157312 -79927.5 -11195.7 19363.4 -53128.6 -7.4146 
4297 1 40.4209 0.899351 7.5 6.03191 -143463 -157574 -91969.7 13071.1 -16091.3 -50442.3 -7.41394 
4504 1 43.3166 8.24405 7.5 6.03194 -147134 -156340 -50375.4 -7817.78 26147.4 -55624.7 -7.41621 
4505 1 42.5977 7.02185 7.5 6.03194 -141963 -159206 -105271 15650 -9852.69 -45241.1 -7.4132 
4506 1 43.2967 5.78813 7.5 6.03194 -146234 -157016 -59673 -9128.35 24126 -54624.5 -7.4157 
4507 1 42.5777 4.56593 7.5 6.03194 -142756 -158818 -97984.3 14628.9 -13074.5 -47313.4 -7.4136 
4508 1 43.2767 3.33221 7.5 6.03194 -145327 -157664 -68883.1 -10436.7 21861.5 -53383.8 -7.4152 
4509 1 42.5577 2.11001 7.5 6.03191 -143576 -158359 -90139.8 13492.9 -16113.3 -49195 -7.41403 
4510 1 43.2567 0.87629 7.5 6.03191 -144444 -158403 -77888.9 -11786.4 19369.2 -51913.1 -7.4147 
4717 1 44.7345 8.23252 7.5 6.03194 -141997 -159519 -104751 15791 -10133.3 -43252.1 -7.41322 
4718 1 45.4335 6.99879 7.5 6.03194 -147173 -157233 -47639.5 -8313.8 26031.9 -54055.2 -7.41636 
4719 1 44.7146 5.7766 7.5 6.03194 -142831 -159282 -97124.2 14868 -13278.8 -45401.5 -7.41364 
4720 1 45.4136 4.54287 7.5 6.03194 -146309 -157855 -57405.1 -9602.79 24087.4 -52976.7 -7.41582 
4721 1 44.6946 3.32068 7.5 6.03194 -143688 -158950 -88905.6 13817.4 -16244.6 -47362.5 -7.41409 
4722 1 45.3936 2.08695 7.5 6.03191 -145413 -158438 -67062.4 -10873.3 21901.6 -51658.6 -7.41529 
4723 1 44.6746 0.86476 7.5 6.03191 -144577 -158668 -80206.6 12731.7 -19009 -49126 -7.41457 
4931 1 46.8514 6.98726 7.5 6.03194 -142830 -159417 -96863.2 14904.3 -13577.2 -42984.5 -7.41365 
4933 1 46.8315 4.53134 7.5 6.03194 -143735 -159231 -88299.9 13956.6 -16471.8 -44998.9 -7.41412 
4935 1 46.8115 2.07542 7.5 6.03191 -144632 -158953 -79220.4 12892.5 -19165.2 -46822.2 -7.41462 
4930 1 47.5704 8.20946 7.5 6.03194 -148048 -157269 -35408.5 -7463.74 27641.4 -52831.1 -7.41702 
4932 1 47.5504 5.75354 7.5 6.03194 -147248 -157871 -45637.1 -8714.66 26025.1 -51920.6 -7.41646 
4934 1 47.5305 3.29762 7.5 6.03194 -146395 -158420 -55856.3 -9958.67 24155.5 -50766.6 -7.4159 
4936 1 47.5105 0.8417 7.5 6.03191 -145524 -159036 -65941.4 -11239.5 22044.7 -49378.6 -7.41535 
5143 1 48.9883 8.19793 7.5 6.03194 -142738 -159231 -97207.7 14727.9 -13943.5 -40138.9 -7.41364 
5144 1 49.6873 6.9642 7.5 6.03194 -148125 -157714 -33724.8 -7795.12 27667.6 -50246.6 -7.41711 
5145 1 48.9684 5.74201 7.5 6.03194 -143702 -159196 -88338.4 13895.7 -16772.7 -42175 -7.41412 
5146 1 49.6673 4.50828 7.5 6.03194 -147331 -158246 -44410.9 -8995.54 26118.5 -49260.9 -7.41653 
5147 1 48.9484 3.28609 7.5 6.03194 -144660 -159048 -78912.7 12938.1 -19402 -44031.4 -7.41464 
5148 1 49.6474 2.05236 7.5 6.03191 -146460 -158717 -55062.2 -10174.3 24317.1 -48041.1 -7.41594 
5149 1 48.9284 0.83017 7.5 6.03191 -145614 -158930 -69052.1 11944.9 -21810.4 -45697.5 -7.41517 
5356 1 51.8242 8.17487 7.5 6.03194 -148927 -157395 -21813.2 -6865.68 29015.8 -48000.4 -7.41777 
5357 1 51.1052 6.95267 7.5 6.03194 -143577 -158866 -89018.3 13627.7 -17118.5 -38973.9 -7.41409 
5358 1 51.8042 5.71895 7.5 6.03194 -148209 -157916 -32867.6 -8005.9 27786.5 -47180.7 -7.41716 
5359 1 51.0853 4.49675 7.5 6.03194 -144600 -158861 -79290.3 12788.3 -19693.9 -40831.5 -7.41462 
5360 1 51.7842 3.26303 7.5 6.03194 -147395 -158364 -43988 -9135.74 26295.5 -46132.1 -7.41655 
5361 1 51.0653 2.04083 7.5 6.03191 -145586 -158750 -69084.9 11835.5 -22047.3 -42513.3 -7.41517 
5362 1 51.7643 0.807109 7.5 6.03191 -146520 -158857 -55041.8 -10300.2 24550.9 -44863.1 -7.41594 
5569 1 53.2421 8.16334 7.5 6.03194 -143350 -158269 -90318.9 13153.1 -17475 -35484.7 -7.41402 
5570 1 53.9411 6.92961 7.5 6.03194 -149014 -157448 -21365.1 -7010.83 29162.7 -44576.3 -7.41779 
5571 1 53.2221 5.70742 7.5 6.03194 -144446 -158408 -80341.6 12437.9 -20009.9 -37309.4 -7.41456 
5572 1 53.9211 4.47369 7.5 6.03194 -148271 -157889 -32854.9 -8076.94 27978.5 -43695.8 -7.41716 
5573 1 53.2022 3.2515 7.5 6.03194 -145509 -158422 -69839.2 11604.7 -22322.5 -38975.7 -7.41514 
5574 1 53.9011 2.01777 7.5 6.03191 -147411 -158249 -44378.4 -9118.54 26531.9 -42602.7 -7.41653 
5575 1 53.1822 0.795579 7.5 6.03191 -146537 -158452 -58943.4 10741.9 -24393.8 -40473.4 -7.41573 
5782 1 56.078 8.14028 7.5 6.03194 -149732 -156863 -10036.2 -6030.8 30256.2 -41504.8 -7.41842 
5783 1 55.359 6.91808 7.5 6.03194 -144189 -157726 -82037.4 11888.6 -20314.8 -33554.5 -7.41448 
5784 1 56.058 5.68436 7.5 6.03194 -149077 -157302 -21795.2 -7018.29 29371.2 -40784.9 -7.41777 
5785 1 55.339 4.46216 7.5 6.03194 -145330 -157874 -71295 11181.2 -22603.2 -35172.2 -7.41506 
5786 1 56.038 3.22844 7.5 6.03194 -148287 -157652 -33687.8 -7992.33 28217.1 -39864 -7.41712 
5787 1 55.3191 2.00624 7.5 6.03191 -146407 -157904 -60108.7 10370 -24648.2 -36640.5 -7.41567 
5788 1 56.018 0.772519 7.5 6.03191 -147398 -158032 -45574.1 -9002 26797.6 -38750.1 -7.41647 
5995 1 57.4959 8.12875 7.5 6.03194 -143827 -156859 -84332.7 11149.4 -20572 -29654.4 -7.41436 
5996 1 58.1949 6.89502 7.5 6.03194 -149800 -156633 -10935 -5979.14 30484.2 -37455.8 -7.41837 
5997 1 57.4759 5.67283 7.5 6.03194 -145048 -157137 -73415 10567.6 -22853.5 -31190.3 -7.41495 
5998 1 58.1749 4.4391 7.5 6.03194 -149093 -156987 -23096.2 -6872.86 29613.2 -36699.3 -7.4177 
5999 1 57.4559 3.21691 7.5 6.03194 -146214 -157282 -61997.8 9881.26 -24891.1 -32597.6 -7.41557 
6000 1 58.1549 1.98318 7.5 6.03191 -148232 -157248 -35350.4 -7743.21 28470.5 -35762.8 -7.41703 
6001 1 57.436 0.760989 7.5 6.03191 -147317 -157435 -50222.1 9175.5 -26667.6 -33867.1 -7.41621 
6207 1 59.6327 9.33941 7.5 6.03194 -143365 -155859 -87169.1 10234.3 -20745.7 -25690.3 -7.41422 
6208 1 60.3317 8.10569 7.5 6.03194 -150428 -155909 -392.148 -4977.63 31331.9 -33765 -7.41895 
6209 1 59.6128 6.88349 7.5 6.03194 -144661 -156257 -76147.4 9773.3 -23037 -27113.1 -7.41481 
6210 1 60.3118 5.64977 7.5 6.03194 -149819 -156273 -12723.4 -5779.35 30731.9 -33162.7 -7.41827 
6211 1 59.5928 4.42757 7.5 6.03194 -145912 -156522 -64567 9211.69 -25086.6 -28428.1 -7.41544 
6212 1 60.2918 3.19385 7.5 6.03194 -149040 -156534 -25244.8 -6567.1 29855.8 -32395.6 -7.41759 
6213 1 59.5728 1.97165 7.5 6.03191 -147075 -156665 -52569.2 8561.58 -26873.1 -29626.6 -7.41609 
6214 1 60.2718 0.737929 7.5 6.03191 -148129 -156816 -37810.3 -7393.79 28703.5 -31471.2 -7.4169 
6420 1 62.4686 9.31635 7.5 6.03194 -150952 -155164 9724.97 -4029.19 31931.6 -29766.3 -7.41951 
6421 1 61.7497 8.09415 7.5 6.03194 -144174 -155287 -79427.9 8813.63 -23118.7 -23015.2 -7.41464 
6422 1 62.4486 6.86043 7.5 6.03194 -150452 -155541 -2681.1 -4728.51 31588.5 -29306.1 -7.41883 
6423 1 61.7297 5.63824 7.5 6.03194 -145506 -155665 -67758 8371.28 -25198.4 -24209 -7.41527 
6424 1 62.4287 4.40451 7.5 6.03194 -149767 -155818 -15371.5 -5423.44 30966.1 -28698.1 -7.41813 
6425 1 61.7097 3.18232 7.5 6.03194 -146764 -155908 -55607.4 7844.02 -27015.5 -25307.1 -7.41593 
6426 1 62.4087 1.94859 7.5 6.03191 -148897 -155994 -28202.4 -6097.19 30063.6 -27948.4 -7.41743 
6427 1 61.6897 0.726399 7.5 6.03191 -147938 -156155 -43125.4 7313.33 -28554.3 -26302.7 -7.41661 
6633 1 63.8865 9.30482 7.5 6.03194 -143597 -154280 -83182.8 7706.69 -23067 -18960.6 -7.41445 
6634 1 64.5855 8.07109 7.5 6.03194 -150984 -154822 6927.54 -3736.33 32200.5 -25177.9 -7.41936 
6635 1 63.8666 6.8489 7.5 6.03194 -144999 -154759 -71501.7 7374.74 -25192.7 -20007.4 -7.41508 
6636 1 64.5655 5.61518 7.5 6.03194 -150405 -155119 -5837.24 -4328.49 31817.3 -24717.1 -7.41866 
6637 1 63.8466 4.39298 7.5 6.03194 -146343 -155105 -59273.9 6965.27 -27059.4 -20978.3 -7.41574 
6638 1 64.5456 3.15926 7.5 6.03194 -149631 -155308 -18835.6 -4908.95 31151.6 -24131.7 -7.41794 
6639 1 63.8266 1.93706 7.5 6.03191 -147582 -155328 -46648.3 6486.39 -28647 -21867.2 -7.41643 
6640 1 64.5256 0.703338 7.5 6.03191 -148697 -155511 -31916.3 -5534.86 30200.5 -23428.4 -7.41723 
6847 1 66.0034 8.05956 7.5 6.03194 -144405 -153853 -75720.6 6240.5 -25039.1 -15879.6 -7.41486 
6849 1 65.9835 5.60365 7.5 6.03194 -145824 -154294 -63495.6 5939.13 -26971.9 -16699.7 -7.41552 
6851 1 65.9635 3.14773 7.5 6.03194 -147157 -154603 -50802.6 5575.42 -28627.7 -17457 -7.41621 
6853 1 65.9435 0.691808 7.5 6.03191 -148390 -154914 -37797.7 5227.84 -29992.1 -18147.2 -7.41691 
6846 1 66.7224 9.28176 7.5 6.03194 -151409 -154146 16008.5 -2816.38 32587.6 -20821.7 -7.41986 
6848 1 66.7024 6.82584 7.5 6.03194 -150945 -154466 3259.26 -3298.3 32427.6 -20495.1 -7.41916 
6850 1 66.6824 4.36992 7.5 6.03194 -150273 -154682 -9812.72 -3776.47 31984.1 -20061.9 -7.41844 
6852 1 66.6625 1.914 7.5 6.03191 -149392 -154792 -23059.5 -4239.15 31253.3 -19527.4 -7.41772 
7059 1 68.1403 9.27023 7.5 6.03194 -143735 -152994 -80331.6 4989.76 -24711.8 -11870.6 -7.41462 
7060 1 68.8393 8.0365 7.5 6.03194 -151379 -153883 11827.1 -2346.25 32817.3 -16069.9 -7.41963 
7061 1 68.1203 6.81431 7.5 6.03194 -145215 -153520 -68192 4783.59 -26723.7 -12519.8 -7.41527 
7062 1 68.8193 5.58059 7.5 6.03194 -150818 -154130 -1229.23 -2714.7 32579.7 -15775.7 -7.41892 
7063 1 68.1004 4.35839 7.5 6.03194 -146629 -153916 -55513.1 4526.07 -28464.4 -13123.4 -7.41596 
7064 1 68.7993 3.12467 7.5 6.03194 -150042 -154265 -14548.4 -3074.69 32054.6 -15397.8 -7.41819 
7065 1 68.0804 1.90247 7.5 6.03191 -147924 -154189 -42449.1 4223.09 -29914.7 -13678.5 -7.41666 
7066 1 68.7794 0.668748 7.5 6.03191 -149090 -154412 -27975.6 -3489.92 31236.6 -14941.7 -7.41745 
7272 1 70.9762 9.24717 7.5 6.03194 -151705 -153391 19783.4 -1484.7 33008.3 -11475.3 -7.42007 
7273 1 70.2572 8.02497 7.5 6.03194 -144533 -152821 -73278 3518.24 -26290 -8476.69 -7.415 
7274 1 70.9562 6.79125 7.5 6.03194 -151261 -153672 6826.14 -1737.55 32959.7 -11305.7 -7.41936 
7275 1 70.2372 5.56906 7.5 6.03194 -146011 -153296 -60696.9 3354.85 -28129 -8908.2 -7.41568 
7276 1 70.9362 4.33533 7.5 6.03194 -150595 -153845 -6477.14 -1988.18 32624.2 -11070.7 -7.41863 
7277 1 70.2173 3.11314 7.5 6.03194 -147395 -153640 -47655.5 3155.59 -29681.8 -9307.79 -7.41639 
7278 1 70.9162 1.87941 7.5 6.03191 -149706 -153910 -19975.9 -2231.51 31996.3 -10774.5 -7.41789 
7279 1 70.1973 0.657218 7.5 6.03191 -148668 -153988 -34314.1 2994.86 -30935.2 -9674.31 -7.41711 
7485 1 72.3941 9.23564 7.5 6.03194 -143794 -152230 -78665.7 2164.1 -25650.5 -4599.51 -7.41472 
7486 1 73.0931 8.00191 7.5 6.03194 -151597 -153320 14271.7 -857.098 33146.8 -6681.99 -7.41977 
7487 1 72.3741 6.77972 7.5 6.03194 -145320 -152776 -66267.5 2080.57 -27597.3 -4843.46 -7.41538 
7488 1 73.0731 5.546 7.5 6.03194 -151045 -153535 1067.24 -992.718 32983.7 -6574.68 -7.41905 
7489 1 72.3541 4.3238 7.5 6.03194 -146774 -153194 -53333.7 1974.02 -29266.3 -5070.06 -7.41608 
7490 1 73.0531 3.09008 7.5 6.03194 -150269 -153638 -12414.9 -1126.28 32529.7 -6424.23 -7.41831 
7491 1 72.3342 1.86788 7.5 6.03191 -148104 -153490 -40021.9 1846.7 -30638.9 -5279.6 -7.4168 
7492 1 73.0331 0.634157 7.5 6.03191 -149306 -153751 -26017.9 -1326.29 31778.2 -6234.48 -7.41757 
7698 1 75.2299 9.21258 7.5 6.03194 -151824 -153081 21032.6 -83.0224 33166.2 -1933.88 -7.42014 
7699 1 74.511 7.99038 7.5 6.03194 -144571 -152380 -72135.6 722.973 -26849.7 -954.179 -7.41507 
7700 1 75.21 6.75666 7.5 6.03194 -151389 -153342 8003.33 -100.848 33157.2 -1937.34 -7.41943 
7701 1 74.491 5.53446 7.5 6.03194 -146076 -152864 -59395.9 695.245 -28644.8 -993.11 -7.41576 
7702 1 75.19 4.30074 7.5 6.03194 -150725 -153495 -5380 -119.485 32859.8 -1916.32 -7.41869 
7703 1 74.471 3.07855 7.5 6.03194 -147484 -153219 -46199.1 659.355 -30150.2 -1029.35 -7.41647 
7704 1 75.17 1.84482 7.5 6.03191 -149834 -153538 -18965.9 -139.538 32267.3 -1873.68 -7.41795 
7705 1 74.4511 0.622627 7.5 6.03191 -148776 -153576 -32707.8 686.74 -31353.3 -1064.89 -7.4172 
7911 1 76.6479 9.20105 7.5 6.03194 -143784 -152124 -78211.3 -698.698 -25870.5 2739.53 -7.41474 
7912 1 77.3468 7.96732 7.5 6.03194 -151628 -153263 14256.1 677.498 33171.4 2812.73 -7.41977 
7913 1 76.6279 6.74513 7.5 6.03194 -145320 -152668 -65752.1 -661.697 -27797.7 2900.81 -7.41541 
7914 1 77.3269 5.5114 7.5 6.03194 -151079 -153469 1047.65 777.026 33011.7 2722.48 -7.41904 
7915 1 76.6079 4.28921 7.5 6.03194 -146783 -153084 -52758.3 -618.628 -29446.4 3052.17 -7.41611 
7916 1 77.3069 3.05549 7.5 6.03194 -150303 -153561 -12438.8 872.727 32560.3 2635.11 -7.41831 
7917 1 76.5879 1.83329 7.5 6.03191 -148121 -153378 -39388.2 -569.475 -30798.3 3190.08 -7.41684 
7918 1 77.2869 0.599567 7.5 6.03191 -149341 -153664 -26046.6 889.326 31810 2548.53 -7.41756 
8124 1 79.4837 9.17799 7.5 6.03194 -151765 -153288 19757.2 1334.3 33054.9 7643.63 -7.42007 
8125 1 78.7648 7.95579 7.5 6.03194 -144525 -152614 -72310.7 -2078.24 -26709.3 6592.39 -7.41506 
8126 1 79.4637 6.72207 7.5 6.03194 -151326 -153550 6792.49 1552.85 33013.5 7462.62 -7.41936 
8127 1 78.7448 5.49987 7.5 6.03194 -146022 -153085 -59608.3 -1969.82 -28508.1 6943.62 -7.41574 
8128 1 79.4438 4.26615 7.5 6.03194 -150663 -153704 -6519.02 1766.75 32683.9 7264.91 -7.41863 
8129 1 78.7248 3.04396 7.5 6.03194 -147425 -153426 -46448.3 -1842.28 -30019.6 7268.49 -7.41645 
8130 1 79.4238 1.81023 7.5 6.03191 -149777 -153750 -20026.7 1969.88 32059.7 7049.12 -7.41789 
8131 1 78.7048 0.588037 7.5 6.03191 -148712 -153770 -32992.9 -1627.03 -31231.1 7561.94 -7.41719 
8337 1 80.9016 9.16646 7.5 6.03194 -143709 -152702 -78979.6 -3535.82 -25367 10062.9 -7.4147 
8338 1 81.6006 7.93273 7.5 6.03194 -151471 -153721 11785.6 2199.55 32895.5 12269.4 -7.41963 
8339 1 80.8817 6.71054 7.5 6.03194 -145219 -153223 -66656.5 -3376.32 -27319.5 10624.9 -7.41536 
8340 1 81.5806 5.47681 7.5 6.03194 -150917 -153940 -1282.09 2532.82 32667.5 11983.3 -7.41891 
8341 1 80.8617 4.25462 7.5 6.03194 -146659 -153614 -53797.1 -3182.51 -28998.4 11149 -7.41605 
8342 1 81.5607 3.0209 7.5 6.03194 -150146 -154047 -14613.8 2856 32149.3 11659.1 -7.41818 
8343 1 80.8417 1.7987 7.5 6.03191 -147979 -153883 -40557.9 -2956.85 -30385.6 11628.4 -7.41677 
8344 1 81.5407 0.564977 7.5 6.03191 -149196 -154164 -28054.7 3088.28 31334.3 11296.6 -7.41745 
8550 1 83.7375 9.1434 7.5 6.03194 -151526 -153958 15965.7 2712.5 32690.3 17101.6 -7.41986 
8551 1 83.0185 7.9212 7.5 6.03194 -144391 -153490 -73808.6 -4819.64 -25867.5 14075.1 -7.41497 
8552 1 83.7175 6.68748 7.5 6.03194 -151072 -154244 3202.85 3162.51 32542.9 16751.4 -7.41916 
8553 1 82.9986 5.46528 7.5 6.03194 -145848 -153926 -61340.1 -4573.19 -27718.6 14808.9 -7.41564 
8554 1 83.6975 4.23156 7.5 6.03194 -150407 -154423 -9884.42 3605.94 32109.6 16342.4 -7.41844 
8555 1 82.9786 3.00937 7.5 6.03194 -147216 -154230 -48409.1 -4280.24 -29290 15485.9 -7.41634 
8556 1 83.6776 1.77564 7.5 6.03191 -149531 -154495 -23148 4029.83 31385 15874.5 -7.41771 
8557 1 82.9586 0.553446 7.5 6.03191 -148476 -154535 -35175.2 -3876.89 -30569.1 16098.1 -7.41706 
8763 1 85.1554 9.13187 7.5 6.03194 -143558 -153872 -80969 -6281.62 -24141.7 17270.7 -7.41458 
8764 1 85.8544 7.89814 7.5 6.03194 -151133 -154585 6874.81 3650.94 32343.9 21522.4 -7.41936 
8765 1 85.1354 6.67595 7.5 6.03194 -145010 -154348 -68980.8 -5995.93 -26166.9 18223.8 -7.41522 
8766 1 85.8344 5.44222 7.5 6.03194 -150566 -154838 -5906.92 4211.9 31973.9 21054.1 -7.41865 
8767 1 85.1155 4.22003 7.5 6.03194 -146398 -154690 -56451 -5648.64 -27928.7 19108.9 -7.4159 
8768 1 85.8144 2.98631 7.5 6.03194 -149800 -154982 -18924.3 4757.38 31317.6 20505.6 -7.41794 
8769 1 85.0955 1.76411 7.5 6.03191 -147675 -154908 -43532.2 -5246.01 -29408.9 19916.3 -7.4166 
8770 1 85.7945 0.530386 7.5 6.03191 -148871 -155139 -32026.5 5201.54 30370 19878.3 -7.41723 
8976 1 87.9913 9.10881 7.5 6.03194 -151116 -154929 9682.34 3996.95 32105.4 26241.4 -7.41951 
8977 1 87.2723 7.88661 7.5 6.03194 -144161 -154860 -76620.7 -7432.1 -24332.9 21366.1 -7.4148 
8978 1 87.9713 6.65289 7.5 6.03194 -150633 -155256 -2741 4669.32 31777 25741.1 -7.41882 
8979 1 87.2523 5.43069 7.5 6.03194 -145548 -155235 -64584.2 -7043.59 -26288.2 22467.9 -7.41545 
8980 1 87.9513 4.19697 7.5 6.03194 -149962 -155483 -15451.5 5333.01 31166.6 25138.9 -7.41813 
8981 1 87.2324 2.97477 7.5 6.03194 -146856 -155476 -52075.3 -6585.23 -27976.6 23480.2 -7.41613 
8982 1 87.9313 1.74105 7.5 6.03191 -149101 -155605 -28305.1 5970.46 30270.8 24436.2 -7.41742 
8983 1 87.2124 0.518856 7.5 6.03191 -148071 -155719 -39248.6 -5995.35 -29384.7 24392.6 -7.41683 
9189 1 89.4092 9.09728 7.5 6.03194 -143319 -155442 -84159.3 -8862.43 -22209.2 24205.1 -7.41439 
9190 1 90.1082 7.86355 7.5 6.03194 -150622 -155640 -435.763 4977.48 31554.2 30341.9 -7.41895 
9191 1 89.3892 6.64136 7.5 6.03194 -144682 -155843 -72706.6 -8446.24 -24358.5 25530.6 -7.41501 
9192 1 90.0882 5.40763 7.5 6.03194 -150032 -155948 -12786.6 5752.91 30967.6 29714 -7.41827 
9193 1 89.3692 4.18544 7.5 6.03194 -145993 -156109 -60702.5 -7944.54 -26259.5 26755.8 -7.41566 
9194 1 90.0682 2.95171 7.5 6.03194 -149269 -156151 -25330.9 6510.25 30100.7 28963.6 -7.41758 