(written by TR)

30248	atoms
2	atom types
0	151.019037	xlo xhi
0	261.572644	ylo yhi
0	18.4	zlo zhi


Masses

1	12
2	12

Atoms

1 1 1 0 0.69897733 260.33892328 7.50000000 0 0 0
2 1 1 0 0.67900655 257.88300447 7.50000000 0 0 0
3 1 1 0 0.65903577 255.42708567 7.50000000 0 0 0
4 1 1 0 0.63906499 252.97116687 7.50000000 0 0 0
5 1 1 0 0.61909421 250.51524806 7.50000000 0 0 0
6 1 1 0 0.59912343 248.05932926 7.50000000 0 0 0
7 1 1 0 0.57915265 245.60341046 7.50000000 0 0 0
8 1 1 0 0.55918187 243.14749165 7.50000000 0 0 0
9 1 1 0 0.53921109 240.69157285 7.50000000 0 0 0
10 1 1 0 0.51924031 238.23565405 7.50000000 0 0 0
11 1 1 0 0.49926953 235.77973524 7.50000000 0 0 0
12 1 1 0 0.47929875 233.32381644 7.50000000 0 0 0
13 1 1 0 0.45932797 230.86789764 7.50000000 0 0 0
14 1 1 0 0.43935719 228.41197883 7.50000000 0 0 0
15 1 1 0 0.41938641 225.95606003 7.50000000 0 0 0
16 1 1 0 0.39941563 223.50014123 7.50000000 0 0 0
17 1 1 0 0.37944485 221.04422242 7.50000000 0 0 0
18 1 1 0 0.35947406 218.58830362 7.50000000 0 0 0
19 1 1 0 0.33950328 216.13238482 7.50000000 0 0 0
20 1 1 0 0.31953250 213.67646601 7.50000000 0 0 0
21 1 1 0 0.29956172 211.22054721 7.50000000 0 0 0
22 1 1 0 0.27959094 208.76462841 7.50000000 0 0 0
23 1 1 0 0.25962016 206.30870960 7.50000000 0 0 0
24 1 1 0 0.23964938 203.85279080 7.50000000 0 0 0
25 1 1 0 0.21967860 201.39687200 7.50000000 0 0 0
26 1 1 0 0.19970782 198.94095319 7.50000000 0 0 0
27 1 1 0 0.17973704 196.48503439 7.50000000 0 0 0
28 1 1 0 0.15976626 194.02911559 7.50000000 0 0 0
29 1 1 0 0.13979548 191.57319679 7.50000000 0 0 0
30 1 1 0 0.11982470 189.11727798 7.50000000 0 0 0
31 1 1 0 0.09985392 186.66135918 7.50000000 0 0 0
32 1 1 0 0.07988314 184.20544038 7.50000000 0 0 0
33 1 1 0 0.05991236 181.74952157 7.50000000 0 0 0
34 1 1 0 0.03994158 179.29360277 7.50000000 0 0 0
35 1 1 0 0.01997080 176.83768397 7.50000000 0 0 0
36 1 1 0 0.00000002 174.38176516 7.50000000 0 0 0
37 1 1 0 2.83585079 261.54958747 7.50000000 0 0 0
38 1 1 0 2.11690271 260.32739314 7.50000000 0 0 0
39 1 1 0 2.81588001 259.09366867 7.50000000 0 0 0
40 1 1 0 2.09693193 257.87147434 7.50000000 0 0 0
41 1 1 0 2.79590923 256.63774987 7.50000000 0 0 0
42 1 1 0 2.07696115 255.41555553 7.50000000 0 0 0
43 1 1 0 2.77593845 254.18183106 7.50000000 0 0 0
44 1 1 0 2.05699037 252.95963673 7.50000000 0 0 0
45 1 1 0 2.75596767 251.72591226 7.50000000 0 0 0
46 1 1 0 2.03701959 250.50371793 7.50000000 0 0 0
47 1 1 0 2.73599689 249.26999346 7.50000000 0 0 0
48 1 1 0 2.01704881 248.04779912 7.50000000 0 0 0
49 1 1 0 2.71602611 246.81407465 7.50000000 0 0 0
50 1 1 0 1.99707803 245.59188032 7.50000000 0 0 0
51 1 1 0 2.69605533 244.35815585 7.50000000 0 0 0
52 1 1 0 1.97710725 243.13596152 7.50000000 0 0 0
53 1 1 0 2.67608455 241.90223705 7.50000000 0 0 0
54 1 1 0 1.95713647 240.68004271 7.50000000 0 0 0
55 1 1 0 2.65611377 239.44631824 7.50000000 0 0 0
56 1 1 0 1.93716569 238.22412391 7.50000000 0 0 0
57 1 1 0 2.63614299 236.99039944 7.50000000 0 0 0
58 1 1 0 1.91719491 235.76820511 7.50000000 0 0 0
59 1 1 0 2.61617221 234.53448064 7.50000000 0 0 0
60 1 1 0 1.89722413 233.31228630 7.50000000 0 0 0
61 1 1 0 2.59620143 232.07856184 7.50000000 0 0 0
62 1 1 0 1.87725335 230.85636750 7.50000000 0 0 0
63 1 1 0 2.57623065 229.62264303 7.50000000 0 0 0
64 1 1 0 1.85728257 228.40044870 7.50000000 0 0 0
65 1 1 0 2.55625987 227.16672423 7.50000000 0 0 0
66 1 1 0 1.83731179 225.94452989 7.50000000 0 0 0
67 1 1 0 2.53628909 224.71080543 7.50000000 0 0 0
68 1 1 0 1.81734101 223.48861109 7.50000000 0 0 0
69 1 1 0 2.51631831 222.25488662 7.50000000 0 0 0
70 1 1 0 1.79737023 221.03269229 7.50000000 0 0 0
71 1 1 0 2.49634753 219.79896782 7.50000000 0 0 0
72 1 1 0 1.77739945 218.57677349 7.50000000 0 0 0
73 1 1 0 2.47637675 217.34304902 7.50000000 0 0 0
74 1 1 0 1.75742867 216.12085468 7.50000000 0 0 0
75 1 1 0 2.45640597 214.88713021 7.50000000 0 0 0
76 1 1 0 1.73745789 213.66493588 7.50000000 0 0 0
77 1 1 0 2.43643519 212.43121141 7.50000000 0 0 0
78 1 1 0 1.71748711 211.20901708 7.50000000 0 0 0
79 1 1 0 2.41646441 209.97529261 7.50000000 0 0 0
80 1 1 0 1.69751633 208.75309827 7.50000000 0 0 0
81 1 1 0 2.39649363 207.51937380 7.50000000 0 0 0
82 1 1 0 1.67754555 206.29717947 7.50000000 0 0 0
83 1 1 0 2.37652285 205.06345500 7.50000000 0 0 0
84 1 1 0 1.65757477 203.84126067 7.50000000 0 0 0
85 1 1 0 2.35655207 202.60753620 7.50000000 0 0 0
86 1 1 0 1.63760398 201.38534186 7.50000000 0 0 0
87 1 1 0 2.33658129 200.15161739 7.50000000 0 0 0
88 1 1 0 1.61763320 198.92942306 7.50000000 0 0 0
89 1 1 0 2.31661051 197.69569859 7.50000000 0 0 0
90 1 1 0 1.59766242 196.47350426 7.50000000 0 0 0
91 1 1 0 2.29663973 195.23977979 7.50000000 0 0 0
92 1 1 0 1.57769164 194.01758545 7.50000000 0 0 0
93 1 1 0 2.27666894 192.78386098 7.50000000 0 0 0
94 1 1 0 1.55772086 191.56166665 7.50000000 0 0 0
95 1 1 0 2.25669816 190.32794218 7.50000000 0 0 0
96 1 1 0 1.53775008 189.10574785 7.50000000 0 0 0
97 1 1 0 2.23672738 187.87202338 7.50000000 0 0 0
98 1 1 0 1.51777930 186.64982904 7.50000000 0 0 0
99 1 1 0 2.21675660 185.41610457 7.50000000 0 0 0
100 1 1 0 1.49780852 184.19391024 7.50000000 0 0 0
101 1 1 0 2.19678582 182.96018577 7.50000000 0 0 0
102 1 1 0 1.47783774 181.73799144 7.50000000 0 0 0
103 1 1 0 2.17681504 180.50426697 7.50000000 0 0 0
104 1 1 0 1.45786696 179.28207263 7.50000000 0 0 0
105 1 1 0 2.15684426 178.04834816 7.50000000 0 0 0
106 1 1 0 1.43789618 176.82615383 7.50000000 0 0 0
107 1 1 0 2.13687348 175.59242936 7.50000000 0 0 0
108 1 1 0 1.41792540 174.37023503 7.50000000 0 0 0
109 1 1 0 2.11690270 173.13651056 7.50000000 0 0 0
110 1 1 0 1.39795462 171.91431622 7.50000000 0 0 0
111 1 1 0 2.09693192 170.68059176 7.50000000 0 0 0
112 1 1 0 1.37798384 169.45839742 7.50000000 0 0 0
113 1 1 0 2.07696114 168.22467295 7.50000000 0 0 0
114 1 1 0 1.35801306 167.00247862 7.50000000 0 0 0
115 1 1 0 2.05699036 165.76875415 7.50000000 0 0 0
116 1 1 0 1.33804228 164.54655981 7.50000000 0 0 0
117 1 1 0 2.03701958 163.31283535 7.50000000 0 0 0
118 1 1 0 1.31807150 162.09064101 7.50000000 0 0 0
119 1 1 0 2.01704880 160.85691654 7.50000000 0 0 0
120 1 1 0 1.29810072 159.63472221 7.50000000 0 0 0
121 1 1 0 1.99707802 158.40099774 7.50000000 0 0 0
122 1 1 0 1.27812994 157.17880341 7.50000000 0 0 0
123 1 1 0 1.97710724 155.94507894 7.50000000 0 0 0
124 1 1 0 1.25815916 154.72288460 7.50000000 0 0 0
125 1 1 0 1.95713646 153.48916013 7.50000000 0 0 0
126 1 1 0 1.23818838 152.26696580 7.50000000 0 0 0
127 1 1 0 1.93716568 151.03324133 7.50000000 0 0 0
128 1 1 0 1.21821760 149.81104700 7.50000000 0 0 0
129 1 1 0 1.91719490 148.57732253 7.50000000 0 0 0
130 1 1 0 1.19824682 147.35512819 7.50000000 0 0 0
131 1 1 0 1.89722412 146.12140372 7.50000000 0 0 0
132 1 1 0 1.17827604 144.89920939 7.50000000 0 0 0
133 1 1 0 1.87725334 143.66548492 7.50000000 0 0 0
134 1 1 0 1.15830526 142.44329059 7.50000000 0 0 0
135 1 1 0 1.85728256 141.20956612 7.50000000 0 0 0
136 1 1 0 1.13833448 139.98737178 7.50000000 0 0 0
137 1 1 0 1.83731178 138.75364731 7.50000000 0 0 0
138 1 1 0 1.11836370 137.53145298 7.50000000 0 0 0
139 1 1 0 1.81734100 136.29772851 7.50000000 0 0 0
140 1 1 0 1.09839292 135.07553418 7.50000000 0 0 0
141 1 1 0 1.79737022 133.84180971 7.50000000 0 0 0
142 1 1 0 1.07842214 132.61961537 7.50000000 0 0 0
143 1 1 0 1.77739944 131.38589090 7.50000000 0 0 0
144 1 1 0 1.05845136 130.16369657 7.50000000 0 0 0
145 1 1 0 1.75742866 128.92997210 7.50000000 0 0 0
146 1 1 0 1.03848058 127.70777777 7.50000000 0 0 0
147 1 1 0 1.73745788 126.47405330 7.50000000 0 0 0
148 1 1 0 1.01850980 125.25185896 7.50000000 0 0 0
149 1 1 0 1.71748710 124.01813449 7.50000000 0 0 0
150 1 1 0 0.99853902 122.79594016 7.50000000 0 0 0
151 1 1 0 1.69751632 121.56221569 7.50000000 0 0 0
152 1 1 0 0.97856823 120.34002136 7.50000000 0 0 0
153 1 1 0 1.67754554 119.10629689 7.50000000 0 0 0
154 1 1 0 0.95859745 117.88410255 7.50000000 0 0 0
155 1 1 0 1.65757476 116.65037808 7.50000000 0 0 0
156 1 1 0 0.93862667 115.42818375 7.50000000 0 0 0
157 1 1 0 1.63760398 114.19445928 7.50000000 0 0 0
158 1 1 0 0.91865589 112.97226495 7.50000000 0 0 0
159 1 1 0 1.61763319 111.73854048 7.50000000 0 0 0
160 1 1 0 0.89868511 110.51634614 7.50000000 0 0 0
161 1 1 0 1.59766241 109.28262167 7.50000000 0 0 0
162 1 1 0 0.87871433 108.06042734 7.50000000 0 0 0
163 1 1 0 1.57769163 106.82670287 7.50000000 0 0 0
164 1 1 0 0.85874355 105.60450854 7.50000000 0 0 0
165 1 1 0 1.55772085 104.37078407 7.50000000 0 0 0
166 1 1 0 0.83877277 103.14858973 7.50000000 0 0 0
167 1 1 0 1.53775007 101.91486527 7.50000000 0 0 0
168 1 1 0 0.81880199 100.69267093 7.50000000 0 0 0
169 1 1 0 1.51777929 99.45894646 7.50000000 0 0 0
170 1 1 0 0.79883121 98.23675213 7.50000000 0 0 0
171 1 1 0 1.49780851 97.00302766 7.50000000 0 0 0
172 1 1 0 0.77886043 95.78083332 7.50000000 0 0 0
173 1 1 0 1.47783773 94.54710886 7.50000000 0 0 0
174 1 1 0 0.75888965 93.32491452 7.50000000 0 0 0
175 1 1 0 1.45786695 92.09119005 7.50000000 0 0 0
176 1 1 0 0.73891887 90.86899572 7.50000000 0 0 0
177 1 1 0 1.43789617 89.63527125 7.50000000 0 0 0
178 1 1 0 0.71894809 88.41307692 7.50000000 0 0 0
179 1 1 0 1.41792539 87.17935245 7.50000000 0 0 0
180 1 1 0 0.69897731 85.95715811 7.50000000 0 0 0
181 1 1 0 1.39795461 84.72343364 7.50000000 0 0 0
182 1 1 0 0.67900653 83.50123931 7.50000000 0 0 0
183 1 1 0 1.37798383 82.26751484 7.50000000 0 0 0
184 1 1 0 0.65903575 81.04532051 7.50000000 0 0 0
185 1 1 0 1.35801305 79.81159604 7.50000000 0 0 0
186 1 1 0 0.63906497 78.58940170 7.50000000 0 0 0
187 1 1 0 1.33804227 77.35567723 7.50000000 0 0 0
188 1 1 0 0.61909419 76.13348290 7.50000000 0 0 0
189 1 1 0 1.31807149 74.89975843 7.50000000 0 0 0
190 1 1 0 0.59912341 73.67756410 7.50000000 0 0 0
191 1 1 0 1.29810071 72.44383963 7.50000000 0 0 0
192 1 1 0 0.57915263 71.22164529 7.50000000 0 0 0
193 1 1 0 1.27812993 69.98792082 7.50000000 0 0 0
194 1 1 0 0.55918185 68.76572649 7.50000000 0 0 0
195 1 1 0 1.25815915 67.53200202 7.50000000 0 0 0
196 1 1 0 0.53921107 66.30980769 7.50000000 0 0 0
197 1 1 0 1.23818837 65.07608322 7.50000000 0 0 0
198 1 1 0 0.51924029 63.85388888 7.50000000 0 0 0
199 1 1 0 1.21821759 62.62016441 7.50000000 0 0 0
200 1 1 0 0.49926951 61.39797008 7.50000000 0 0 0
201 1 1 0 1.19824681 60.16424561 7.50000000 0 0 0
202 1 1 0 0.47929873 58.94205128 7.50000000 0 0 0
203 1 1 0 1.17827603 57.70832681 7.50000000 0 0 0
204 1 1 0 0.45932795 56.48613247 7.50000000 0 0 0
205 1 1 0 1.15830525 55.25240800 7.50000000 0 0 0
206 1 1 0 0.43935717 54.03021367 7.50000000 0 0 0
207 1 1 0 1.13833447 52.79648920 7.50000000 0 0 0
208 1 1 0 0.41938639 51.57429487 7.50000000 0 0 0
209 1 1 0 1.11836369 50.34057040 7.50000000 0 0 0
210 1 1 0 0.39941561 49.11837606 7.50000000 0 0 0
211 1 1 0 1.09839291 47.88465159 7.50000000 0 0 0
212 1 1 0 0.37944483 46.66245726 7.50000000 0 0 0
213 1 1 0 1.07842213 45.42873279 7.50000000 0 0 0
214 1 1 0 0.35947405 44.20653846 7.50000000 0 0 0
215 1 1 0 1.05845135 42.97281399 7.50000000 0 0 0
216 1 1 0 0.33950327 41.75061965 7.50000000 0 0 0
217 1 1 0 1.03848057 40.51689519 7.50000000 0 0 0
218 1 1 0 0.31953248 39.29470085 7.50000000 0 0 0
219 1 1 0 1.01850979 38.06097638 7.50000000 0 0 0
220 1 1 0 0.29956170 36.83878205 7.50000000 0 0 0
221 1 1 0 0.99853901 35.60505758 7.50000000 0 0 0
222 1 1 0 0.27959092 34.38286324 7.50000000 0 0 0
223 1 1 0 0.97856823 33.14913878 7.50000000 0 0 0
224 1 1 0 0.25962014 31.92694444 7.50000000 0 0 0
225 1 1 0 0.95859744 30.69321997 7.50000000 0 0 0
226 1 1 0 0.23964936 29.47102564 7.50000000 0 0 0
227 1 1 0 0.93862666 28.23730117 7.50000000 0 0 0
228 1 1 0 0.21967858 27.01510684 7.50000000 0 0 0
229 1 1 0 0.91865588 25.78138237 7.50000000 0 0 0
230 1 1 0 0.19970780 24.55918803 7.50000000 0 0 0
231 1 1 0 0.89868510 23.32546356 7.50000000 0 0 0
232 1 1 0 0.17973702 22.10326923 7.50000000 0 0 0
233 1 1 0 0.87871432 20.86954476 7.50000000 0 0 0
234 1 1 0 0.15976624 19.64735043 7.50000000 0 0 0
235 1 1 0 0.85874354 18.41362596 7.50000000 0 0 0
236 1 1 0 0.13979546 17.19143162 7.50000000 0 0 0
237 1 1 0 0.83877276 15.95770715 7.50000000 0 0 0
238 1 1 0 0.11982468 14.73551282 7.50000000 0 0 0
239 1 1 0 0.81880198 13.50178835 7.50000000 0 0 0
240 1 1 0 0.09985390 12.27959402 7.50000000 0 0 0
241 1 1 0 0.79883120 11.04586955 7.50000000 0 0 0
242 1 1 0 0.07988312 9.82367521 7.50000000 0 0 0
243 1 1 0 0.77886042 8.58995074 7.50000000 0 0 0
244 1 1 0 0.05991234 7.36775641 7.50000000 0 0 0
245 1 1 0 0.75888964 6.13403194 7.50000000 0 0 0
246 1 1 0 0.03994156 4.91183761 7.50000000 0 0 0
247 1 1 0 0.73891886 3.67811314 7.50000000 0 0 0
248 1 1 0 0.01997078 2.45591880 7.50000000 0 0 0
249 1 1 0 0.71894808 1.22219433 7.50000000 0 0 0
250 1 1 0 0.00000000 0.00000000 7.50000000 0 0 0
251 1 1 0 4.25377618 261.53805734 7.50000000 0 0 0
252 1 1 0 4.95275348 260.30433287 7.50000000 0 0 0
253 1 1 0 4.23380540 259.08213854 7.50000000 0 0 0
254 1 1 0 4.93278270 257.84841407 7.50000000 0 0 0
255 1 1 0 4.21383461 256.62621973 7.50000000 0 0 0
256 1 1 0 4.91281192 255.39249526 7.50000000 0 0 0
257 1 1 0 4.19386383 254.17030093 7.50000000 0 0 0
258 1 1 0 4.89284114 252.93657646 7.50000000 0 0 0
259 1 1 0 4.17389305 251.71438213 7.50000000 0 0 0
260 1 1 0 4.87287036 250.48065766 7.50000000 0 0 0
261 1 1 0 4.15392227 249.25846332 7.50000000 0 0 0
262 1 1 0 4.85289957 248.02473885 7.50000000 0 0 0
263 1 1 0 4.13395149 246.80254452 7.50000000 0 0 0
264 1 1 0 4.83292879 245.56882005 7.50000000 0 0 0
265 1 1 0 4.11398071 244.34662572 7.50000000 0 0 0
266 1 1 0 4.81295801 243.11290125 7.50000000 0 0 0
267 1 1 0 4.09400993 241.89070691 7.50000000 0 0 0
268 1 1 0 4.79298723 240.65698244 7.50000000 0 0 0
269 1 1 0 4.07403915 239.43478811 7.50000000 0 0 0
270 1 1 0 4.77301645 238.20106364 7.50000000 0 0 0
271 1 1 0 4.05406837 236.97886931 7.50000000 0 0 0
272 1 1 0 4.75304567 235.74514484 7.50000000 0 0 0
273 1 1 0 4.03409759 234.52295050 7.50000000 0 0 0
274 1 1 0 4.73307489 233.28922603 7.50000000 0 0 0
275 1 1 0 4.01412681 232.06703170 7.50000000 0 0 0
276 1 1 0 4.71310411 230.83330723 7.50000000 0 0 0
277 1 1 0 3.99415603 229.61111290 7.50000000 0 0 0
278 1 1 0 4.69313333 228.37738843 7.50000000 0 0 0
279 1 1 0 3.97418525 227.15519409 7.50000000 0 0 0
280 1 1 0 4.67316255 225.92146962 7.50000000 0 0 0
281 1 1 0 3.95421447 224.69927529 7.50000000 0 0 0
282 1 1 0 4.65319177 223.46555082 7.50000000 0 0 0
283 1 1 0 3.93424369 222.24335649 7.50000000 0 0 0
284 1 1 0 4.63322099 221.00963202 7.50000000 0 0 0
285 1 1 0 3.91427291 219.78743768 7.50000000 0 0 0
286 1 1 0 4.61325021 218.55371321 7.50000000 0 0 0
287 1 1 0 3.89430213 217.33151888 7.50000000 0 0 0
288 1 1 0 4.59327943 216.09779441 7.50000000 0 0 0
289 1 1 0 3.87433135 214.87560008 7.50000000 0 0 0
290 1 1 0 4.57330865 213.64187561 7.50000000 0 0 0
291 1 1 0 3.85436057 212.41968127 7.50000000 0 0 0
292 1 1 0 4.55333787 211.18595680 7.50000000 0 0 0
293 1 1 0 3.83438979 209.96376247 7.50000000 0 0 0
294 1 1 0 4.53336709 208.73003800 7.50000000 0 0 0
295 1 1 0 3.81441901 207.50784367 7.50000000 0 0 0
296 1 1 0 4.51339631 206.27411920 7.50000000 0 0 0
297 1 1 0 3.79444823 205.05192486 7.50000000 0 0 0
298 1 1 0 4.49342553 203.81820040 7.50000000 0 0 0
299 1 1 0 3.77447745 202.59600606 7.50000000 0 0 0
300 1 1 0 4.47345475 201.36228159 7.50000000 0 0 0
301 1 1 0 3.75450667 200.14008726 7.50000000 0 0 0
302 1 1 0 4.45348397 198.90636279 7.50000000 0 0 0
303 1 1 0 3.73453589 197.68416845 7.50000000 0 0 0
304 1 1 0 4.43351319 196.45044399 7.50000000 0 0 0
305 1 1 0 3.71456511 195.22824965 7.50000000 0 0 0
306 1 1 0 4.41354241 193.99452518 7.50000000 0 0 0
307 1 1 0 3.69459433 192.77233085 7.50000000 0 0 0
308 1 1 0 4.39357163 191.53860638 7.50000000 0 0 0
309 1 1 0 3.67462355 190.31641205 7.50000000 0 0 0
310 1 1 0 4.37360085 189.08268758 7.50000000 0 0 0
311 1 1 0 3.65465277 187.86049324 7.50000000 0 0 0
312 1 1 0 4.35363007 186.62676877 7.50000000 0 0 0
313 1 1 0 3.63468199 185.40457444 7.50000000 0 0 0
314 1 1 0 4.33365929 184.17084997 7.50000000 0 0 0
315 1 1 0 3.61471121 182.94865564 7.50000000 0 0 0
316 1 1 0 4.31368851 181.71493117 7.50000000 0 0 0
317 1 1 0 3.59474043 180.49273683 7.50000000 0 0 0
318 1 1 0 4.29371773 179.25901236 7.50000000 0 0 0
319 1 1 0 3.57476965 178.03681803 7.50000000 0 0 0
320 1 1 0 4.27374695 176.80309356 7.50000000 0 0 0
321 1 1 0 3.55479886 175.58089923 7.50000000 0 0 0
322 1 1 0 4.25377617 174.34717476 7.50000000 0 0 0
323 1 1 0 3.53482808 173.12498042 7.50000000 0 0 0
324 1 1 0 4.23380539 171.89125595 7.50000000 0 0 0
325 1 1 0 3.51485730 170.66906162 7.50000000 0 0 0
326 1 1 0 4.21383461 169.43533715 7.50000000 0 0 0
327 1 1 0 3.49488652 168.21314282 7.50000000 0 0 0
328 1 1 0 4.19386382 166.97941835 7.50000000 0 0 0
329 1 1 0 3.47491574 165.75722401 7.50000000 0 0 0
330 1 1 0 4.17389304 164.52349954 7.50000000 0 0 0
331 1 1 0 3.45494496 163.30130521 7.50000000 0 0 0
332 1 1 0 4.15392226 162.06758074 7.50000000 0 0 0
333 1 1 0 3.43497418 160.84538641 7.50000000 0 0 0
334 1 1 0 4.13395148 159.61166194 7.50000000 0 0 0
335 1 1 0 3.41500340 158.38946760 7.50000000 0 0 0
336 1 1 0 4.11398070 157.15574313 7.50000000 0 0 0
337 1 1 0 3.39503262 155.93354880 7.50000000 0 0 0
338 1 1 0 4.09400992 154.69982433 7.50000000 0 0 0
339 1 1 0 3.37506184 153.47763000 7.50000000 0 0 0
340 1 1 0 4.07403914 152.24390553 7.50000000 0 0 0
341 1 1 0 3.35509106 151.02171119 7.50000000 0 0 0
342 1 1 0 4.05406836 149.78798672 7.50000000 0 0 0
343 1 1 0 3.33512028 148.56579239 7.50000000 0 0 0
344 1 1 0 4.03409758 147.33206792 7.50000000 0 0 0
345 1 1 0 3.31514950 146.10987359 7.50000000 0 0 0
346 1 1 0 4.01412680 144.87614912 7.50000000 0 0 0
347 1 1 0 3.29517872 143.65395478 7.50000000 0 0 0
348 1 1 0 3.99415602 142.42023032 7.50000000 0 0 0
349 1 1 0 3.27520794 141.19803598 7.50000000 0 0 0
350 1 1 0 3.97418524 139.96431151 7.50000000 0 0 0
351 1 1 0 3.25523716 138.74211718 7.50000000 0 0 0
352 1 1 0 3.95421446 137.50839271 7.50000000 0 0 0
353 1 1 0 3.23526638 136.28619837 7.50000000 0 0 0
354 1 1 0 3.93424368 135.05247391 7.50000000 0 0 0
355 1 1 0 3.21529560 133.83027957 7.50000000 0 0 0
356 1 1 0 3.91427290 132.59655510 7.50000000 0 0 0
357 1 1 0 3.19532482 131.37436077 7.50000000 0 0 0
358 1 1 0 3.89430212 130.14063630 7.50000000 0 0 0
359 1 1 0 3.17535404 128.91844197 7.50000000 0 0 0
360 1 1 0 3.87433134 127.68471750 7.50000000 0 0 0
361 1 1 0 3.15538326 126.46252316 7.50000000 0 0 0
362 1 1 0 3.85436056 125.22879869 7.50000000 0 0 0
363 1 1 0 3.13541248 124.00660436 7.50000000 0 0 0
364 1 1 0 3.83438978 122.77287989 7.50000000 0 0 0
365 1 1 0 3.11544170 121.55068556 7.50000000 0 0 0
366 1 1 0 3.81441900 120.31696109 7.50000000 0 0 0
367 1 1 0 3.09547092 119.09476675 7.50000000 0 0 0
368 1 1 0 3.79444822 117.86104228 7.50000000 0 0 0
369 1 1 0 3.07550014 116.63884795 7.50000000 0 0 0
370 1 1 0 3.77447744 115.40512348 7.50000000 0 0 0
371 1 1 0 3.05552936 114.18292915 7.50000000 0 0 0
372 1 1 0 3.75450666 112.94920468 7.50000000 0 0 0
373 1 1 0 3.03555858 111.72701034 7.50000000 0 0 0
374 1 1 0 3.73453588 110.49328587 7.50000000 0 0 0
375 1 1 0 3.01558780 109.27109154 7.50000000 0 0 0
376 1 1 0 3.71456510 108.03736707 7.50000000 0 0 0
377 1 1 0 2.99561702 106.81517274 7.50000000 0 0 0
378 1 1 0 3.69459432 105.58144827 7.50000000 0 0 0
379 1 1 0 2.97564624 104.35925393 7.50000000 0 0 0
380 1 1 0 3.67462354 103.12552946 7.50000000 0 0 0
381 1 1 0 2.95567546 101.90333513 7.50000000 0 0 0
382 1 1 0 3.65465276 100.66961066 7.50000000 0 0 0
383 1 1 0 2.93570468 99.44741633 7.50000000 0 0 0
384 1 1 0 3.63468198 98.21369186 7.50000000 0 0 0
385 1 1 0 2.91573390 96.99149752 7.50000000 0 0 0
386 1 1 0 3.61471120 95.75777305 7.50000000 0 0 0
387 1 1 0 2.89576311 94.53557872 7.50000000 0 0 0
388 1 1 0 3.59474042 93.30185425 7.50000000 0 0 0
389 1 1 0 2.87579233 92.07965992 7.50000000 0 0 0
390 1 1 0 3.57476964 90.84593545 7.50000000 0 0 0
391 1 1 0 2.85582155 89.62374111 7.50000000 0 0 0
392 1 1 0 3.55479886 88.39001664 7.50000000 0 0 0
393 1 1 0 2.83585077 87.16782231 7.50000000 0 0 0
394 1 1 0 3.53482807 85.93409784 7.50000000 0 0 0
395 1 1 0 2.81587999 84.71190351 7.50000000 0 0 0
396 1 1 0 3.51485729 83.47817904 7.50000000 0 0 0
397 1 1 0 2.79590921 82.25598470 7.50000000 0 0 0
398 1 1 0 3.49488651 81.02226023 7.50000000 0 0 0
399 1 1 0 2.77593843 79.80006590 7.50000000 0 0 0
400 1 1 0 3.47491573 78.56634143 7.50000000 0 0 0
401 1 1 0 2.75596765 77.34414710 7.50000000 0 0 0
402 1 1 0 3.45494495 76.11042263 7.50000000 0 0 0
403 1 1 0 2.73599687 74.88822829 7.50000000 0 0 0
404 1 1 0 3.43497417 73.65450383 7.50000000 0 0 0
405 1 1 0 2.71602609 72.43230949 7.50000000 0 0 0
406 1 1 0 3.41500339 71.19858502 7.50000000 0 0 0
407 1 1 0 2.69605531 69.97639069 7.50000000 0 0 0
408 1 1 0 3.39503261 68.74266622 7.50000000 0 0 0
409 1 1 0 2.67608453 67.52047189 7.50000000 0 0 0
410 1 1 0 3.37506183 66.28674742 7.50000000 0 0 0
411 1 1 0 2.65611375 65.06455308 7.50000000 0 0 0
412 1 1 0 3.35509105 63.83082861 7.50000000 0 0 0
413 1 1 0 2.63614297 62.60863428 7.50000000 0 0 0
414 1 1 0 3.33512027 61.37490981 7.50000000 0 0 0
415 1 1 0 2.61617219 60.15271548 7.50000000 0 0 0
416 1 1 0 3.31514949 58.91899101 7.50000000 0 0 0
417 1 1 0 2.59620141 57.69679667 7.50000000 0 0 0
418 1 1 0 3.29517871 56.46307220 7.50000000 0 0 0
419 1 1 0 2.57623063 55.24087787 7.50000000 0 0 0
420 1 1 0 3.27520793 54.00715340 7.50000000 0 0 0
421 1 1 0 2.55625985 52.78495907 7.50000000 0 0 0
422 1 1 0 3.25523715 51.55123460 7.50000000 0 0 0
423 1 1 0 2.53628907 50.32904026 7.50000000 0 0 0
424 1 1 0 3.23526637 49.09531579 7.50000000 0 0 0
425 1 1 0 2.51631829 47.87312146 7.50000000 0 0 0
426 1 1 0 3.21529559 46.63939699 7.50000000 0 0 0
427 1 1 0 2.49634751 45.41720266 7.50000000 0 0 0
428 1 1 0 3.19532481 44.18347819 7.50000000 0 0 0
429 1 1 0 2.47637673 42.96128385 7.50000000 0 0 0
430 1 1 0 3.17535403 41.72755938 7.50000000 0 0 0
431 1 1 0 2.45640595 40.50536505 7.50000000 0 0 0
432 1 1 0 3.15538325 39.27164058 7.50000000 0 0 0
433 1 1 0 2.43643517 38.04944625 7.50000000 0 0 0
434 1 1 0 3.13541247 36.81572178 7.50000000 0 0 0
435 1 1 0 2.41646439 35.59352744 7.50000000 0 0 0
436 1 1 0 3.11544169 34.35980297 7.50000000 0 0 0
437 1 1 0 2.39649361 33.13760864 7.50000000 0 0 0
438 1 1 0 3.09547091 31.90388417 7.50000000 0 0 0
439 1 1 0 2.37652283 30.68168984 7.50000000 0 0 0
440 1 1 0 3.07550013 29.44796537 7.50000000 0 0 0
441 1 1 0 2.35655205 28.22577103 7.50000000 0 0 0
442 1 1 0 3.05552935 26.99204656 7.50000000 0 0 0
443 1 1 0 2.33658127 25.76985223 7.50000000 0 0 0
444 1 1 0 3.03555857 24.53612776 7.50000000 0 0 0
445 1 1 0 2.31661049 23.31393343 7.50000000 0 0 0
446 1 1 0 3.01558779 22.08020896 7.50000000 0 0 0
447 1 1 0 2.29663971 20.85801462 7.50000000 0 0 0
448 1 1 0 2.99561701 19.62429015 7.50000000 0 0 0
449 1 1 0 2.27666893 18.40209582 7.50000000 0 0 0
450 1 1 0 2.97564623 17.16837135 7.50000000 0 0 0
451 1 1 0 2.25669815 15.94617702 7.50000000 0 0 0
452 1 1 0 2.95567545 14.71245255 7.50000000 0 0 0
453 1 1 0 2.23672736 13.49025821 7.50000000 0 0 0
454 1 1 0 2.93570467 12.25653375 7.50000000 0 0 0
455 1 1 0 2.21675658 11.03433941 7.50000000 0 0 0
456 1 1 0 2.91573389 9.80061494 7.50000000 0 0 0
457 1 1 0 2.19678580 8.57842061 7.50000000 0 0 0
458 1 1 0 2.89576311 7.34469614 7.50000000 0 0 0
459 1 1 0 2.17681502 6.12250180 7.50000000 0 0 0
460 1 1 0 2.87579232 4.88877734 7.50000000 0 0 0
461 1 1 0 2.15684424 3.66658300 7.50000000 0 0 0
462 1 1 0 2.85582154 2.43285853 7.50000000 0 0 0
463 1 1 0 2.13687346 1.21066420 7.50000000 0 0 0
464 1 1 0 7.08962694 261.51499707 7.50000000 0 0 0
465 1 1 0 6.37067886 260.29280273 7.50000000 0 0 0
466 1 1 0 7.06965616 259.05907826 7.50000000 0 0 0
467 1 1 0 6.35070808 257.83688393 7.50000000 0 0 0
468 1 1 0 7.04968538 256.60315946 7.50000000 0 0 0
469 1 1 0 6.33073730 255.38096513 7.50000000 0 0 0
470 1 1 0 7.02971460 254.14724066 7.50000000 0 0 0
471 1 1 0 6.31076652 252.92504632 7.50000000 0 0 0
472 1 1 0 7.00974382 251.69132185 7.50000000 0 0 0
473 1 1 0 6.29079574 250.46912752 7.50000000 0 0 0
474 1 1 0 6.98977304 249.23540305 7.50000000 0 0 0
475 1 1 0 6.27082496 248.01320872 7.50000000 0 0 0
476 1 1 0 6.96980226 246.77948425 7.50000000 0 0 0
477 1 1 0 6.25085418 245.55728991 7.50000000 0 0 0
478 1 1 0 6.94983148 244.32356545 7.50000000 0 0 0
479 1 1 0 6.23088340 243.10137111 7.50000000 0 0 0
480 1 1 0 6.92986070 241.86764664 7.50000000 0 0 0
481 1 1 0 6.21091262 240.64545231 7.50000000 0 0 0
482 1 1 0 6.90988992 239.41172784 7.50000000 0 0 0
483 1 1 0 6.19094184 238.18953350 7.50000000 0 0 0
484 1 1 0 6.88991914 236.95580904 7.50000000 0 0 0
485 1 1 0 6.17097106 235.73361470 7.50000000 0 0 0
486 1 1 0 6.86994836 234.49989023 7.50000000 0 0 0
487 1 1 0 6.15100028 233.27769590 7.50000000 0 0 0
488 1 1 0 6.84997758 232.04397143 7.50000000 0 0 0
489 1 1 0 6.13102949 230.82177710 7.50000000 0 0 0
490 1 1 0 6.83000680 229.58805263 7.50000000 0 0 0
491 1 1 0 6.11105871 228.36585829 7.50000000 0 0 0
492 1 1 0 6.81003602 227.13213382 7.50000000 0 0 0
493 1 1 0 6.09108793 225.90993949 7.50000000 0 0 0
494 1 1 0 6.79006524 224.67621502 7.50000000 0 0 0
495 1 1 0 6.07111715 223.45402069 7.50000000 0 0 0
496 1 1 0 6.77009445 222.22029622 7.50000000 0 0 0
497 1 1 0 6.05114637 220.99810188 7.50000000 0 0 0
498 1 1 0 6.75012367 219.76437741 7.50000000 0 0 0
499 1 1 0 6.03117559 218.54218308 7.50000000 0 0 0
500 1 1 0 6.73015289 217.30845861 7.50000000 0 0 0
501 1 1 0 6.01120481 216.08626428 7.50000000 0 0 0
502 1 1 0 6.71018211 214.85253981 7.50000000 0 0 0
503 1 1 0 5.99123403 213.63034547 7.50000000 0 0 0
504 1 1 0 6.69021133 212.39662100 7.50000000 0 0 0
505 1 1 0 5.97126325 211.17442667 7.50000000 0 0 0
506 1 1 0 6.67024055 209.94070220 7.50000000 0 0 0
507 1 1 0 5.95129247 208.71850787 7.50000000 0 0 0
508 1 1 0 6.65026977 207.48478340 7.50000000 0 0 0
509 1 1 0 5.93132169 206.26258906 7.50000000 0 0 0
510 1 1 0 6.63029899 205.02886459 7.50000000 0 0 0
511 1 1 0 5.91135091 203.80667026 7.50000000 0 0 0
512 1 1 0 6.61032821 202.57294579 7.50000000 0 0 0
513 1 1 0 5.89138013 201.35075146 7.50000000 0 0 0
514 1 1 0 6.59035743 200.11702699 7.50000000 0 0 0
515 1 1 0 5.87140935 198.89483265 7.50000000 0 0 0
516 1 1 0 6.57038665 197.66110818 7.50000000 0 0 0
517 1 1 0 5.85143857 196.43891385 7.50000000 0 0 0
518 1 1 0 6.55041587 195.20518938 7.50000000 0 0 0
519 1 1 0 5.83146779 193.98299505 7.50000000 0 0 0
520 1 1 0 6.53044509 192.74927058 7.50000000 0 0 0
521 1 1 0 5.81149701 191.52707624 7.50000000 0 0 0
522 1 1 0 6.51047431 190.29335177 7.50000000 0 0 0
523 1 1 0 5.79152623 189.07115744 7.50000000 0 0 0
524 1 1 0 6.49050353 187.83743297 7.50000000 0 0 0
525 1 1 0 5.77155545 186.61523864 7.50000000 0 0 0
526 1 1 0 6.47053275 185.38151417 7.50000000 0 0 0
527 1 1 0 5.75158467 184.15931983 7.50000000 0 0 0
528 1 1 0 6.45056197 182.92559536 7.50000000 0 0 0
529 1 1 0 5.73161389 181.70340103 7.50000000 0 0 0
530 1 1 0 6.43059119 180.46967656 7.50000000 0 0 0
531 1 1 0 5.71164311 179.24748223 7.50000000 0 0 0
532 1 1 0 6.41062041 178.01375776 7.50000000 0 0 0
533 1 1 0 5.69167233 176.79156342 7.50000000 0 0 0
534 1 1 0 6.39064963 175.55783896 7.50000000 0 0 0
535 1 1 0 5.67170155 174.33564462 7.50000000 0 0 0
536 1 1 0 6.37067885 173.10192015 7.50000000 0 0 0
537 1 1 0 5.65173077 171.87972582 7.50000000 0 0 0
538 1 1 0 6.35070807 170.64600135 7.50000000 0 0 0
539 1 1 0 5.63175999 169.42380701 7.50000000 0 0 0
540 1 1 0 6.33073729 168.19008255 7.50000000 0 0 0
541 1 1 0 5.61178921 166.96788821 7.50000000 0 0 0
542 1 1 0 6.31076651 165.73416374 7.50000000 0 0 0
543 1 1 0 5.59181843 164.51196941 7.50000000 0 0 0
544 1 1 0 6.29079573 163.27824494 7.50000000 0 0 0
545 1 1 0 5.57184765 162.05605061 7.50000000 0 0 0
546 1 1 0 6.27082495 160.82232614 7.50000000 0 0 0
547 1 1 0 5.55187687 159.60013180 7.50000000 0 0 0
548 1 1 0 6.25085417 158.36640733 7.50000000 0 0 0
549 1 1 0 5.53190609 157.14421300 7.50000000 0 0 0
550 1 1 0 6.23088339 155.91048853 7.50000000 0 0 0
551 1 1 0 5.51193531 154.68829420 7.50000000 0 0 0
552 1 1 0 6.21091261 153.45456973 7.50000000 0 0 0
553 1 1 0 5.49196453 152.23237539 7.50000000 0 0 0
554 1 1 0 6.19094183 150.99865092 7.50000000 0 0 0
555 1 1 0 5.47199374 149.77645659 7.50000000 0 0 0
556 1 1 0 6.17097105 148.54273212 7.50000000 0 0 0
557 1 1 0 5.45202296 147.32053779 7.50000000 0 0 0
558 1 1 0 6.15100027 146.08681332 7.50000000 0 0 0
559 1 1 0 5.43205218 144.86461898 7.50000000 0 0 0
560 1 1 0 6.13102949 143.63089451 7.50000000 0 0 0
561 1 1 0 5.41208140 142.40870018 7.50000000 0 0 0
562 1 1 0 6.11105870 141.17497571 7.50000000 0 0 0
563 1 1 0 5.39211062 139.95278138 7.50000000 0 0 0
564 1 1 0 6.09108792 138.71905691 7.50000000 0 0 0
565 1 1 0 5.37213984 137.49686257 7.50000000 0 0 0
566 1 1 0 6.07111714 136.26313810 7.50000000 0 0 0
567 1 1 0 5.35216906 135.04094377 7.50000000 0 0 0
568 1 1 0 6.05114636 133.80721930 7.50000000 0 0 0
569 1 1 0 5.33219828 132.58502497 7.50000000 0 0 0
570 1 1 0 6.03117558 131.35130050 7.50000000 0 0 0
571 1 1 0 5.31222750 130.12910616 7.50000000 0 0 0
572 1 1 0 6.01120480 128.89538169 7.50000000 0 0 0
573 1 1 0 5.29225672 127.67318736 7.50000000 0 0 0
574 1 1 0 5.99123402 126.43946289 7.50000000 0 0 0
575 1 1 0 5.27228594 125.21726856 7.50000000 0 0 0
576 1 1 0 5.97126324 123.98354409 7.50000000 0 0 0
577 1 1 0 5.25231516 122.76134975 7.50000000 0 0 0
578 1 1 0 5.95129246 121.52762528 7.50000000 0 0 0
579 1 1 0 5.23234438 120.30543095 7.50000000 0 0 0
580 1 1 0 5.93132168 119.07170648 7.50000000 0 0 0
581 1 1 0 5.21237360 117.84951215 7.50000000 0 0 0
582 1 1 0 5.91135090 116.61578768 7.50000000 0 0 0
583 1 1 0 5.19240282 115.39359334 7.50000000 0 0 0
584 1 1 0 5.89138012 114.15986888 7.50000000 0 0 0
585 1 1 0 5.17243204 112.93767454 7.50000000 0 0 0
586 1 1 0 5.87140934 111.70395007 7.50000000 0 0 0
587 1 1 0 5.15246126 110.48175574 7.50000000 0 0 0
588 1 1 0 5.85143856 109.24803127 7.50000000 0 0 0
589 1 1 0 5.13249048 108.02583693 7.50000000 0 0 0
590 1 1 0 5.83146778 106.79211247 7.50000000 0 0 0
591 1 1 0 5.11251970 105.56991813 7.50000000 0 0 0