ITEM: TIMESTEP
95
ITEM: NUMBER OF ATOMS
9128
ITEM: BOX BOUNDS pp pp pp
0.0000000000000000e+00 8.2960465999999997e+01
0.0000000000000000e+00 1.4369174200000000e+02
0.0000000000000000e+00 1.8399999999999999e+01
ITEM: ATOMS id type x y z c_csym c_2[1] c_2[2] c_2[3] c_2[4] c_2[5] c_2[6] c_3 
130 1 0.207391 9.82046 7.39218 6.02012 -150853 -161284 6453.4 -24320.2 22402.9 -2053.7 -7.4145 
131 1 0.891132 8.5783 7.3881 6.01736 -165942 -145288 -4052.38 -18449.3 13035.3 -3317.03 -7.41382 
132 1 0.157168 7.36535 7.38452 6.02399 -151360 -160101 2891.61 -12777.9 15143.5 -1517.04 -7.41403 
133 1 0.840151 6.12284 7.3816 6.02241 -162252 -148588 -1259.18 -8904.06 8953.97 -2778.72 -7.41373 
134 1 0.105497 4.91025 7.37914 6.02662 -152263 -158500 1112.22 -5286.43 8846.99 -1010.89 -7.41375 
135 1 0.78801 3.66751 7.37739 6.02598 -159041 -151403 72.0552 -3228.25 5112.65 -2087.91 -7.41364 
136 1 0.0529492 2.45514 7.37603 6.02873 -153499 -156742 523.143 -1273.01 3881.77 -517.199 -7.41361 
137 1 0.735231 1.21228 7.37535 6.02901 -156247 -153807 454.906 -672.055 1607.99 -1364.87 -7.41358 
138 1 -8.06088e-08 1.08187e-07 7.37502 6.03036 -155056 -155024 470.027 21.8732 6.93027e-05 0.0219816 -7.41357 
248 1 3.04172 9.7613 7.39355 6.01546 -178626 -133142 -4332.6 -24340.3 14972.8 -9308.34 -7.41399 
249 1 2.30865 8.54784 7.38889 6.01931 -159905 -151891 3370.3 -15325.1 18309.2 -4349.16 -7.41422 
250 1 2.99169 7.30528 7.38595 6.01954 -171509 -139660 -1152.53 -12801.6 11053.1 -8152.08 -7.41388 
251 1 2.25765 6.09234 7.38234 6.0229 -157641 -153433 1094.08 -5872.53 11400.5 -3955.82 -7.41387 
252 1 2.94019 4.84957 7.38055 6.02354 -165240 -145503 353.25 -5319.74 7049.99 -6787.77 -7.41376 
253 1 2.20549 3.63698 7.37808 6.02573 -156153 -154325 291.782 -308.588 5694.71 -3564.83 -7.41367 
254 1 2.88779 2.39411 7.37739 6.02704 -159846 -150553 683.997 -1396.62 3305.63 -5427.8 -7.41366 
255 1 2.15271 1.18173 7.37602 6.02768 -155286 -154903 319.076 2149.54 1259.82 -3259.26 -7.4136 
365 1 4.4592 9.73121 7.39542 6.01141 -172041 -140355 2250.2 -16690.2 21546.5 -6967.18 -7.41442 
366 1 5.1423 8.48859 7.39252 6.01644 -184172 -127602 555.011 -15407.1 13539.1 -14366.2 -7.41419 
367 1 4.40916 7.27512 7.38778 6.01652 -166289 -145426 -219.521 -5195.92 14296.7 -6936.28 -7.41401 
368 1 5.09175 6.03231 7.38597 6.02061 -174703 -136746 1881.39 -5964.54 9621.28 -12511.8 -7.41403 
369 1 4.35766 4.81935 7.38233 6.02125 -161604 -149358 -937.897 2115.14 7868.33 -6773.18 -7.41377 
370 1 5.03998 3.57646 7.38163 6.02456 -166243 -144777 1791.04 -491.288 5670.37 -10563.9 -7.41387 
371 1 4.30526 2.36385 7.37913 6.02433 -157995 -152562 -517.914 5895.64 2647.95 -6660.41 -7.41367 
372 1 4.98754 1.12098 7.37949 6.02548 -158654 -152060 841.19 1794.7 1825.02 -8802.65 -7.41375 
482 1 7.29169 9.67328 7.4011 6.01069 -200020 -112208 4353.57 -16317.8 15959.9 -21019.4 -7.4147 
483 1 6.55973 8.45908 7.39538 6.00855 -178354 -133791 -3307.02 -3023.63 17229.7 -9696.96 -7.41414 
484 1 7.24238 7.21622 7.39364 6.01644 -187449 -124530 5235.25 -4839.11 12505.3 -19037 -7.41448 
485 1 6.50918 6.00269 7.38884 6.0148 -170387 -141135 -3673.62 6320.84 10333.1 -10057.7 -7.41387 
486 1 7.19155 4.75977 7.38817 6.02163 -175785 -135891 4411.13 2440.82 8609.63 -16762.4 -7.41424 
487 1 6.45743 3.54676 7.38448 6.01963 -163608 -147440 -2580 11672.1 4334.25 -10315.4 -7.41377 
488 1 7.13974 2.30389 7.38488 6.02264 -165127 -146254 2457.36 6071.98 4603.79 -14512.2 -7.41403 
489 1 6.405 1.09123 7.38233 6.02189 -157757 -153094 -685.857 13798.9 -628.809 -10688.2 -7.41378 
599 1 8.70906 9.64472 7.40474 5.99958 -193665 -118813 -8518.35 659.991 19713.4 -11779 -7.4142 
601 1 8.65976 7.18753 7.39745 6.00698 -182532 -129384 -8331.52 12429.9 12739 -12976.2 -7.41394 
603 1 8.60895 4.73098 7.39208 6.01402 -172453 -138985 -6340.8 19739.4 6198.55 -13885.8 -7.41385 
605 1 8.55718 2.27501 7.38884 6.01782 -163448 -147861 -3192.28 23272.1 488.635 -14722.1 -7.41388 
600 1 9.39179 8.40182 7.40318 6.00908 -203021 -109080 10794.6 -1716.72 15243.3 -25697.4 -7.41513 
602 1 9.34219 5.94459 7.39687 6.016 -188649 -123610 9052.17 7690.86 11781.2 -23482.2 -7.41481 
604 1 9.29132 3.4881 7.39254 6.0194 -174923 -137295 5840.57 12935.2 7880.38 -21039.8 -7.41449 
606 1 9.23971 1.03229 7.39035 6.01578 -161657 -150292 1800.54 14791.8 3736.1 -18656 -7.41421 
716 1 11.5397 9.58957 7.41389 6.00069 -220053 -91438.8 18611.6 3107.46 17416.9 -31647.3 -7.41597 
717 1 10.8091 8.37436 7.40761 5.99853 -197520 -114618 -15144.9 20041.2 14632.5 -15016.6 -7.41393 
718 1 11.4916 7.13141 7.40719 6.00888 -203688 -108502 15949.6 14992.9 14753 -29859.4 -7.41558 
719 1 10.7595 5.91703 7.40158 6.00683 -184695 -127354 -12146.1 29842 7908.68 -16802.7 -7.41387 
720 1 11.442 4.67415 7.40212 6.01532 -187416 -125188 11396.3 22393.7 11312.5 -27591.6 -7.41515 
721 1 10.7087 3.46045 7.39745 6.01294 -172552 -139439 -7583.77 35348.7 1669.17 -18322.1 -7.41396 
722 1 11.3913 2.21775 7.39898 6.01108 -171282 -141389 5621.02 25823.8 7401.13 -25094.8 -7.41474 
723 1 10.6572 1.00456 7.39538 6.01475 -160876 -151092 -2163.26 37191.6 -3850.69 -19754.1 -7.41416 
833 1 12.957 9.56358 7.41849 5.99039 -213809 -97762.4 -24043.1 28451.3 15671.3 -15879.9 -7.41381 
834 1 13.6397 8.32065 7.4183 6.00108 -219447 -91505.2 24965.1 23746.9 17160.4 -35040.1 -7.41653 
835 1 12.9089 7.10536 7.41228 5.99926 -198972 -113051 -20097.7 41272.9 9112.85 -18586.5 -7.4138 
836 1 13.5915 5.86252 7.41291 6.00864 -201752 -110598 19200.8 33786.3 14506.3 -33249.8 -7.41601 
837 1 12.8593 4.64804 7.40759 6.00768 -184306 -128060 -14128.4 49302.7 2655.12 -20903.2 -7.41395 
838 1 13.542 3.40539 7.40913 6.00659 -183441 -129481 11725.6 39373.3 11132 -30970.2 -7.41546 
839 1 12.8087 2.19158 7.40473 6.01105 -169753 -142607 -6839.41 53071.6 -3296.3 -22944.7 -7.41423 
840 1 13.4918 0.949244 7.40717 6.00146 -164881 -148225 3288.98 40956.2 7237.08 -28390.4 -7.41494 
950 1 15.7863 9.51258 7.42929 5.99335 -234193 -74326.4 35594 32978.5 18789.9 -38464.3 -7.4176 
951 1 15.0569 8.29629 7.42327 5.9923 -213943 -97399.6 -29945.6 52862.4 9605.02 -19063.6 -7.41361 
952 1 15.7397 7.05354 7.42401 6.00147 -216275 -94733.8 28939.3 46085.3 17148.8 -37297.7 -7.41702 
953 1 15.0088 5.83817 7.41845 6.00183 -197824 -114572 -22788.5 64024.7 3224.98 -22111.3 -7.41383 
954 1 15.6917 4.59562 7.41995 6.00174 -196996 -115510 20036.5 54420.9 14574.3 -35475.7 -7.41636 
955 1 14.9594 3.38104 7.41511 6.00775 -181167 -131592 -13777.9 70407.8 -2912.5 -24777.9 -7.4142 
956 1 15.6426 2.13879 7.4174 5.99615 -176884 -136530 9623.45 58148.7 11311.4 -33122.4 -7.41569 
957 1 14.9092 0.92486 7.41346 6.00463 -164245 -148542 -3715.09 72241.8 -8489.62 -27137.5 -7.41469 
1067 1 17.2034 9.48996 7.43374 5.98667 -227760 -81786.8 -41099 63433.6 9386.3 -18377.7 -7.41332 
1068 1 17.8866 8.24737 7.4346 5.99463 -229059 -79039.5 39983.2 58020.5 19063.4 -39410.3 -7.41812 
1069 1 17.157 7.03107 7.42912 5.99617 -211388 -100301 -33152.4 78154.7 3302.88 -21937 -7.4136 
1070 1 17.8402 5.78866 7.43059 5.99604 -210134 -100840 30103.2 69615.6 17459.8 -38137.5 -7.41738 
1071 1 17.109 4.57323 7.42565 6.00474 -193810 -118929 -22799 87665 -2795.93 -25094.1 -7.41405 
1072 1 17.7925 3.33111 7.42775 5.99173 -189673 -123002 18124.7 76130.6 15012.9 -36202.8 -7.41658 
1073 1 17.06 2.11644 7.42355 6.00017 -175428 -137536 -10801.7 92110.7 -8491.91 -27874 -7.41464 
1074 1 17.744 0.874732 7.42627 5.98569 -167988 -145464 4895.15 77801.9 11864.6 -33700.7 -7.41577 
1184 1 20.0321 9.44398 7.4441 5.9888 -238785 -65111.9 51571.9 68539.2 20201.1 -39652.4 -7.41924 
1185 1 19.3038 8.22675 7.43894 5.99186 -223130 -86658.6 -44522.8 90387.2 2961.63 -20641.3 -7.41328 
1186 1 19.9874 6.98456 7.44035 5.99117 -221370 -86751 41231.2 83629.4 19638.3 -38884.1 -7.41846 
1187 1 19.2574 5.76825 7.43557 6.00157 -205821 -105878 -33359.7 103432 -2931.15 -24058.6 -7.41379 
1188 1 19.9412 4.52633 7.43748 5.9873 -201812 -109143 28253.4 93371 18112.7 -37429.9 -7.41757 
1189 1 19.2097 3.31085 7.43329 5.99663 -187231 -125415 -19946.7 111022 -8604.18 -27099.7 -7.41446 
1190 1 19.894 2.0693 7.43567 5.98121 -180575 -132110 13398.2 97818.6 15780.6 -35329 -7.41662 
1191 1 19.1614 0.854522 7.43223 5.98951 -167474 -145059 -5183.3 113170 -13689.1 -29773.8 -7.41526 
1301 1 21.4493 9.42507 7.4475 5.98923 -231807 -74910.7 -56131.2 99737.9 2352.19 -18597.6 -7.41289 
1302 1 22.1334 8.18318 7.44888 5.98735 -229321 -74552.1 52681.7 95278.9 21069.8 -37952.5 -7.41953 
1303 1 21.4046 6.96603 7.44439 5.99703 -215890 -93984.4 -44711.1 116526 -3224.56 -22030.7 -7.41343 
1304 1 22.0888 5.72436 7.44611 5.98239 -211955 -96439.3 39295.3 108591 20492.7 -36936.7 -7.41859 
1305 1 21.3584 4.50808 7.4421 5.99411 -198218 -113480 -30515.7 127572 -8769.13 -25129.3 -7.41416 
1306 1 22.043 3.26673 7.44417 5.97796 -192324 -118918 23464.1 116233 19021.9 -35280.7 -7.41755 
1307 1 21.3113 2.0512 7.4408 5.98555 -179086 -133189 -14327.9 132781 -13851.9 -27888.1 -7.41504 
1308 1 21.9965 0.810284 7.44316 5.9719 -170625 -141754 6101.89 118341 16715.6 -33034.6 -7.41647 
1418 1 24.2784 9.38425 7.45608 5.98463 -233171 -65367.9 63841.5 103878 21791.3 -35720.9 -7.42055 
1419 1 23.5506 8.16636 7.4519 5.99355 -222615 -84174.1 -56127.3 126029 -3557.81 -19406.5 -7.41303 
1420 1 24.2354 6.92499 7.45347 5.97871 -218581 -85691.1 50560.4 120747 22132.7 -35050.7 -7.4196 
1421 1 23.506 5.70796 7.4497 5.99138 -206953 -102781 -41755.4 140715 -8900.44 -22376.8 -7.41377 
1422 1 24.191 4.46686 7.4515 5.97465 -201490 -106900 34391.6 131894 21514.5 -33806.3 -7.4185 
1423 1 23.4603 3.25061 7.44828 5.98275 -189482 -121779 -24831.9 149406 -13936.1 -25057.9 -7.4147 
1424 1 24.1457 2.00987 7.45027 5.96898 -182070 -128745 16094.6 137148 20008 -32000.5 -7.41733 
1425 1 23.4138 0.794295 7.44772 5.97513 -170219 -141016 -6310.02 151955 -18287 -27445.7 -7.41575 
1535 1 25.6955 9.3689 7.45813 5.99161 -225360 -77305.1 -67057.6 131678 -3833.88 -16515.9 -7.41262 
1536 1 26.381 8.1279 7.45958 5.97629 -221324 -77953.6 61508.4 129263 23076.2 -32144.1 -7.42055 
1537 1 25.6525 6.91021 7.45603 5.98843 -212319 -94640.4 -52999.3 149928 -8919.48 -19223.6 -7.41335 
1538 1 26.3381 5.66942 7.45762 5.97125 -207645 -97455.7 45536.7 144022 23266.5 -31244.2 -7.41944 
1539 1 25.6082 4.45249 7.45456 5.98102 -197306 -112222 -35970.3 162128 -13872 -21696.9 -7.41427 
1540 1 26.294 3.21199 7.45626 5.9672 -191321 -117388 26955.6 152757 22527.3 -29849.3 -7.41821 
1541 1 25.563 1.99574 7.45381 5.97235 -180325 -129929 -16750.2 168078 -18266 -23932.5 -7.41536 
1542 1 26.2493 0.755623 7.45558 5.96185 -172517 -137749 6706.6 155398 20855.4 -27996.8 -7.41694 
1652 1 28.5258 9.33271 7.4646 5.97513 -219758 -73624.5 71783.4 134033 23400.7 -28537.7 -7.42144 
1653 1 27.7982 8.11447 7.46122 5.98658 -213788 -89267.6 -63772 154940 -8774.27 -15956.5 -7.41291 
1654 1 28.4843 6.87402 7.46265 5.9691 -209665 -90725.7 56414.1 152201 24341 -27913.9 -7.42034 
1655 1 27.7553 5.65652 7.45972 5.98016 -201930 -104999 -47138.2 170682 -13609.2 -18137.3 -7.41381 
1656 1 28.4415 4.41629 7.46118 5.96512 -197008 -108547 38086.7 164438 24318.1 -26878.6 -7.41909 
1657 1 27.7113 3.19946 7.45882 5.97067 -188100 -121005 -27844.9 180171 -18042.4 -20132.1 -7.41489 
1658 1 28.3979 1.95953 7.4603 5.95988 -181777 -126856 17558.9 170524 23349.9 -25441.9 -7.41777 
1659 1 27.6667 0.743272 7.45858 5.96343 -172098 -137023 -6857.51 183128 -21714.6 -21943.5 -7.41612 
1769 1 29.943 9.32034 7.46545 5.98581 -211104 -87086.2 -73785.5 155946 -8440.3 -12762.3 -7.41249 
1770 1 30.6299 8.0803 7.46676 5.96821 -207593 -87331.8 66702.8 156334 24818.3 -24064.2 -7.42117 
1771 1 29.9015 6.86233 7.4639 5.97847 -202614 -100842 -57910.2 174977 -13117.6 -14605.6 -7.41334 
1772 1 30.5884 5.62241 7.4652 5.96329 -198924 -102696 49038.6 172096 25457.7 -23336.8 -7.41993 
1773 1 29.8588 4.40509 7.46287 5.96988 -192201 -114588 -39043.5 187945 -17573.7 -16307.7 -7.41438 
1774 1 30.5458 3.16537 7.46414 5.95814 -187718 -118417 28757.4 181691 25139.9 -22272.5 -7.41859 
1775 1 29.8152 1.9486 7.46242 5.96192 -179697 -128279 -17955.9 194412 -21399.5 -17870.8 -7.4156 
1776 1 30.5025 0.709168 7.46362 5.9541 -173554 -134248 6802.71 184919 23837.3 -20902.8 -7.4172 
1886 1 32.775 9.28782 7.47013 5.96852 -201306 -87381.5 76209.8 156614 24778.1 -19865.2 -7.42195 
1887 1 32.0472 8.06952 7.4673 5.97784 -199350 -99786.2 -68020.8 175156 -12389.5 -11238.2 -7.41288 
1888 1 32.7346 6.82994 7.46847 5.96266 -196702 -100064 59504.4 175596 26032.9 -19402.3 -7.42074 
1889 1 32.0056 5.61223 7.46613 5.96983 -192651 -111192 -49952.9 191458 -16838.1 -12622.4 -7.41387 
1890 1 32.693 4.37277 7.46724 5.95678 -189736 -113157 39878.7 188649 26314.7 -18668.1 -7.4194 
1891 1 31.963 3.15559 7.46548 5.96132 -184118 -122614 -29253.9 201481 -20817.3 -13903.4 -7.41505 
1892 1 32.6506 1.91632 7.46649 5.95289 -179934 -126450 18086.8 195436 25621.3 -17671.9 -7.41799 
1893 1 31.9198 0.699573 7.46538 5.9551 -173052 -133843 -6882.16 204903 -23991.5 -15089 -7.41637 
2003 1 34.1923 9.27767 7.47006 5.9783 -191983 -101829 -77312.1 171368 -11431.2 -8108.02 -7.41246 
2004 1 34.8805 8.03848 7.47114 5.96259 -190282 -100524 69289 175068 26119.1 -15189.5 -7.42149 
2005 1 34.1519 6.8205 7.46876 5.96999 -188995 -110785 -60311.5 190844 -15827.2 -9165.42 -7.41337 
2006 1 34.8398 5.58133 7.46974 5.95598 -187556 -110957 50628 191471 26960.7 -14749.3 -7.42017 
2007 1 34.1103 4.36384 7.46791 5.96143 -184441 -119743 -40379.7 204271 -19940.8 -10149.3 -7.41448 
2008 1 34.7982 3.12476 7.46877 5.95176 -182222 -121463 29406.9 201804 26827.6 -14091.1 -7.41876 
2009 1 34.0679 1.90768 7.46756 5.95468 -177581 -128317 -18284 211243 -23377.8 -11063.5 -7.41576 
2010 1 34.756 0.668751 7.46829 5.94934 -173886 -131907 6566.45 205665 25690.2 -13238.8 -7.41732 
2121 1 36.2978 8.02949 7.47087 5.97007 -181509 -113707 -69943.5 186262 -14546.8 -5980.06 -7.4129 
2123 1 36.2571 5.57296 7.46982 5.96168 -180826 -120057 -51070.2 202968 -18756.4 -6660.44 -7.41393 
2125 1 36.2155 3.11679 7.46924 5.95498 -178265 -126147 -29634.3 213403 -22450.6 -7291.94 -7.41515 
2127 1 36.1733 0.660962 7.46915 5.9501 -173202 -132020 -6587.75 217399 -25310.3 -7884.99 -7.41652 
2120 1 37.0262 9.24761 7.47331 5.96303 -179880 -104475 78255.7 170690 25775.8 -10764.4 -7.42218 
2122 1 36.9864 6.79063 7.47176 5.95591 -181263 -112057 60793.7 190264 27150.9 -10587.4 -7.42091 
2124 1 36.9455 4.3341 7.47058 5.95111 -180412 -119855 40469 203980 27540.2 -10236.1 -7.41952 
2126 1 36.9038 1.87799 7.46985 5.94873 -176683 -127560 18040.9 211416 26939.5 -9716.35 -7.41807 
2237 1 38.4436 9.23879 7.47255 5.97057 -170144 -119719 -78718.8 177873 -13009.3 -3086.2 -7.41247 
2238 1 39.1328 8.00028 7.47337 5.95648 -170961 -116333 70215.8 185075 26939 -6219.27 -7.4216 
2239 1 38.4037 6.78254 7.47132 5.96188 -173187 -123497 -61127.9 197645 -17259.9 -3458.47 -7.41341 
2240 1 39.0926 5.54393 7.47199 5.95115 -174348 -121329 51051.9 202104 27827.5 -6147.75 -7.42025 
2241 1 38.3628 4.32651 7.4705 5.95525 -174771 -126975 -40666.8 211487 -21185.7 -3800.13 -7.41455 
2242 1 39.0514 3.08786 7.47101 5.9482 -175299 -126339 29380.2 213016 27725.5 -5935.02 -7.41881 
2243 1 38.3211 1.87069 7.47015 5.95057 -174187 -130241 -18105.6 218992 -24399.8 -4115.81 -7.41586 
2244 1 39.0096 0.632064 7.47048 5.94771 -173162 -131198 6145.84 217598 26613.4 -5599.67 -7.41734 
2354 1 41.2793 9.20987 7.47458 5.95772 -156944 -123881 78740.7 176152 26362.2 -1663.42 -7.42223 
2355 1 40.5503 7.99217 7.47245 5.96263 -161819 -130176 -70388.4 188506 -15454.8 -553.795 -7.41293 
2356 1 41.2397 6.75385 7.47304 5.95187 -164338 -126115 60963.8 196236 27740.3 -1843.81 -7.42094 
2357 1 40.5099 5.53643 7.47141 5.95564 -167269 -131074 -51163.9 205532 -19566.6 -597.021 -7.41398 
2358 1 41.1989 4.29797 7.47183 5.94838 -169669 -128364 40348.2 210533 28112.3 -1914.59 -7.41953 
2359 1 40.4687 3.08076 7.47079 5.95087 -171068 -131667 -29425.7 216469 -23126 -625.917 -7.41522 
2360 1 41.1574 1.84223 7.47103 5.94732 -172248 -130417 17672.6 218678 27481.1 -1877.72 -7.41807 
2361 1 40.4269 0.625132 7.47065 5.94823 -172266 -131882 -6131.4 221078 -25821.8 -654.189 -7.41659 
2471 1 42.6969 9.20147 7.47322 5.96396 -146993 -140177 -78683.7 175676 -13348.7 2038.68 -7.4125 
2472 1 43.3869 7.96346 7.47372 5.95329 -150619 -134232 70008.7 186487 27312.4 2665.93 -7.42157 
2473 1 42.6571 6.74616 7.47198 5.95664 -156067 -138535 -60926.3 195699 -17581.8 2310.08 -7.41345 
2474 1 43.3465 5.50791 7.47231 5.94925 -159994 -133748 50722.6 204053 28147.9 2338.19 -7.42022 
2475 1 42.6163 4.29078 7.47111 5.95145 -163907 -136486 -40315.5 209964 -21457.3 2581.2 -7.4146 
2476 1 43.3053 3.05237 7.47126 5.94733 -167282 -133185 28941 215604 27969.9 2096.42 -7.41878 
2477 1 42.5747 1.83532 7.47069 5.94856 -169685 -134081 -17640.2 217979 -24586.1 2846.55 -7.41591 
2478 1 43.2635 0.596796 7.47066 5.9474 -171518 -132300 5633.39 220868 26773.3 1926.89 -7.41731 
2588 1 45.5344 9.17237 7.474 5.95543 -133688 -145670 77957 173177 26568.2 7364.1 -7.42212 
2589 1 44.8045 7.9553 7.47219 5.95824 -141362 -149281 -69738.4 182147 -15225.7 4901.62 -7.41297 
2590 1 45.4944 6.7173 7.47242 5.95045 -146772 -142423 60265.4 193663 27865.8 6815.19 -7.42085 
2591 1 44.764 5.50036 7.47109 5.95263 -152797 -144449 -50539.4 199449 -19365.1 5495.09 -7.41401 
2592 1 45.4533 4.26209 7.47114 5.94759 -158066 -138929 39704.2 208519 28125.6 6319.72 -7.41945 
2593 1 44.7226 3.0452 7.47041 5.94929 -162933 -139385 -28827.4 210913 -22917.7 6072.24 -7.41525 
2594 1 45.4115 1.80673 7.47028 5.94716 -167005 -135500 17087.7 217243 27360 5879.99 -7.41799 
2595 1 44.6808 0.589789 7.47019 5.94776 -170596 -134007 -5587.47 216056 -25572.1 6615.65 -7.41662 
2705 1 46.9522 9.16346 7.472 5.9605 -123759 -163131 -77345.6 165052 -12497.6 7135.26 -7.41254 
2706 1 47.6427 7.92574 7.47211 5.95201 -130323 -154158 68687 179546 27292.3 11489.6 -7.42139 
2707 1 46.912 6.70909 7.4707 5.95449 -138490 -155879 -59833.1 185274 -16826.1 8086.53 -7.41348 
2708 1 47.6017 5.47101 7.47063 5.94861 -145514 -148267 49674.6 197481 27983.3 10778 -7.42007 
2709 1 46.8707 4.25438 7.46976 5.95059 -152311 -148112 -39429 199802 -20770 9003.03 -7.41462 
2710 1 47.5598 3.01599 7.46951 5.94762 -158546 -141856 28129.3 209613 27627.1 10092.1 -7.41865 
2711 1 46.8288 1.79928 7.46927 5.94832 -164323 -139869 -16954.2 208374 -23930.7 9878.06 -7.41592 
2712 1 47.5174 0.560652 7.46885 5.94906 -169123 -135461 5063.83 215414 26232.9 9425.11 -7.41721 
2822 1 49.7914 9.13288 7.47129 5.95451 -111573 -169254 75638.8 162088 26456.5 16295.3 -7.42184 
2823 1 49.0604 7.9166 7.46987 5.95705 -121314 -170378 -67878.4 167505 -13826 10297.5 -7.413 
2824 1 49.7505 6.67873 7.46964 5.95049 -129576 -160435 58505.7 182745 27574.8 15426.7 -7.42061 
2825 1 49.0192 5.46246 7.4687 5.95261 -138454 -159931 -49126.5 184951 -18100.6 11594.8 -7.41403 
2826 1 49.7085 4.22419 7.46829 5.94887 -146419 -151440 38429.2 197956 27612.2 14535.4 -7.41926 
2827 1 48.9772 3.00782 7.46793 5.94969 -154275 -149009 -27819.8 196703 -21757.6 12833.5 -7.41524 
2828 1 49.6658 1.7692 7.46736 5.94972 -161134 -142297 16263.9 207169 26591.5 13631.4 -7.41784 
2829 1 48.9347 0.552635 7.46765 5.94922 -168140 -137959 -4979.92 202388 -24482.1 13989.6 -7.4166 
2939 1 51.2093 9.12253 7.46851 5.96042 -102078 -187700 -74297.9 146573 -10359.8 12037 -7.4126 
2940 1 51.8999 7.88492 7.46808 5.95337 -111678 -175435 65780.1 164509 26936.6 20168.5 -7.42103 
2941 1 51.1682 6.66908 7.46712 5.9556 -121599 -174657 -57540.3 166545 -14878.3 13768.2 -7.41351 
2942 1 51.8578 5.43095 7.46651 5.95107 -131423 -163804 47578 182515 27353.9 19137.5 -7.41977 
2943 1 51.126 4.21501 7.46609 5.95201 -140795 -161237 -37819.6 181235 -18992.2 15415.2 -7.41461 
2944 1 51.8148 2.97644 7.46533 5.95125 -149887 -152189 26780.7 194891 26680.9 18041.1 -7.41841 
2945 1 51.0832 1.76028 7.46554 5.95081 -158488 -147425 -15991.5 190061 -22293.5 16962.7 -7.41588 
2946 1 51.7713 0.52134 7.46463 5.95395 -165900 -140225 4441.17 201167 24942.6 16881.2 -7.41702 
3056 1 54.0499 9.08924 7.46589 5.9574 -92575.8 -192703 71022.4 143303 26124.4 24831.3 -7.4213 
3057 1 53.3177 7.87389 7.46496 5.95936 -103184 -191969 -64218.3 145027 -11088.6 15409 -7.41306 
3058 1 54.0077 6.63594 7.46408 5.95437 -114537 -178759 55090.7 163571 26898.9 23757.9 -7.42016 
3059 1 53.2754 5.42049 7.46365 5.95539 -124806 -176115 -46503.2 162182 -15587.3 17516.3 -7.41404 
3060 1 53.9644 4.182 7.46263 5.9538 -135707 -164565 36146.5 178766 26546.2 22542 -7.41889 
3061 1 53.2323 2.96633 7.4628 5.95341 -145798 -159756 -26179.5 173941 -19449.3 19499.7 -7.4152 
3062 1 53.9204 1.72737 7.46166 5.95577 -155303 -150234 15074.5 188171 25098.7 21204.3 -7.41755 
3063 1 53.1887 0.511364 7.46249 5.954 -164858 -143150 -4301.95 179899 -22361.5 21321.3 -7.41649 
3172 1 56.2005 10.2914 7.46306 5.96271 -74067 -211582 73743.5 119820 25221.2 29158.6 -7.42139 
3173 1 55.4679 9.07659 7.46218 5.96294 -83882 -210922 -68669.2 120937 -6741.14 16371 -7.41272 
3174 1 56.1583 7.83885 7.46096 5.95893 -96768.5 -195319 60429.6 141589 26312.4 28167.8 -7.42039 
3175 1 55.4255 6.62393 7.46055 5.95864 -107267 -193072 -53352.5 140054 -11520.9 18993.5 -7.41355 
3176 1 56.1147 5.38555 7.45918 5.95756 -119870 -179053 43808.7 159083 26243.2 26937.4 -7.41924 
3177 1 55.382 4.17042 7.45935 5.95655 -130535 -174476 -35032.1 154293 -15891.6 21457.1 -7.41457 
3178 1 56.0702 2.93146 7.45789 5.9587 -142083 -162546 24567.2 171254 25045.2 25502.7 -7.41799 
3179 1 55.3378 1.71601 7.45872 5.95679 -152828 -155601 -14582 163102 -19444.1 23735.4 -7.41576 
3180 1 56.0252 0.476564 7.45719 5.96236 -162516 -145955 3769.83 177659 22760.5 23878.2 -7.4167 
3289 1 57.6186 10.2769 7.45882 5.96758 -65424.2 -230556 -70411.2 95220.4 -1871.44 16503.2 -7.4125 
3290 1 58.3095 9.03945 7.45717 5.96489 -79881.1 -212585 63075.3 117436 25680.7 32052.3 -7.42043 
3291 1 57.5762 7.82505 7.45676 5.96268 -89191.4 -210998 -57822 115587 -6809.38 19679.5 -7.41316 
3292 1 58.2657 6.5868 7.45496 5.96268 -103805 -194604 49178.8 136433 25844.2 30933.4 -7.41942 
3293 1 57.5324 5.37224 7.45513 5.9599 -113962 -190756 -41966 131647 -11598.2 22657.4 -7.41404 
3294 1 58.2207 4.13332 7.45325 5.96292 -127597 -176334 32307.5 150850 24844.2 29511.4 -7.41828 
3295 1 57.4877 2.91846 7.4541 5.95946 -138410 -169904 -23517.3 142875 -15759.9 25420.5 -7.41508 
3296 1 58.175 1.67896 7.45218 5.96565 -150257 -157957 13332.2 159940 22731.8 27816 -7.41709 
3297 1 57.4426 0.463677 7.45374 5.96139 -161535 -148962 -3526.54 148816 -18998.2 27914.9 -7.41626 
3406 1 60.4612 10.2376 7.45289 5.97227 -65575.9 -229487 62604 91978.5 25097.5 35054.4 -7.42025 
3407 1 59.7275 9.02365 7.45241 5.96801 -72416.8 -228959 -59417.9 89607 -1515.42 19422.1 -7.41292 
3408 1 60.4173 7.78557 7.45007 5.96925 -88928.9 -210079 51724.1 111752 25434.1 34160.1 -7.4194 
3409 1 59.6836 6.57155 7.4502 5.96455 -97565.8 -207414 -46401.2 106930 -6602.46 22916.2 -7.41362 
3410 1 60.372 5.33269 7.44778 5.96856 -113148 -190624 37667.5 127647 24570.1 32869.3 -7.41841 
3411 1 59.6384 4.11843 7.44861 5.96339 -123209 -185363 -30477.3 119962 -11299.6 26163 -7.4145 
3412 1 60.3257 2.87889 7.44621 5.97029 -136949 -171131 21108 138892 22569.7 31215.3 -7.41733 
3413 1 59.5925 1.66425 7.4478 5.96455 -148174 -163002 -12500 128203 -15222.5 29123.2 -7.41553 
3414 1 60.2789 0.424117 7.44548 5.97442 -159318 -151486 3051.49 144993 19503.7 29226.2 -7.41622 
3523 1 61.8794 10.2197 7.44775 5.97473 -58266.4 -245279 -57789.5 63389.5 4243.17 18140.6 -7.41284 
3524 1 62.5695 8.98174 7.44478 5.97724 -76946 -224113 51076.7 86096.7 25086.8 36250.4 -7.41916 
3525 1 61.8353 7.7682 7.44473 5.9706 -82635.6 -223164 -47866.2 81182.8 -1006.72 22097.1 -7.41334 
3526 1 62.524 6.52942 7.44169 5.97563 -100381 -204014 40135.5 102761 24299.6 35175.1 -7.41833 
3527 1 61.7898 5.31571 7.4424 5.96867 -108293 -200425 -34873.7 95347.3 -6130.98 25775.2 -7.41403 
3528 1 62.4771 4.07617 7.43941 5.97632 -124044 -183878 26459.9 115455 22347.2 33665.6 -7.41739 
3529 1 61.7433 2.86215 7.44094 5.96904 -133939 -177222 -19475.3 105304 -10680.5 29151.6 -7.41488 
3530 1 62.4295 1.62193 7.43811 5.97928 -146979 -163688 10856.8 123558 19328.9 31758.2 -7.41641 
3531 1 61.6963 0.40746 7.44048 5.97176 -158532 -154000 -2644.98 110778 -14403 32169.1 -7.41585 
3641 1 63.9876 8.96218 7.43909 5.97801 -70810.9 -236589 -46097 55618.8 5013.86 20180.5 -7.41324 
3643 1 63.9418 6.51024 7.43577 5.97536 -95401.9 -213792 -36292.5 70318.7 -408.317 24170 -7.41371 
3645 1 63.8948 4.05724 7.43343 5.97496 -120592 -190654 -23887.6 81442 -5487.38 27842.5 -7.41436 
3647 1 63.847 1.60314 7.43225 5.97675 -145429 -167533 -9666.87 88474.1 -9891.48 31175.4 -7.41515 
3640 1 64.7221 10.1753 7.43947 5.98648 -69407.7 -235231 47112.4 60629.4 24826.8 36950.9 -7.41873 
3642 1 64.6764 7.72348 7.43536 5.984 -90947.9 -215147 39434.8 77418.6 24084.5 36099 -7.41805 
3644 1 64.6293 5.2707 7.43213 5.98366 -113345 -195037 28928 90865.6 22129.4 34781.4 -7.41726 
3646 1 64.581 2.81696 7.43001 5.98547 -135655 -175280 16233.8 100305 19111.6 33037.9 -7.41642 
3648 1 64.5322 0.36222 7.42917 5.98934 -156902 -155555 2224.63 105485 15147.1 30909.6 -7.41558 
3757 1 66.1402 10.1536 7.43374 5.98665 -63401.1 -246288 -41098.8 31388.2 11222.5 17317.7 -7.41332 
3758 1 66.8292 8.915 7.42929 5.99335 -85701.8 -222699 35594.2 52830.7 23915.9 35504.7 -7.4176 
3759 1 66.0944 7.70211 7.42921 5.98336 -85968.4 -224226 -34594.4 46238.3 5632.96 21433 -7.41357 
3760 1 66.7818 6.46257 7.42489 5.99206 -106051 -203551 28364.7 66500.7 21943.8 34339.5 -7.41697 
3761 1 66.047 5.24956 7.42575 5.98215 -109683 -201852 -25410.6 57848.6 141.085 25213.4 -7.414 
3762 1 66.7332 4.00923 7.42172 5.99273 -126466 -184494 18818.9 76768.2 18899.2 32767.8 -7.41627 
3763 1 65.9986 2.79596 7.4236 5.98307 -133445 -179296 -14180.4 66008.8 -4851.03 28673 -7.41457 
3764 1 66.6837 1.55495 7.42001 5.99527 -146421 -165833 7668.47 83192.3 14961.1 30848.2 -7.41556 
3765 1 65.9497 0.341284 7.42291 5.98604 -156459 -157035 -1735.56 70438.7 -9157.35 31807.6 -7.41526 
3874 1 68.982 10.1043 7.42401 6.00147 -85286.9 -225762 28939.4 29645.5 23726.5 33500.3 -7.41702 
3875 1 68.2472 8.89154 7.42327 5.9923 -80649.8 -230635 -29945.6 23960.1 11706.9 17849.8 -7.41361 
3876 1 68.9347 7.652 7.4183 6.00108 -102992 -208008 24964.8 43584.5 21765.6 32381.4 -7.41653 
3877 1 68.1997 6.43929 7.41849 5.99038 -102107 -209494 -24043 35946.4 5916.81 21511.7 -7.41381 
3878 1 68.8858 5.19891 7.41389 6.00069 -120921 -190535 18611.8 54204 18698.9 30907.2 -7.41597 
3879 1 68.1508 3.98608 7.41515 5.99047 -123875 -188457 -15964.2 44727 447.264 24855.5 -7.41416 
3880 1 68.8358 2.74499 7.4111 6.00201 -138575 -173568 10478.1 61443.9 14797.2 29166 -7.41539 
3881 1 68.1012 1.53187 7.41346 5.99244 -145339 -167775 -6399.18 50232.8 -4436.14 27947.6 -7.41464 
3882 1 68.7852 0.29019 7.41009 6.00495 -155524 -157131 1285.08 65228 10198.3 27224.3 -7.41485 
3991 1 70.4001 10.0789 7.41845 6.00182 -79957.7 -232498 -22788.6 3963.73 17536.6 13848.7 -7.41384 
3992 1 71.0876 8.83934 7.41291 6.00864 -104112 -208166 19200.9 22642.9 21541.9 29187.7 -7.41601 
3993 1 70.3526 7.62678 7.41228 5.99927 -98776.3 -213249 -20097.7 16524.9 11540 17185.3 -7.4138 
3994 1 71.0387 6.38635 7.40719 6.00888 -119354 -192840 15949.7 33771.2 18482.5 27706.2 -7.41558 
3995 1 70.3035 5.17378 7.40761 5.99854 -117963 -194192 -15145 25834.4 5688.48 20180.3 -7.41393 
3996 1 70.9884 3.93262 7.40318 6.00907 -134154 -178085 10794.3 41562.8 14633.2 26049.7 -7.41513 
3997 1 70.2534 2.7199 7.40474 5.99958 -136994 -175610 -8518.48 32042.1 344.409 22961.7 -7.4142 
3998 1 70.9373 1.47815 7.4011 6.01069 -148328 -163947 4353.5 46218.2 10223.5 24331.2 -7.4147 
3999 1 70.2027 0.265149 7.40381 6.0022 -155426 -157580 -915.754 35292.8 -4392.73 25651 -7.41458 
4108 1 73.2403 10.0251 7.40913 6.00657 -108935 -204045 11725.7 3726.04 21255.3 25125.7 -7.41546 
4109 1 72.5055 8.81248 7.40759 6.00767 -99351.5 -212957 -14128.2 -339.544 16775.1 12751 -7.41395 
4110 1 73.1915 7.57198 7.40212 6.01532 -121354 -191222 11396.2 15774.2 18238.7 23592.8 -7.41515 
4111 1 72.4564 6.35952 7.40158 6.00683 -115820 -196204 -12146.1 9845.42 10597.3 15250.6 -7.41387 
4112 1 73.1412 5.11828 7.39687 6.01599 -133206 -179000 9052.14 24349.6 14445.5 21944 -7.41481 
4113 1 72.406 3.90581 7.39745 6.00697 -131937 -180028 -8331.47 16782.6 4868.46 17520.3 -7.41394 
4114 1 73.0898 2.66398 7.39364 6.01645 -144410 -167523 5235.35 29692 10233.7 20348.5 -7.41448 
4115 1 72.3548 1.45136 7.39538 6.00856 -147547 -164601 -3306.91 20797.4 -217.075 19769.9 -7.41414 
4116 1 73.038 0.209071 7.39252 6.01643 -155056 -156675 555.01 32210.3 5671.91 18908.2 -7.41419 
4225 1 74.6582 9.99688 7.40473 6.01104 -103475 -208982 -6839.67 -14840.3 21518.7 8617.72 -7.41423 
4226 1 75.3442 8.75629 7.39898 6.01107 -126403 -186094 5621.27 73.6778 18032 18957.2 -7.41473 
4227 1 74.6093 7.54379 7.39745 6.01295 -117040 -194813 -7583.85 -3350.78 15032.7 10606.8 -7.41396 
4228 1 75.294 6.30247 7.39254 6.0194 -135521 -176698 5840.52 9820.08 14280.7 17344.6 -7.41449 
4229 1 74.5588 5.09008 7.39208 6.01402 -130246 -181264 -6340.88 4613.78 8926.13 12310.8 -7.41385 
4230 1 75.2426 3.84818 7.38817 6.02163 -143733 -167944 4411.17 16106 10211.8 15837.2 -7.41424 
4231 1 74.5074 2.63577 7.38884 6.0148 -142905 -168526 -3673.66 9491.63 3543.48 13977.6 -7.41387 
4232 1 75.1905 1.39343 7.38597 6.02062 -151405 -160013 1881.42 19425.5 6024.94 14588.3 -7.41403 
4233 1 74.4554 0.180885 7.38778 6.01653 -155115 -156564 -219.526 11641.1 -1141.4 15849.4 -7.41401 
4342 1 77.4964 9.93977 7.3979 6.00735 -134373 -178229 -669.68 -13831.4 18002.4 13981.2 -7.41437 
4343 1 76.7619 8.72708 7.39538 6.01473 -121240 -190616 -2163 -14373.1 19032.8 6542.32 -7.41416 
4344 1 77.4466 7.48568 7.39035 6.01579 -140358 -171639 1800.34 -2496.35 14288.5 12563.5 -7.41421 
4345 1 76.7117 6.27323 7.38884 6.01782 -131640 -179805 -3192.25 -4885.96 12505.6 7783.97 -7.41388 
4346 1 77.3954 5.03126 7.38488 6.02262 -145793 -165727 2457.3 5178.13 10266.3 11243 -7.41403 
4347 1 76.6602 3.81891 7.38448 6.01961 -141332 -169669 -2579.91 1136.02 6766.18 8911.31 -7.41377 
4348 1 77.3432 2.57653 7.38163 6.02457 -150598 -160427 1791 9535.42 6313.46 10192.7 -7.41387 