ITEM: TIMESTEP
0
ITEM: NUMBER OF ATOMS
9128
ITEM: BOX BOUNDS pp pp pp
0.0000000000000000e+00 8.2960465999999997e+01
0.0000000000000000e+00 1.4369174200000000e+02
0.0000000000000000e+00 1.8399999999999999e+01
ITEM: ATOMS id type x y z c_csym c_2[1] c_2[2] c_2[3] c_2[4] c_2[5] c_2[6] c_3 
130 1 0.145417 9.82292 7.5 6.03193 -135293 -145684 -139902 334.757 30212.6 -966.308 -7.4115 
131 1 0.836148 8.58456 7.5 6.03193 -148555 -131161 -150568 -584.238 19936.6 -3782.93 -7.41092 
132 1 0.109063 7.36719 7.5 6.03193 -134445 -143453 -148671 260.512 21326.4 -810.045 -7.41105 
133 1 0.799794 6.12883 7.5 6.03193 -144318 -132502 -153962 -582.789 14189 -3193.8 -7.41077 
134 1 0.0727086 4.91146 7.5 6.03193 -134425 -141179 -154347 177.727 13285.1 -607.094 -7.41076 
135 1 0.76344 3.6731 7.5 6.03193 -140750 -134090 -156546 -583.847 8511.74 -2569.55 -7.41065 
136 1 0.0363543 2.45573 7.5 6.03193 -135236 -138951 -157387 90.1049 6230.32 -339.408 -7.41061 
137 1 0.727086 1.21737 7.5 6.03193 -137936 -135914 -158016 -585.224 2835.77 -1977.31 -7.41058 
138 1 0 0 7.5 6.03193 -136866 -136869 -158294 13.6823 0.00459501 0.0177636 -7.41057 
248 1 2.98105 9.78095 7.5 6.03194 -150770 -131181 -146348 -1275.29 23059.1 -11423.8 -7.41113 
249 1 2.25397 8.56357 7.5 6.03194 -134892 -144825 -144686 2855.18 25196.1 -5157.49 -7.41125 
250 1 2.9447 7.32521 7.5 6.03194 -146306 -132384 -150376 -1517.09 17336.5 -10290.8 -7.41094 
251 1 2.21761 6.10784 7.5 6.03194 -134467 -142552 -151669 2585.48 16688.2 -5175.87 -7.41089 
252 1 2.90834 4.86948 7.5 6.03194 -142427 -133840 -153734 -1782.39 11554.9 -9080.69 -7.41079 
253 1 2.18126 3.65211 7.5 6.03194 -134865 -140283 -155788 2271.61 9138.99 -5173.22 -7.41069 
254 1 2.87199 2.41375 7.5 6.03193 -139259 -135548 -156115 -2058.25 5797.83 -7918.21 -7.41067 
255 1 2.1449 1.19638 7.5 6.03193 -136086 -138127 -157531 1942.93 2530.15 -5181.06 -7.4106 
365 1 4.39887 9.75996 7.5 6.03194 -135665 -146784 -139968 5580.55 29061.5 -9392.32 -7.41148 
366 1 5.0896 8.5216 7.5 6.03194 -148409 -132941 -143857 -2143.91 20976.2 -18011.3 -7.41127 
367 1 4.36251 7.30423 7.5 6.03194 -134872 -144537 -148067 5178.06 20183.1 -9700.59 -7.41106 
368 1 5.05324 6.06587 7.5 6.03194 -144307 -134250 -148255 -2662.04 15182.1 -16319.6 -7.41106 
369 1 4.32616 4.84849 7.5 6.03194 -134873 -142243 -153093 4673.1 12104 -9967.17 -7.41081 
370 1 5.01689 3.61013 7.5 6.03194 -140848 -135823 -151824 -3213.78 9309.83 -14615.1 -7.41089 
371 1 4.28981 2.39276 7.5 6.03193 -135675 -139998 -155492 4098.64 4975.13 -10270.5 -7.4107 
372 1 4.98054 1.1544 7.5 6.03193 -138122 -137669 -154226 -3787.78 3338.09 -13053.5 -7.41077 
482 1 7.2345 9.71798 7.5 6.03194 -150520 -134155 -134030 -2446.33 24829.2 -26143.5 -7.41178 
483 1 6.50742 8.50061 7.5 6.03194 -135573 -147056 -143858 7887.46 23680.9 -14141.1 -7.41126 
484 1 7.19815 7.26225 7.5 6.03194 -146310 -135307 -139658 -3192.29 19241.8 -24195.2 -7.4115 
485 1 6.47106 6.04488 7.5 6.03194 -135219 -144779 -149610 7247.04 15160.8 -14782.2 -7.41097 
486 1 7.16179 4.80652 7.5 6.03194 -142641 -136729 -144651 -4011.9 13355.1 -22097.5 -7.41125 
487 1 6.43471 3.58915 7.5 6.03194 -135633 -142495 -152500 6474.7 7473.99 -15415.8 -7.41083 
488 1 7.12544 2.35079 7.5 6.03193 -139635 -138421 -148641 -4864.97 7298.63 -20051.7 -7.41105 
489 1 6.39835 1.13341 7.5 6.03193 -136815 -140325 -152993 5627.33 643.032 -16140.5 -7.41082 
599 1 8.65232 9.69699 7.5 6.03194 -136481 -149951 -139376 10604.2 26945.9 -18240.3 -7.41146 
601 1 8.61596 7.24126 7.5 6.03194 -135847 -147765 -145641 9909.72 18192.3 -19442.1 -7.41115 
603 1 8.57961 4.78553 7.5 6.03194 -135922 -145503 -148848 8998.63 10036.2 -20532.1 -7.41099 
605 1 8.54326 2.3298 7.5 6.03193 -136716 -143273 -149411 7931.83 2666.04 -21635.5 -7.41098 
600 1 9.34305 8.45863 7.5 6.03194 -148334 -136961 -127638 -3363.86 23420.5 -32348.1 -7.41213 
602 1 9.3067 6.0029 7.5 6.03194 -144563 -138227 -134199 -4424.63 17745.5 -30116.4 -7.41179 
604 1 9.27034 3.54717 7.5 6.03194 -141364 -139769 -139970 -5562.39 11719.9 -27767 -7.41149 
606 1 9.23399 1.09144 7.5 6.03193 -138824 -141597 -144543 -6733.18 5401.49 -25497 -7.41125 
716 1 11.488 9.65501 7.5 6.03194 -150266 -139105 -112117 -3200.87 27301.9 -40203.9 -7.41294 
717 1 10.7609 8.43764 7.5 6.03194 -136660 -150980 -141519 12530.6 20949.8 -23570.9 -7.41133 
718 1 11.4516 7.19928 7.5 6.03194 -146521 -140223 -120255 -4451.09 22148 -38161.5 -7.41252 
719 1 10.7245 5.98191 7.5 6.03194 -136475 -148839 -144845 11569.2 12526.4 -25300.8 -7.41117 
720 1 11.4152 4.74355 7.5 6.03194 -143230 -141614 -127898 -5841.97 16384.5 -35784.3 -7.41212 
721 1 10.6882 3.52618 7.5 6.03194 -136950 -146651 -145315 10361.9 4710.98 -26913.7 -7.41116 
722 1 11.3789 2.28782 7.5 6.03193 -140502 -143270 -134587 -7296.77 10191.4 -33284.3 -7.41176 
723 1 10.6518 1.07045 7.5 6.03193 -138091 -144548 -143368 8995.55 -2401.94 -28519.4 -7.41128 
833 1 12.9058 9.63402 7.5 6.03194 -137531 -154117 -137624 14933.7 23119.2 -26703.5 -7.4115 
834 1 13.5965 8.39566 7.5 6.03194 -148403 -142568 -102881 -4129.9 26154.6 -45559.4 -7.41344 
835 1 12.8694 7.17829 7.5 6.03194 -137190 -152230 -140843 14034.5 14700.3 -29253.3 -7.41135 
836 1 13.5601 5.93993 7.5 6.03194 -145144 -143821 -112339 -5713.19 20953.7 -43470.2 -7.41293 
837 1 12.8331 4.72256 7.5 6.03194 -137433 -150203 -141041 12784.8 6634.22 -31538.7 -7.41135 
838 1 13.5238 3.4842 7.5 6.03194 -142335 -145327 -121172 -7425.44 15117 -41019.2 -7.41246 
839 1 12.7967 2.26683 7.5 6.03193 -138267 -148149 -138609 11268.4 -846.255 -33663.8 -7.4115 
840 1 13.4874 1.02847 7.5 6.03193 -140052 -147085 -128882 -9180.69 8774.43 -38388.3 -7.41204 
950 1 15.7414 9.59204 7.5 6.03194 -150091 -145051 -82441.3 -3538.48 29370.8 -51619.7 -7.41452 
951 1 15.0143 8.37467 7.5 6.03194 -137931 -155331 -137236 16203.9 16278.8 -31908.8 -7.4115 
952 1 15.705 7.13631 7.5 6.03194 -147001 -146197 -93501.1 -5228.15 25042.2 -50105 -7.41393 
953 1 14.978 5.91894 7.5 6.03194 -138050 -153610 -136976 15032 8211.13 -34999.3 -7.41154 
954 1 15.6687 4.68058 7.5 6.03194 -144227 -147571 -104356 -7127.15 19843.6 -47998.7 -7.41335 
955 1 14.9416 3.46321 7.5 6.03194 -138683 -151758 -133909 13487.2 545.292 -37775.1 -7.41172 
956 1 15.6323 2.22485 7.5 6.03193 -141857 -149153 -114457 -9118.59 13982.7 -45465.1 -7.41279 
957 1 14.9053 1.00748 7.5 6.03193 -139831 -149910 -128471 11680.1 -6554.99 -40302.9 -7.41203 
1067 1 17.1592 9.57105 7.5 6.03194 -138560 -157779 -134421 17873.9 17033.3 -32918.6 -7.41163 
1068 1 17.85 8.33269 7.5 6.03194 -148685 -148510 -71896.7 -4477.25 28302.9 -55037.5 -7.41508 
1069 1 17.1229 7.11532 7.5 6.03194 -138662 -156513 -133531 16905.3 9212.36 -36858 -7.41169 
1070 1 17.8136 5.87696 7.5 6.03194 -146077 -149786 -84494 -6466.72 24018.1 -53523 -7.4144 
1071 1 17.0865 4.65959 7.5 6.03194 -139207 -155014 -129692 15461.2 1578.06 -40364.5 -7.41191 
1072 1 17.7772 3.42123 7.5 6.03194 -143741 -151233 -96796.5 -8626.47 18890.9 -51357.4 -7.41373 
1073 1 17.0502 2.20386 7.5 6.03193 -140179 -153381 -123306 13636 -5606.1 -43475.3 -7.41228 
1074 1 17.7409 0.965501 7.5 6.03193 -141736 -152834 -108219 -10830.1 13085.9 -48671.7 -7.4131 
1184 1 19.9949 9.52908 7.5 6.03194 -150087 -150523 -48299 -3575.07 30493.9 -57815.6 -7.41635 
1185 1 19.2678 8.3117 7.5 6.03194 -139129 -158574 -131091 18208.9 9480.51 -36878 -7.4118 
1186 1 19.9585 7.07334 7.5 6.03194 -147775 -151739 -62226.1 -5545.55 27344.4 -57040.4 -7.41559 
1187 1 19.2314 5.85597 7.5 6.03194 -139695 -157567 -126383 16992.8 2080.05 -41096.5 -7.41207 
1188 1 19.9221 4.61761 7.5 6.03194 -145595 -153090 -76389.6 -7769.51 23182.1 -55450.9 -7.41482 
1189 1 19.1951 3.40024 7.5 6.03194 -140617 -156317 -118970 15297.9 -5013.11 -44820.5 -7.41248 
1190 1 19.8858 2.16188 7.5 6.03193 -143604 -154528 -90169.4 -10096.9 18206.4 -53141.7 -7.41407 
1191 1 19.1587 0.944512 7.5 6.03193 -141867 -154941 -109327 13245.3 -11592.7 -48050.6 -7.41302 
1301 1 21.4127 9.50809 7.5 6.03194 -139337 -159540 -129945 18787.7 8981.56 -35089.8 -7.41185 
1302 1 22.1034 8.26973 7.5 6.03194 -149212 -153225 -38408.7 -4484.75 29636.8 -58246.1 -7.41688 
1303 1 21.3763 7.05236 7.5 6.03194 -140006 -159130 -124341 17902.5 1966.08 -39884.6 -7.41216 
1304 1 22.067 5.814 7.5 6.03194 -147313 -154516 -53970.7 -6658.17 26611.2 -57339.9 -7.41603 
1305 1 21.34 4.59662 7.5 6.03194 -140988 -158388 -115882 16465.7 -4889.45 -44152 -7.41263 
1306 1 22.0307 3.35826 7.5 6.03194 -145463 -155851 -69709.4 -9013.54 22644.2 -55581.1 -7.41517 
1307 1 21.3036 2.14089 7.5 6.03193 -142221 -157384 -105023 14566.2 -11311.2 -47859.2 -7.41323 
1308 1 21.9943 0.902534 7.5 6.03193 -143698 -157192 -84966.1 -11397.6 17890 -53046.9 -7.41433 
1418 1 24.2483 9.46611 7.5 6.03194 -150303 -154101 -14018.6 -3404.5 30836.6 -57110.9 -7.4182 
1419 1 23.5212 8.24874 7.5 6.03194 -140036 -159536 -123792 18064.9 1270.94 -36912.9 -7.41219 
1420 1 24.212 7.01038 7.5 6.03194 -148792 -155363 -30440 -5418.62 29041.7 -56885.1 -7.4173 
1421 1 23.4849 5.79301 7.5 6.03194 -141156 -159382 -114357 16981.7 -5253.73 -41550.6 -7.4127 
1422 1 24.1756 4.55465 7.5 6.03194 -147199 -156637 -47631.7 -7686.85 26201.7 -55753.3 -7.41636 
1423 1 23.4485 3.33728 7.5 6.03194 -142490 -158878 -102339 15372.2 -11432.6 -45628.3 -7.41336 
1424 1 24.1392 2.09892 7.5 6.03193 -145541 -157850 -64923.5 -10044.5 22477.5 -53755 -7.41541 
1425 1 23.4122 0.881544 7.5 6.03193 -143953 -158111 -88297.7 13350 -17047.4 -49094.5 -7.41413 
1535 1 25.6661 9.44512 7.5 6.03194 -139729 -158777 -124789 17436.1 142.833 -32584.7 -7.41214 
1536 1 26.3569 8.20676 7.5 6.03194 -149943 -155562 -6762.45 -4171.69 30450.1 -54201.8 -7.41859 
1537 1 25.6298 6.98939 7.5 6.03194 -141021 -159230 -114545 16753.1 -6014.4 -37343.1 -7.41269 
1538 1 26.3205 5.75103 7.5 6.03194 -148712 -156804 -24840.1 -6246.14 28784.7 -53678.2 -7.4176 
1539 1 25.5934 4.53366 7.5 6.03194 -142529 -159282 -101526 15519.8 -11917.9 -41599.3 -7.4134 
1540 1 26.2841 3.2953 7.5 6.03194 -147285 -157955 -43624.3 -8478.82 26157.4 -52270.2 -7.41657 
1541 1 25.5571 2.07793 7.5 6.03193 -144126 -158965 -86271.4 13805.5 -17297.4 -45281.7 -7.41423 
1542 1 26.2478 0.839566 7.5 6.03193 -145680 -158958 -62394.5 -10714.3 22680.4 -50021.9 -7.41554 
1652 1 28.5018 9.40314 7.5 6.03194 -150712 -155142 16132.6 -3018.33 30902.2 -49590.5 -7.41985 
1653 1 27.7747 8.18577 7.5 6.03194 -140542 -158022 -116409 15769.8 -6990.67 -32019.7 -7.41261 
1654 1 28.4654 6.94741 7.5 6.03194 -149916 -156368 -2254.64 -4813.18 30396.8 -49585.8 -7.41884 
1655 1 27.7383 5.73004 7.5 6.03194 -142250 -158627 -102646 14946.5 -12632.2 -36211.4 -7.41335 
1656 1 28.429 4.49168 7.5 6.03194 -148821 -157490 -21943 -6820.2 28872.1 -48742.3 -7.41776 
1657 1 27.702 3.27431 7.5 6.03194 -144059 -158817 -86407.3 13627.2 -17801.6 -39913.5 -7.41423 
1658 1 28.3927 2.03595 7.5 6.03193 -147405 -158420 -42227.6 -8884.87 26437.3 -47075.8 -7.41664 
1659 1 27.6656 0.818577 7.5 6.03193 -145821 -158643 -68350.5 11903.7 -22286.8 -43057 -7.41521 
1769 1 29.9196 9.38215 7.5 6.03194 -139743 -155991 -119730 14108.1 -7958.73 -26120.3 -7.41245 
1770 1 30.6103 8.14379 7.5 6.03194 -150754 -155432 19273.4 -3487.45 31111.7 -43830.7 -7.42002 
1771 1 29.8832 6.92642 7.5 6.03194 -141622 -157092 -105568 13671.8 -13375.7 -29999.5 -7.41321 
1772 1 30.5739 5.68806 7.5 6.03194 -150065 -156544 -733.409 -5189.63 30646.1 -43472.8 -7.41892 
1773 1 29.8469 4.47069 7.5 6.03194 -143662 -157772 -88672.8 12767.5 -18393.4 -33496.6 -7.41412 
1774 1 30.5376 3.23233 7.5 6.03194 -148951 -157457 -21930.6 -7003.93 29227 -42359.2 -7.41776 
1775 1 29.8105 2.01496 7.5 6.03193 -145665 -158026 -69673.7 11438.2 -22747.2 -36540.9 -7.41515 
1776 1 30.5012 0.776599 7.5 6.03193 -147411 -158109 -43546.5 -8799.38 26915.3 -40524 -7.41658 
1886 1 32.7552 9.34017 7.5 6.03194 -151205 -154164 39021.1 -2341.09 31041.2 -36801.6 -7.42112 
1887 1 32.0281 8.1228 7.5 6.03194 -140682 -154960 -109995 11789.7 -13931.7 -23485.4 -7.41299 
1888 1 32.7189 6.88444 7.5 6.03194 -150957 -155274 19237.2 -3687.09 31559.6 -36826.6 -7.42002 
1889 1 31.9918 5.66707 7.5 6.03194 -142916 -156068 -92847.1 11266.6 -18864.2 -26566 -7.41391 
1890 1 32.6825 4.42871 7.5 6.03194 -150220 -156195 -2283.12 -5178.9 31091.8 -36197.4 -7.41884 
1891 1 31.9554 3.21134 7.5 6.03194 -145181 -156747 -73281.9 10351.5 -23180.8 -29309.2 -7.41497 
1892 1 32.6461 1.97298 7.5 6.03193 -148943 -156835 -24809.5 -6696.36 29698.4 -34928.4 -7.41761 
1893 1 31.9191 0.75561 7.5 6.03193 -147261 -157019 -52054.8 9108.23 -26679.8 -31661.6 -7.41612 
2003 1 34.173 9.31918 7.5 6.03194 -139522 -152571 -115516 9447.14 -14112.6 -17094.5 -7.41272 
2004 1 34.8638 8.08082 7.5 6.03194 -151473 -153878 37328.1 -2385.71 31721.7 -29156.9 -7.42103 
2005 1 34.1367 6.86345 7.5 6.03194 -141865 -154020 -98562.7 9228.45 -19008.9 -19591.1 -7.41362 
2006 1 34.8274 5.62509 7.5 6.03194 -151154 -154819 16025.3 -3509.03 32119 -28927.2 -7.41985 
2007 1 34.1003 4.40772 7.5 6.03194 -144349 -155066 -78875.2 8684.78 -23376.2 -21856.2 -7.41468 
2008 1 34.791 3.16936 7.5 6.03194 -150229 -155496 -6824.5 -4695.46 31568.4 -28162.3 -7.4186 
2009 1 34.064 1.95199 7.5 6.03193 -146714 -155680 -57161 7836.87 -26952.4 -23846.7 -7.41585 
2010 1 34.7547 0.713631 7.5 6.03193 -148689 -155851 -30408.9 -5861.01 30086.3 -26895.4 -7.41731 
2121 1 36.2816 8.05983 7.5 6.03194 -140606 -151949 -105364 6795.26 -18662.6 -12921.3 -7.41328 
2123 1 36.2452 5.6041 7.5 6.03194 -143218 -153288 -86029.6 6543.05 -23139.8 -14576 -7.41431 
2125 1 36.2089 3.14837 7.5 6.03194 -145828 -154215 -64295.1 6054.69 -26894.2 -16055.7 -7.41548 
2127 1 36.1725 0.692642 7.5 6.03193 -148166 -154732 -40989.1 5368.81 -29732.2 -17340.3 -7.41674 
2120 1 37.0087 9.27721 7.5 6.03194 -151626 -152553 53037.5 -1333.11 31255.1 -20763.8 -7.4219 
2122 1 36.9723 6.82147 7.5 6.03194 -151720 -153522 32417.5 -2070.5 32420.6 -20844.5 -7.42076 
2124 1 36.9359 4.36574 7.5 6.03194 -151192 -154254 9780.91 -2882.98 32620.6 -20508.2 -7.41952 
2126 1 36.8996 1.91001 7.5 6.03193 -149975 -154663 -14123.4 -3703.71 31877.3 -19771.8 -7.41821 
2237 1 38.4265 9.25622 7.5 6.03194 -139267 -150134 -112765 4120.13 -17717.8 -6779.94 -7.4129 
2238 1 39.1172 8.01786 7.5 6.03194 -151929 -152464 46431.5 -914.717 32125.7 -12191 -7.42154 
2239 1 38.3901 6.80049 7.5 6.03194 -141888 -151695 -94254 4059.45 -22323.4 -7738.01 -7.41389 
2240 1 39.0809 5.56213 7.5 6.03194 -151799 -153265 24471.1 -1337.11 32975.1 -12198.6 -7.42033 
2241 1 38.3538 4.34475 7.5 6.03194 -144648 -152878 -72993.6 3850.72 -26321.5 -8599.19 -7.41502 
2242 1 39.0445 3.10639 7.5 6.03194 -150963 -153772 776.759 -1783.52 32876.4 -11918.3 -7.41903 
2243 1 38.3174 1.88902 7.5 6.03193 -147248 -153641 -49738.8 3500.56 -29453 -9356.34 -7.41628 
2244 1 39.0081 0.650664 7.5 6.03193 -149405 -153935 -23815.3 -2231.25 31815.2 -11379.1 -7.41769 
2354 1 41.2621 9.21424 7.5 6.03194 -151833 -151745 57709.4 -69.9266 31379.5 -3174.34 -7.42216 
2355 1 40.535 7.99687 7.5 6.03194 -140482 -150498 -103039 1369.99 -20831.8 -1505.54 -7.41342 
2356 1 41.2258 6.75851 7.5 6.03194 -152054 -152623 36800.8 -114.435 32773.9 -3427.5 -7.42101 
2357 1 40.4987 5.54114 7.5 6.03194 -143270 -151883 -82742.2 1345.79 -25096.1 -1675.63 -7.41451 
2358 1 41.1894 4.30278 7.5 6.03194 -151604 -153247 13776.4 -169.06 33214.3 -3513.67 -7.41974 
2359 1 40.4623 3.08541 7.5 6.03194 -146045 -152869 -60046.2 1267.44 -28590.3 -1812.88 -7.41573 
2360 1 41.153 1.84705 7.5 6.03193 -150405 -153533 -10607.1 -230.707 32700.3 -3447.42 -7.41841 
2361 1 40.426 0.629675 7.5 6.03193 -148511 -153453 -35815.2 1152.68 -31129.1 -1933.97 -7.41704 
2471 1 42.6799 9.19325 7.5 6.03194 -139132 -149816 -111885 -1402.46 -18612.9 4017.87 -7.41295 
2472 1 43.3707 7.95489 7.5 6.03194 -152006 -152350 46408.5 753.845 32181.2 5613.98 -7.42154 
2473 1 42.6436 6.73752 7.5 6.03194 -141813 -151363 -93012.7 -1337.68 -23126.3 4591.31 -7.41396 
2474 1 43.3343 5.49916 7.5 6.03194 -151896 -153103 24430.3 1079.36 33049.1 5272.78 -7.42033 
2475 1 42.6072 4.28179 7.5 6.03194 -144636 -152533 -71384.7 -1232.72 -27011.6 5140.82 -7.41512 
2476 1 43.2979 3.04343 7.5 6.03194 -151074 -153554 712.625 1411.24 32971.5 4966.47 -7.41903 
2477 1 42.5709 1.82606 7.5 6.03193 -147292 -153286 -47769.3 -1090.18 -30018.9 5638.82 -7.41639 
2478 1 43.2616 0.587696 7.5 6.03193 -149522 -153658 -23906.8 1705.02 31921.8 4676.13 -7.41768 
2588 1 45.5156 9.15127 7.5 6.03194 -151752 -152389 53012.9 1263.65 31381.4 14697.4 -7.4219 
2589 1 44.7885 7.9339 7.5 6.03194 -140402 -151357 -103281 -4088.2 -20355.8 10103.4 -7.4134 
2590 1 45.4792 6.69554 7.5 6.03194 -151888 -153273 32366.6 1927.22 32564.3 14238.5 -7.42076 
2591 1 44.7521 5.47817 7.5 6.03194 -143138 -152678 -83211.3 -3888.05 -24623.9 11393.7 -7.41447 
2592 1 45.4428 4.23981 7.5 6.03194 -151397 -153905 9692.05 2642.25 32802.3 13687.1 -7.41951 
2593 1 44.7158 3.02244 7.5 6.03194 -145867 -153589 -60741.9 -3556.95 -28136.4 12574.9 -7.41568 
2594 1 45.4065 1.78408 7.5 6.03193 -150202 -154203 -14260.5 3346.76 32090.2 13033.9 -7.4182 
2595 1 44.6794 0.566707 7.5 6.03193 -148301 -154090 -36730.7 -3097.39 -30717.4 13595.9 -7.41698 
2705 1 46.9334 9.13028 7.5 6.03194 -139144 -151827 -113027 -6805.39 -16751.6 14749.2 -7.41287 
2706 1 47.6241 7.89192 7.5 6.03194 -151676 -153621 37295.5 2373.41 31960.2 23114.9 -7.42103 
2707 1 46.897 6.67455 7.5 6.03194 -141664 -153266 -94975.9 -6590.28 -21365.6 16828.9 -7.41383 
2708 1 47.5878 5.43619 7.5 6.03194 -151420 -154433 15952.7 3427.33 32392 22471.2 -7.41985 
2709 1 46.8607 4.21882 7.5 6.03194 -144329 -154303 -74174.6 -6152.62 -25387.5 18746.6 -7.41495 
2710 1 47.5514 2.98046 7.5 6.03194 -150544 -154961 -6954.2 4518.97 31887.3 21598 -7.41859 
2711 1 46.8243 1.76309 7.5 6.03193 -146854 -154906 -51369.8 -5507.62 -28581.4 20442.9 -7.41618 
2712 1 47.515 0.524729 7.5 6.03193 -149033 -155152 -30610.5 5540.53 30428.3 20486.7 -7.4173 
2822 1 49.769 9.0883 7.5 6.03194 -151397 -153972 39023.7 2452.12 31433.1 31562.2 -7.42112 
2823 1 49.0419 7.87093 7.5 6.03194 -140319 -154201 -106121 -9235.34 -17200.5 21301.4 -7.41322 
2824 1 49.7327 6.63257 7.5 6.03194 -151242 -154944 19211.7 3768.95 31949.5 30990.7 -7.42002 
2825 1 49.0056 5.4152 7.5 6.03194 -142789 -155326 -87487.5 -8767.77 -21708.5 23997.2 -7.41422 
2826 1 49.6963 4.17684 7.5 6.03194 -150587 -155698 -2359.12 5200.17 31522.7 30060.7 -7.41884 
2827 1 48.9692 2.95947 7.5 6.03194 -145279 -156017 -66441.7 -8002.58 -25533.5 26415.9 -7.41535 
2828 1 49.6599 1.72111 7.5 6.03193 -149371 -156146 -24958.6 6626.81 30165.9 28764.8 -7.4176 
2829 1 48.9329 0.50374 7.5 6.03193 -147539 -156289 -43794.3 -6966.88 -28506.4 28477.9 -7.41658 
2939 1 51.1868 9.06731 7.5 6.03194 -139187 -155354 -116079 -11717.4 -12121.4 24648.5 -7.41267 
2940 1 51.8776 7.82895 7.5 6.03194 -151002 -155230 19306.3 3712.67 31665 38849 -7.42002 
2941 1 51.1505 6.61158 7.5 6.03194 -141348 -156517 -100082 -11288.9 -17068.4 28140.6 -7.41352 
2942 1 51.8412 5.37322 7.5 6.03194 -150430 -156179 -728.545 5400 31204.9 38024.8 -7.41892 
2943 1 51.1141 4.15585 7.5 6.03194 -143669 -157250 -81329.1 -10480.5 -21514.7 31306.5 -7.41453 
2944 1 51.8048 2.91749 7.5 6.03194 -149417 -156895 -21982.1 7163.84 29818.8 36712.5 -7.41776 
2945 1 51.0778 1.70012 7.5 6.03193 -145918 -157541 -60513.8 -9327.84 -25235.3 34061.9 -7.41566 
2946 1 51.7685 0.461761 7.5 6.03193 -147950 -157321 -43683.1 8845.42 27520.2 34909.7 -7.41657 
3056 1 54.0225 9.02534 7.5 6.03194 -150864 -155108 16212.4 3341.66 31677.9 45630.1 -7.41985 
3057 1 53.2954 7.80796 7.5 6.03194 -140090 -157730 -111349 -13598.1 -11478.7 30992.2 -7.4129 
3058 1 53.9861 6.5696 7.5 6.03194 -150216 -156199 -2168.88 5176.23 31107.9 45045 -7.41884 
3059 1 53.259 5.35223 7.5 6.03194 -142126 -158445 -95386.8 -12818.2 -16508.1 34891.3 -7.41375 
3060 1 53.9498 4.11387 7.5 6.03194 -149265 -157143 -21879.8 7185.24 29586.7 43869.3 -7.41776 
3061 1 53.2227 2.8965 7.5 6.03194 -144240 -158723 -76960.8 -11615.8 -20975.2 38340.5 -7.41475 
3062 1 53.9134 1.65814 7.5 6.03193 -147970 -157855 -42221.2 9210.25 27166.8 42095.7 -7.41664 
3063 1 53.1863 0.440772 7.5 6.03193 -146244 -158609 -56802.1 -10046.8 -24708.4 41245.2 -7.41585 
3172 1 56.1674 10.2217 7.5 6.03194 -150992 -154455 10051.3 2767.4 32049.7 50965 -7.41952 
3173 1 55.4403 9.00435 7.5 6.03194 -139079 -158837 -120696 -15573.6 -5009.62 32420.7 -7.41238 
3174 1 56.131 7.76599 7.5 6.03194 -150113 -155612 -6623.17 4628.62 31338.8 50696.4 -7.4186 
3175 1 55.4039 6.54862 7.5 6.03194 -140734 -159463 -107965 -14887 -10554.6 36982.3 -7.41306 
3176 1 56.0947 5.31026 7.5 6.03194 -149062 -156716 -24678.7 6764.04 29618.6 49765.2 -7.41761 
3177 1 55.3676 4.09288 7.5 6.03194 -142595 -159667 -92438.2 -13712.9 -15732.6 41072.4 -7.4139 
3178 1 56.0583 2.85452 7.5 6.03194 -147805 -157684 -43474.4 9015.95 26988.2 48159.4 -7.41657 
3179 1 55.3312 1.63715 7.5 6.03193 -144496 -159466 -74729.1 -12113.1 -20319 44601 -7.41487 
3180 1 56.0219 0.398794 7.5 6.03193 -146341 -158461 -62296.2 11196.5 23504.9 45883 -7.41554 
3289 1 57.5852 10.2007 7.5 6.03194 -138364 -159739 -127584 -17099.2 2198.54 32399.5 -7.41199 
3290 1 58.2759 8.96237 7.5 6.03194 -150283 -154354 -13873.3 3880.95 31917.9 54648.2 -7.41821 
3291 1 57.5488 7.745 7.5 6.03194 -139564 -160205 -118447 -16560.1 -3766.73 37486.3 -7.41248 
3292 1 58.2396 6.50664 7.5 6.03194 -148976 -155533 -30226.2 6016.16 29984.8 54002.9 -7.41731 
3293 1 57.5125 5.28927 7.5 6.03194 -141073 -160262 -106256 -15484.9 -9584.82 42097.7 -7.41314 
3294 1 58.2032 4.05091 7.5 6.03194 -147597 -156675 -47375 8366.95 27102.3 52644.8 -7.41637 
3295 1 57.4761 2.83354 7.5 6.03194 -142762 -159935 -91500.8 -13926.9 -14980.7 46157.3 -7.41395 
3296 1 58.1668 1.59518 7.5 6.03193 -146135 -157711 -64661.2 10761.6 23370 50576.6 -7.41542 
3297 1 57.4398 0.377805 7.5 6.03193 -144505 -159299 -74814.4 -11967.1 -19772.5 49581 -7.41486 
3406 1 60.4208 10.1588 7.5 6.03194 -150861 -152447 -23560 3061.32 32779.9 56719.3 -7.41769 
3407 1 59.6937 8.94138 7.5 6.03194 -138670 -160611 -126303 -17724.4 3667.3 36450.6 -7.41205 
3408 1 60.3845 7.70302 7.5 6.03194 -149168 -153613 -38205.5 5078.26 30666.1 56330.6 -7.41689 
3409 1 59.6574 6.48565 7.5 6.03194 -139751 -160460 -117786 -16807.3 -2689 41398.2 -7.41251 
3410 1 60.3481 5.24729 7.5 6.03194 -147512 -154835 -53671.8 7395.55 27539.9 55227.9 -7.41604 
3411 1 59.621 4.02992 7.5 6.03194 -141126 -159947 -106395 -15368.2 -8811.28 45825 -7.41314 
3412 1 60.3118 2.79156 7.5 6.03194 -145905 -156057 -69342.1 9854.92 23549.5 53420.3 -7.41518 
3413 1 59.5847 1.57419 7.5 6.03193 -142693 -159129 -92655.9 -13491.1 -14468.6 49670.2 -7.41389 
3414 1 60.2754 0.335826 7.5 6.03193 -144361 -157233 -84568.7 12267.1 18786.6 50928 -7.41434 
3523 1 61.8386 10.1378 7.5 6.03194 -138090 -160663 -131138 -18295.2 11495.8 34074.5 -7.41179 
3524 1 62.5294 8.8994 7.5 6.03194 -149768 -151062 -48171.2 4084.21 31568.8 56681.7 -7.41636 
3525 1 61.8023 7.68203 7.5 6.03194 -138687 -160260 -126516 -17578.3 4724.86 39126.6 -7.41204 
3526 1 62.493 6.44367 7.5 6.03194 -147707 -152273 -61961.5 6250.53 28247.4 55777.7 -7.4156 
3527 1 61.7659 5.2263 7.5 6.03194 -139670 -159513 -118784 -16320.5 -2010.35 43699.5 -7.41247 
3528 1 62.4567 3.98794 7.5 6.03194 -145806 -153577 -75999.2 8639.18 24034.3 54210.1 -7.41484 
3529 1 61.7296 2.77057 7.5 6.03194 -140969 -158486 -108360 -14595.2 -8427.92 47767 -7.41304 
3530 1 62.4203 1.53221 7.5 6.03193 -144087 -154923 -89678.6 11090.9 19059.5 52011.8 -7.41408 
3531 1 61.6932 0.314837 7.5 6.03193 -142517 -157286 -95787.3 -12495.7 -14343.6 51287.4 -7.41374 
3641 1 63.9472 8.87841 7.5 6.03194 -137926 -159701 -132107 -17735 12379.7 35593.6 -7.41174 
3643 1 63.9108 6.42268 7.5 6.03194 -138459 -158698 -128195 -16700.6 5160.21 40066 -7.41197 
3645 1 63.8745 3.96695 7.5 6.03194 -139409 -157436 -121322 -15190.1 -1887.93 44112.9 -7.41235 
3647 1 63.8381 1.51122 7.5 6.03193 -140725 -156004 -111943 -13296 -8537.54 47737.6 -7.41287 
3640 1 64.6743 10.0958 7.5 6.03194 -150851 -148048 -59592.9 3140.9 32560 55167.9 -7.41574 
3642 1 64.6379 7.64005 7.5 6.03194 -148305 -149175 -71737.7 5067.98 29114.4 54369.4 -7.41509 
3644 1 64.6016 5.18432 7.5 6.03194 -145989 -150467 -84166.9 7271.62 24741.8 52968.4 -7.41441 
3646 1 64.5652 2.72859 7.5 6.03194 -143962 -151894 -96309.2 9615.25 19619.4 51020.8 -7.41375 
3648 1 64.5288 0.272859 7.5 6.03193 -142254 -153430 -107589 11935 13836.2 48575.6 -7.41313 
3757 1 66.0921 10.0748 7.5 6.03194 -137496 -158844 -134421 -17259.4 19991.7 31210.5 -7.41163 
3758 1 66.7828 8.83643 7.5 6.03194 -149375 -145766 -82441.3 3952.17 30018.5 51245.7 -7.41452 
3759 1 66.0557 7.61906 7.5 6.03194 -137541 -157597 -134362 -16469.2 12415.2 35354 -7.41164 
3760 1 66.7465 6.3807 7.5 6.03194 -146568 -146978 -93311.2 5890.06 25555.9 49922.2 -7.41394 
3761 1 66.0194 5.16333 7.5 6.03194 -138081 -156098 -131135 -15212.9 4869.11 39136.5 -7.41183 
3762 1 66.7101 3.92497 7.5 6.03194 -144121 -148392 -103964 8017.64 20359.4 48144.1 -7.41336 
3763 1 65.983 2.7076 7.5 6.03194 -139093 -154446 -125118 -13571.1 -2366.5 42613.8 -7.41218 
3764 1 66.6737 1.46924 7.5 6.03193 -142086 -149979 -113862 10209 14550.1 45987.6 -7.41282 
3765 1 65.9467 0.25187 7.5 6.03193 -140548 -152770 -116789 -11630.2 -9135.48 45808.7 -7.41264 
3874 1 68.9277 10.0328 7.5 6.03194 -150925 -142272 -93501.1 2961.94 30871.1 46739.7 -7.41393 
3875 1 68.2006 8.81544 7.5 6.03194 -136948 -156314 -137236 -15636.3 19494.4 30052.3 -7.4115 
3876 1 68.8914 7.57708 7.5 6.03194 -147603 -143367 -102881 4591.63 26378.3 45430.2 -7.41344 
3877 1 68.1643 6.35971 7.5 6.03194 -137038 -154610 -137624 -14649.1 11566.3 33373.6 -7.4115 
3878 1 68.855 5.12135 7.5 6.03194 -144667 -144703 -112117 6432.95 21166.6 43746 -7.41294 
3879 1 68.1279 3.90398 7.5 6.03194 -137682 -152757 -134998 -13292.6 3877.32 36475.7 -7.41166 
3880 1 68.8187 2.66562 7.5 6.03194 -142213 -146269 -120708 8385.28 15407.7 41794.4 -7.41248 
3881 1 68.0916 1.44825 7.5 6.03193 -138864 -150864 -129779 -11650.9 -3377.43 39439.3 -7.41196 
3882 1 68.7823 0.209892 7.5 6.03193 -140284 -148057 -128156 10326.2 9135.49 39653.3 -7.41206 
3991 1 70.3455 10.0118 7.5 6.03194 -136702 -154958 -136976 -14253.9 26204.7 24610.7 -7.41154 
3992 1 71.0363 8.77347 7.5 6.03194 -149099 -139865 -112339 3429.4 27169.5 39881.5 -7.41293 
3993 1 70.3092 7.5561 7.5 6.03194 -136316 -153104 -140843 -13529.6 17984 27357.5 -7.41135 
3994 1 70.9999 6.31774 7.5 6.03194 -145652 -141092 -120255 4952.28 21974.8 38261.5 -7.41252 
3995 1 70.2728 5.10036 7.5 6.03194 -136548 -151092 -141519 -12466 9938.08 29928.5 -7.41133 
3996 1 70.9636 3.862 7.5 6.03194 -142717 -142578 -127638 6606.84 16304.1 36456.8 -7.41213 
3997 1 70.2365 2.64463 7.5 6.03194 -137400 -149032 -139376 -11134.5 2323.61 32456 -7.41146 
3998 1 70.9272 1.40627 7.5 6.03193 -140364 -144312 -134030 8309.4 10226.3 34574.5 -7.41178 
3999 1 70.2001 0.188902 7.5 6.03193 -138862 -147059 -134871 -9598.78 -4774.74 35021.5 -7.41172 
4108 1 73.1812 9.96985 7.5 6.03194 -151009 -136652 -121172 2417.02 27965.2 33601.3 -7.41246 
4109 1 72.4541 8.75248 7.5 6.03194 -135938 -151697 -141041 -11922.1 23996.2 21514.8 -7.41135 
4110 1 73.1448 7.51412 7.5 6.03194 -147077 -137766 -127898 3620.5 22797.9 32081.6 -7.41212 
4111 1 72.4177 6.29675 7.5 6.03194 -135729 -149585 -144845 -11138.2 15647.9 23498.5 -7.41117 
4112 1 73.1085 5.05839 7.5 6.03194 -143642 -139147 -134199 4955.82 17208.8 30426.3 -7.41179 
4113 1 72.3814 3.84102 7.5 6.03194 -136203 -147409 -145641 -10115.4 7741.15 25476 -7.41115 
4114 1 73.0721 2.60265 7.5 6.03194 -140822 -140794 -139658 6360.49 11332.8 28761.5 -7.4115 
4115 1 72.345 1.38528 7.5 6.03193 -137354 -145276 -143858 -8916.23 406.111 27578.7 -7.41126 
4116 1 73.0357 0.146924 7.5 6.03193 -138669 -142710 -143857 7755.75 5110.16 27171.5 -7.41127 
4225 1 74.599 9.94886 7.5 6.03194 -135919 -150496 -138609 -9912.07 29576.8 16099 -7.4115 
4226 1 75.2897 8.7105 7.5 6.03194 -148897 -134876 -134587 2450.84 23729.4 25468.1 -7.41176 
4227 1 74.5626 7.49313 7.5 6.03194 -135252 -148349 -145315 -9381.42 20952.5 17536.7 -7.41116 
4228 1 75.2534 6.25477 7.5 6.03194 -144985 -136148 -139970 3472.21 18187 24033.2 -7.41149 
4229 1 74.5263 5.0374 7.5 6.03194 -135314 -146110 -148848 -8648.2 12763.2 18957.6 -7.41099 
4230 1 75.217 3.79904 7.5 6.03194 -141682 -137689 -144651 4565.63 12459.4 22614.6 -7.41125 
4231 1 74.4899 2.58167 7.5 6.03194 -136113 -143886 -149610 -7762.99 5221.33 20520.7 -7.41097 
4232 1 75.1807 1.34331 7.5 6.03193 -139069 -139489 -148255 5685.68 6542.1 21307.8 -7.41106 
4233 1 74.4536 0.125935 7.5 6.03193 -137640 -141799 -148067 -6760.27 -1690.6 22329.3 -7.41106 
4342 1 77.4346 9.90688 7.5 6.03194 -151031 -132516 -139868 1440.2 24904.8 18524.5 -7.41147 
4343 1 76.7075 8.68951 7.5 6.03194 -135135 -147474 -143368 -7277.67 25899.5 12179.6 -7.41128 
4344 1 77.3983 7.45115 7.5 6.03194 -146702 -133687 -144543 2167.98 19380.3 17426.3 -7.41125 
4345 1 76.6712 6.23378 7.5 6.03194 -134764 -145224 -149411 -6803.94 17403.9 13126.6 -7.41098 
4346 1 77.3619 4.99542 7.5 6.03194 -142937 -135119 -148641 2959.23 13716 16346.6 -7.41105 
4347 1 76.6348 3.77805 7.5 6.03194 -135172 -142955 -152500 -6208.75 9613.49 14180.6 -7.41083 
4348 1 77.3256 2.53969 7.5 6.03194 -139862 -136809 -151824 3783 8002.16 15370.1 -7.41089 
4349 1 76.5985 1.32232 7.5 6.03193 -136352 -140764 -153093 -5527.76 2579.82 15465.9 -7.41081 
4350 1 77.2892 0.0839566 7.5 6.03193 -137536 -138762 -153734 4594.89 2086.67 14547.1 -7.41079 
4459 1 78.8524 9.88589 7.5 6.03194 -135383 -147042 -139480 -4902.54 30590.9 7380.64 -7.4115 
4460 1 79.5432 8.64753 7.5 6.03194 -148722 -131828 -147489 1048.19 20951.6 10583.1 -7.41108 
4461 1 78.8161 7.43016 7.5 6.03194 -134572 -144821 -147802 -4652.62 21773.3 7977.49 -7.41108 
4462 1 79.5068 6.1918 7.5 6.03194 -144547 -133153 -151245 1556.25 15279.5 9962.09 -7.41091 
4463 1 78.7797 4.97443 7.5 6.03194 -134565 -142544 -152993 -4317 13656.6 8627.15 -7.41082 
4464 1 79.4705 3.73607 7.5 6.03194 -141030 -134731 -154226 2091.68 9635.62 9417.6 -7.41077 
4465 1 78.7434 2.5187 7.5 6.03194 -135367 -140306 -155492 -3919.75 6406.96 9443.84 -7.4107 
4466 1 79.4341 1.28034 7.5 6.03193 -138257 -136552 -156115 2637.01 3958.44 8980.17 -7.41067 
4467 1 78.707 0.0629675 7.5 6.03193 -136966 -138213 -155788 -3468.19 -89.3625 10501.1 -7.41069 