(written by TR)

9128	atoms
2	atom types
0	82.960466	xlo xhi
0	143.691742	ylo yhi
0	18.4	zlo zhi


Masses

1	12
2	12

Atoms

1 1 1 0 0.69073132 142.45338269 7.50000000 0 0 0
2 1 1 0 0.65437704 139.99765177 7.50000000 0 0 0
3 1 1 0 0.61802276 137.54192084 7.50000000 0 0 0
4 1 1 0 0.58166848 135.08618992 7.50000000 0 0 0
5 1 1 0 0.54531420 132.63045900 7.50000000 0 0 0
6 1 1 0 0.50895992 130.17472807 7.50000000 0 0 0
7 1 1 0 0.47260564 127.71899715 7.50000000 0 0 0
8 1 1 0 0.43625136 125.26326623 7.50000000 0 0 0
9 1 1 0 0.39989708 122.80753530 7.50000000 0 0 0
10 1 1 0 0.36354280 120.35180438 7.50000000 0 0 0
11 1 1 0 0.32718852 117.89607346 7.50000000 0 0 0
12 1 1 0 0.29083424 115.44034254 7.50000000 0 0 0
13 1 1 0 0.25447996 112.98461161 7.50000000 0 0 0
14 1 1 0 0.21812568 110.52888069 7.50000000 0 0 0
15 1 1 0 0.18177140 108.07314977 7.50000000 0 0 0
16 1 1 0 0.14541712 105.61741884 7.50000000 0 0 0
17 1 1 0 0.10906285 103.16168792 7.50000000 0 0 0
18 1 1 0 0.07270857 100.70595700 7.50000000 0 0 0
19 1 1 0 0.03635429 98.25022607 7.50000000 0 0 0
20 1 1 0 0.00000001 95.79449515 7.50000000 0 0 0
21 1 1 0 2.83563383 143.64976442 7.50000000 0 0 0
22 1 1 0 2.10854823 142.43239354 7.50000000 0 0 0
23 1 1 0 2.79927955 141.19403350 7.50000000 0 0 0
24 1 1 0 2.07219395 139.97666261 7.50000000 0 0 0
25 1 1 0 2.76292527 138.73830257 7.50000000 0 0 0
26 1 1 0 2.03583967 137.52093169 7.50000000 0 0 0
27 1 1 0 2.72657099 136.28257165 7.50000000 0 0 0
28 1 1 0 1.99948539 135.06520077 7.50000000 0 0 0
29 1 1 0 2.69021671 133.82684073 7.50000000 0 0 0
30 1 1 0 1.96313111 132.60946984 7.50000000 0 0 0
31 1 1 0 2.65386243 131.37110981 7.50000000 0 0 0
32 1 1 0 1.92677683 130.15373892 7.50000000 0 0 0
33 1 1 0 2.61750815 128.91537888 7.50000000 0 0 0
34 1 1 0 1.89042255 127.69800800 7.50000000 0 0 0
35 1 1 0 2.58115387 126.45964796 7.50000000 0 0 0
36 1 1 0 1.85406827 125.24227707 7.50000000 0 0 0
37 1 1 0 2.54479959 124.00391704 7.50000000 0 0 0
38 1 1 0 1.81771399 122.78654615 7.50000000 0 0 0
39 1 1 0 2.50844531 121.54818611 7.50000000 0 0 0
40 1 1 0 1.78135971 120.33081523 7.50000000 0 0 0
41 1 1 0 2.47209103 119.09245519 7.50000000 0 0 0
42 1 1 0 1.74500543 117.87508431 7.50000000 0 0 0
43 1 1 0 2.43573675 116.63672427 7.50000000 0 0 0
44 1 1 0 1.70865115 115.41935338 7.50000000 0 0 0
45 1 1 0 2.39938247 114.18099334 7.50000000 0 0 0
46 1 1 0 1.67229687 112.96362246 7.50000000 0 0 0
47 1 1 0 2.36302819 111.72526242 7.50000000 0 0 0
48 1 1 0 1.63594259 110.50789154 7.50000000 0 0 0
49 1 1 0 2.32667391 109.26953150 7.50000000 0 0 0
50 1 1 0 1.59958831 108.05216061 7.50000000 0 0 0
51 1 1 0 2.29031963 106.81380058 7.50000000 0 0 0
52 1 1 0 1.56323403 105.59642969 7.50000000 0 0 0
53 1 1 0 2.25396535 104.35806965 7.50000000 0 0 0
54 1 1 0 1.52687975 103.14069877 7.50000000 0 0 0
55 1 1 0 2.21761107 101.90233873 7.50000000 0 0 0
56 1 1 0 1.49052547 100.68496784 7.50000000 0 0 0
57 1 1 0 2.18125679 99.44660781 7.50000000 0 0 0
58 1 1 0 1.45417119 98.22923692 7.50000000 0 0 0
59 1 1 0 2.14490251 96.99087688 7.50000000 0 0 0
60 1 1 0 1.41781691 95.77350600 7.50000000 0 0 0
61 1 1 0 2.10854823 94.53514596 7.50000000 0 0 0
62 1 1 0 1.38146264 93.31777508 7.50000000 0 0 0
63 1 1 0 2.07219395 92.07941504 7.50000000 0 0 0
64 1 1 0 1.34510836 90.86204415 7.50000000 0 0 0
65 1 1 0 2.03583967 89.62368411 7.50000000 0 0 0
66 1 1 0 1.30875408 88.40631323 7.50000000 0 0 0
67 1 1 0 1.99948539 87.16795319 7.50000000 0 0 0
68 1 1 0 1.27239980 85.95058231 7.50000000 0 0 0
69 1 1 0 1.96313111 84.71222227 7.50000000 0 0 0
70 1 1 0 1.23604552 83.49485138 7.50000000 0 0 0
71 1 1 0 1.92677683 82.25649134 7.50000000 0 0 0
72 1 1 0 1.19969124 81.03912046 7.50000000 0 0 0
73 1 1 0 1.89042255 79.80076042 7.50000000 0 0 0
74 1 1 0 1.16333696 78.58338954 7.50000000 0 0 0
75 1 1 0 1.85406827 77.34502950 7.50000000 0 0 0
76 1 1 0 1.12698268 76.12765861 7.50000000 0 0 0
77 1 1 0 1.81771399 74.88929858 7.50000000 0 0 0
78 1 1 0 1.09062840 73.67192769 7.50000000 0 0 0
79 1 1 0 1.78135971 72.43356765 7.50000000 0 0 0
80 1 1 0 1.05427412 71.21619677 7.50000000 0 0 0
81 1 1 0 1.74500543 69.97783673 7.50000000 0 0 0
82 1 1 0 1.01791984 68.76046584 7.50000000 0 0 0
83 1 1 0 1.70865115 67.52210581 7.50000000 0 0 0
84 1 1 0 0.98156556 66.30473492 7.50000000 0 0 0
85 1 1 0 1.67229687 65.06637488 7.50000000 0 0 0
86 1 1 0 0.94521128 63.84900400 7.50000000 0 0 0
87 1 1 0 1.63594259 62.61064396 7.50000000 0 0 0
88 1 1 0 0.90885700 61.39327308 7.50000000 0 0 0
89 1 1 0 1.59958831 60.15491304 7.50000000 0 0 0
90 1 1 0 0.87250272 58.93754215 7.50000000 0 0 0
91 1 1 0 1.56323403 57.69918211 7.50000000 0 0 0
92 1 1 0 0.83614844 56.48181123 7.50000000 0 0 0
93 1 1 0 1.52687975 55.24345119 7.50000000 0 0 0
94 1 1 0 0.79979416 54.02608031 7.50000000 0 0 0
95 1 1 0 1.49052547 52.78772027 7.50000000 0 0 0
96 1 1 0 0.76343988 51.57034938 7.50000000 0 0 0
97 1 1 0 1.45417119 50.33198935 7.50000000 0 0 0
98 1 1 0 0.72708560 49.11461846 7.50000000 0 0 0
99 1 1 0 1.41781691 47.87625842 7.50000000 0 0 0
100 1 1 0 0.69073132 46.65888754 7.50000000 0 0 0
101 1 1 0 1.38146263 45.42052750 7.50000000 0 0 0
102 1 1 0 0.65437704 44.20315661 7.50000000 0 0 0
103 1 1 0 1.34510835 42.96479658 7.50000000 0 0 0
104 1 1 0 0.61802276 41.74742569 7.50000000 0 0 0
105 1 1 0 1.30875407 40.50906565 7.50000000 0 0 0
106 1 1 0 0.58166848 39.29169477 7.50000000 0 0 0
107 1 1 0 1.27239979 38.05333473 7.50000000 0 0 0
108 1 1 0 0.54531420 36.83596385 7.50000000 0 0 0
109 1 1 0 1.23604551 35.59760381 7.50000000 0 0 0
110 1 1 0 0.50895992 34.38023292 7.50000000 0 0 0
111 1 1 0 1.19969123 33.14187288 7.50000000 0 0 0
112 1 1 0 0.47260564 31.92450200 7.50000000 0 0 0
113 1 1 0 1.16333695 30.68614196 7.50000000 0 0 0
114 1 1 0 0.43625136 29.46877108 7.50000000 0 0 0
115 1 1 0 1.12698267 28.23041104 7.50000000 0 0 0
116 1 1 0 0.39989708 27.01304015 7.50000000 0 0 0
117 1 1 0 1.09062839 25.77468012 7.50000000 0 0 0
118 1 1 0 0.36354280 24.55730923 7.50000000 0 0 0
119 1 1 0 1.05427411 23.31894919 7.50000000 0 0 0
120 1 1 0 0.32718852 22.10157831 7.50000000 0 0 0
121 1 1 0 1.01791983 20.86321827 7.50000000 0 0 0
122 1 1 0 0.29083424 19.64584738 7.50000000 0 0 0
123 1 1 0 0.98156555 18.40748735 7.50000000 0 0 0
124 1 1 0 0.25447996 17.19011646 7.50000000 0 0 0
125 1 1 0 0.94521127 15.95175642 7.50000000 0 0 0
126 1 1 0 0.21812568 14.73438554 7.50000000 0 0 0
127 1 1 0 0.90885699 13.49602550 7.50000000 0 0 0
128 1 1 0 0.18177140 12.27865462 7.50000000 0 0 0
129 1 1 0 0.87250271 11.04029458 7.50000000 0 0 0
130 1 1 0 0.14541712 9.82292369 7.50000000 0 0 0
131 1 1 0 0.83614843 8.58456365 7.50000000 0 0 0
132 1 1 0 0.10906284 7.36719277 7.50000000 0 0 0
133 1 1 0 0.79979415 6.12883273 7.50000000 0 0 0
134 1 1 0 0.07270856 4.91146185 7.50000000 0 0 0
135 1 1 0 0.76343987 3.67310181 7.50000000 0 0 0
136 1 1 0 0.03635428 2.45573092 7.50000000 0 0 0
137 1 1 0 0.72708559 1.21737088 7.50000000 0 0 0
138 1 1 0 0.00000000 0.00000000 7.50000000 0 0 0
139 1 1 0 4.25345074 143.62877527 7.50000000 0 0 0
140 1 1 0 4.94418205 142.39041523 7.50000000 0 0 0
141 1 1 0 4.21709646 141.17304434 7.50000000 0 0 0
142 1 1 0 4.90782777 139.93468431 7.50000000 0 0 0
143 1 1 0 4.18074218 138.71731342 7.50000000 0 0 0
144 1 1 0 4.87147349 137.47895338 7.50000000 0 0 0
145 1 1 0 4.14438790 136.26158250 7.50000000 0 0 0
146 1 1 0 4.83511921 135.02322246 7.50000000 0 0 0
147 1 1 0 4.10803362 133.80585158 7.50000000 0 0 0
148 1 1 0 4.79876493 132.56749154 7.50000000 0 0 0
149 1 1 0 4.07167934 131.35012065 7.50000000 0 0 0
150 1 1 0 4.76241065 130.11176061 7.50000000 0 0 0
151 1 1 0 4.03532506 128.89438973 7.50000000 0 0 0
152 1 1 0 4.72605637 127.65602969 7.50000000 0 0 0
153 1 1 0 3.99897078 126.43865881 7.50000000 0 0 0
154 1 1 0 4.68970209 125.20029877 7.50000000 0 0 0
155 1 1 0 3.96261650 123.98292788 7.50000000 0 0 0
156 1 1 0 4.65334781 122.74456785 7.50000000 0 0 0
157 1 1 0 3.92626222 121.52719696 7.50000000 0 0 0
158 1 1 0 4.61699353 120.28883692 7.50000000 0 0 0
159 1 1 0 3.88990794 119.07146604 7.50000000 0 0 0
160 1 1 0 4.58063925 117.83310600 7.50000000 0 0 0
161 1 1 0 3.85355366 116.61573511 7.50000000 0 0 0
162 1 1 0 4.54428497 115.37737508 7.50000000 0 0 0
163 1 1 0 3.81719938 114.16000419 7.50000000 0 0 0
164 1 1 0 4.50793069 112.92164415 7.50000000 0 0 0
165 1 1 0 3.78084510 111.70427327 7.50000000 0 0 0
166 1 1 0 4.47157641 110.46591323 7.50000000 0 0 0
167 1 1 0 3.74449082 109.24854235 7.50000000 0 0 0
168 1 1 0 4.43522213 108.01018231 7.50000000 0 0 0
169 1 1 0 3.70813654 106.79281142 7.50000000 0 0 0
170 1 1 0 4.39886785 105.55445138 7.50000000 0 0 0
171 1 1 0 3.67178226 104.33708050 7.50000000 0 0 0
172 1 1 0 4.36251357 103.09872046 7.50000000 0 0 0
173 1 1 0 3.63542798 101.88134958 7.50000000 0 0 0
174 1 1 0 4.32615929 100.64298954 7.50000000 0 0 0
175 1 1 0 3.59907370 99.42561865 7.50000000 0 0 0
176 1 1 0 4.28980501 98.18725861 7.50000000 0 0 0
177 1 1 0 3.56271942 96.96988773 7.50000000 0 0 0
178 1 1 0 4.25345073 95.73152769 7.50000000 0 0 0
179 1 1 0 3.52636514 94.51415681 7.50000000 0 0 0
180 1 1 0 4.21709645 93.27579677 7.50000000 0 0 0
181 1 1 0 3.49001086 92.05842588 7.50000000 0 0 0
182 1 1 0 4.18074217 90.82006585 7.50000000 0 0 0
183 1 1 0 3.45365658 89.60269496 7.50000000 0 0 0
184 1 1 0 4.14438789 88.36433492 7.50000000 0 0 0
185 1 1 0 3.41730230 87.14696404 7.50000000 0 0 0
186 1 1 0 4.10803361 85.90860400 7.50000000 0 0 0
187 1 1 0 3.38094802 84.69123311 7.50000000 0 0 0
188 1 1 0 4.07167933 83.45287308 7.50000000 0 0 0
189 1 1 0 3.34459374 82.23550219 7.50000000 0 0 0
190 1 1 0 4.03532505 80.99714215 7.50000000 0 0 0
191 1 1 0 3.30823946 79.77977127 7.50000000 0 0 0
192 1 1 0 3.99897077 78.54141123 7.50000000 0 0 0
193 1 1 0 3.27188518 77.32404035 7.50000000 0 0 0
194 1 1 0 3.96261649 76.08568031 7.50000000 0 0 0
195 1 1 0 3.23553090 74.86830942 7.50000000 0 0 0
196 1 1 0 3.92626222 73.62994938 7.50000000 0 0 0
197 1 1 0 3.19917662 72.41257850 7.50000000 0 0 0
198 1 1 0 3.88990794 71.17421846 7.50000000 0 0 0
199 1 1 0 3.16282234 69.95684758 7.50000000 0 0 0
200 1 1 0 3.85355366 68.71848754 7.50000000 0 0 0
201 1 1 0 3.12646806 67.50111665 7.50000000 0 0 0
202 1 1 0 3.81719938 66.26275662 7.50000000 0 0 0
203 1 1 0 3.09011378 65.04538573 7.50000000 0 0 0
204 1 1 0 3.78084510 63.80702569 7.50000000 0 0 0
205 1 1 0 3.05375950 62.58965481 7.50000000 0 0 0
206 1 1 0 3.74449082 61.35129477 7.50000000 0 0 0
207 1 1 0 3.01740522 60.13392388 7.50000000 0 0 0
208 1 1 0 3.70813654 58.89556385 7.50000000 0 0 0
209 1 1 0 2.98105094 57.67819296 7.50000000 0 0 0
210 1 1 0 3.67178226 56.43983292 7.50000000 0 0 0
211 1 1 0 2.94469666 55.22246204 7.50000000 0 0 0
212 1 1 0 3.63542798 53.98410200 7.50000000 0 0 0
213 1 1 0 2.90834238 52.76673112 7.50000000 0 0 0
214 1 1 0 3.59907370 51.52837108 7.50000000 0 0 0
215 1 1 0 2.87198810 50.31100019 7.50000000 0 0 0
216 1 1 0 3.56271942 49.07264015 7.50000000 0 0 0
217 1 1 0 2.83563382 47.85526927 7.50000000 0 0 0
218 1 1 0 3.52636514 46.61690923 7.50000000 0 0 0
219 1 1 0 2.79927954 45.39953835 7.50000000 0 0 0
220 1 1 0 3.49001086 44.16117831 7.50000000 0 0 0
221 1 1 0 2.76292526 42.94380742 7.50000000 0 0 0
222 1 1 0 3.45365658 41.70544739 7.50000000 0 0 0
223 1 1 0 2.72657098 40.48807650 7.50000000 0 0 0
224 1 1 0 3.41730230 39.24971646 7.50000000 0 0 0
225 1 1 0 2.69021670 38.03234558 7.50000000 0 0 0
226 1 1 0 3.38094802 36.79398554 7.50000000 0 0 0
227 1 1 0 2.65386242 35.57661465 7.50000000 0 0 0
228 1 1 0 3.34459374 34.33825462 7.50000000 0 0 0
229 1 1 0 2.61750814 33.12088373 7.50000000 0 0 0
230 1 1 0 3.30823946 31.88252369 7.50000000 0 0 0
231 1 1 0 2.58115386 30.66515281 7.50000000 0 0 0
232 1 1 0 3.27188518 29.42679277 7.50000000 0 0 0
233 1 1 0 2.54479958 28.20942188 7.50000000 0 0 0
234 1 1 0 3.23553090 26.97106185 7.50000000 0 0 0
235 1 1 0 2.50844530 25.75369096 7.50000000 0 0 0
236 1 1 0 3.19917662 24.51533092 7.50000000 0 0 0
237 1 1 0 2.47209102 23.29796004 7.50000000 0 0 0
238 1 1 0 3.16282234 22.05960000 7.50000000 0 0 0
239 1 1 0 2.43573674 20.84222912 7.50000000 0 0 0
240 1 1 0 3.12646806 19.60386908 7.50000000 0 0 0
241 1 1 0 2.39938246 18.38649819 7.50000000 0 0 0
242 1 1 0 3.09011378 17.14813815 7.50000000 0 0 0
243 1 1 0 2.36302818 15.93076727 7.50000000 0 0 0
244 1 1 0 3.05375950 14.69240723 7.50000000 0 0 0
245 1 1 0 2.32667390 13.47503635 7.50000000 0 0 0
246 1 1 0 3.01740522 12.23667631 7.50000000 0 0 0
247 1 1 0 2.29031962 11.01930542 7.50000000 0 0 0
248 1 1 0 2.98105094 9.78094539 7.50000000 0 0 0
249 1 1 0 2.25396534 8.56357450 7.50000000 0 0 0
250 1 1 0 2.94469666 7.32521446 7.50000000 0 0 0
251 1 1 0 2.21761106 6.10784358 7.50000000 0 0 0
252 1 1 0 2.90834238 4.86948354 7.50000000 0 0 0
253 1 1 0 2.18125678 3.65211265 7.50000000 0 0 0
254 1 1 0 2.87198810 2.41375262 7.50000000 0 0 0
255 1 1 0 2.14490250 1.19638173 7.50000000 0 0 0
256 1 1 0 7.08908456 143.58679696 7.50000000 0 0 0
257 1 1 0 6.36199896 142.36942608 7.50000000 0 0 0
258 1 1 0 7.05273028 141.13106604 7.50000000 0 0 0
259 1 1 0 6.32564468 139.91369515 7.50000000 0 0 0
260 1 1 0 7.01637600 138.67533511 7.50000000 0 0 0
261 1 1 0 6.28929040 137.45796423 7.50000000 0 0 0
262 1 1 0 6.98002172 136.21960419 7.50000000 0 0 0
263 1 1 0 6.25293612 135.00223331 7.50000000 0 0 0
264 1 1 0 6.94366744 133.76387327 7.50000000 0 0 0
265 1 1 0 6.21658184 132.54650238 7.50000000 0 0 0
266 1 1 0 6.90731316 131.30814235 7.50000000 0 0 0
267 1 1 0 6.18022756 130.09077146 7.50000000 0 0 0
268 1 1 0 6.87095888 128.85241142 7.50000000 0 0 0
269 1 1 0 6.14387328 127.63504054 7.50000000 0 0 0
270 1 1 0 6.83460460 126.39668050 7.50000000 0 0 0
271 1 1 0 6.10751900 125.17930961 7.50000000 0 0 0
272 1 1 0 6.79825032 123.94094958 7.50000000 0 0 0
273 1 1 0 6.07116472 122.72357869 7.50000000 0 0 0
274 1 1 0 6.76189604 121.48521865 7.50000000 0 0 0
275 1 1 0 6.03481044 120.26784777 7.50000000 0 0 0
276 1 1 0 6.72554176 119.02948773 7.50000000 0 0 0
277 1 1 0 5.99845616 117.81211685 7.50000000 0 0 0
278 1 1 0 6.68918748 116.57375681 7.50000000 0 0 0
279 1 1 0 5.96210188 115.35638592 7.50000000 0 0 0
280 1 1 0 6.65283320 114.11802588 7.50000000 0 0 0
281 1 1 0 5.92574760 112.90065500 7.50000000 0 0 0
282 1 1 0 6.61647892 111.66229496 7.50000000 0 0 0
283 1 1 0 5.88939332 110.44492408 7.50000000 0 0 0
284 1 1 0 6.58012464 109.20656404 7.50000000 0 0 0
285 1 1 0 5.85303904 107.98919315 7.50000000 0 0 0
286 1 1 0 6.54377036 106.75083312 7.50000000 0 0 0
287 1 1 0 5.81668476 105.53346223 7.50000000 0 0 0
288 1 1 0 6.50741608 104.29510219 7.50000000 0 0 0
289 1 1 0 5.78033048 103.07773131 7.50000000 0 0 0
290 1 1 0 6.47106180 101.83937127 7.50000000 0 0 0
291 1 1 0 5.74397620 100.62200038 7.50000000 0 0 0
292 1 1 0 6.43470752 99.38364035 7.50000000 0 0 0
293 1 1 0 5.70762192 98.16626946 7.50000000 0 0 0
294 1 1 0 6.39835324 96.92790942 7.50000000 0 0 0
295 1 1 0 5.67126764 95.71053854 7.50000000 0 0 0
296 1 1 0 6.36199896 94.47217850 7.50000000 0 0 0
297 1 1 0 5.63491336 93.25480762 7.50000000 0 0 0
298 1 1 0 6.32564468 92.01644758 7.50000000 0 0 0
299 1 1 0 5.59855908 90.79907669 7.50000000 0 0 0
300 1 1 0 6.28929040 89.56071665 7.50000000 0 0 0
301 1 1 0 5.56220480 88.34334577 7.50000000 0 0 0
302 1 1 0 6.25293612 87.10498573 7.50000000 0 0 0
303 1 1 0 5.52585052 85.88761485 7.50000000 0 0 0
304 1 1 0 6.21658184 84.64925481 7.50000000 0 0 0
305 1 1 0 5.48949624 83.43188392 7.50000000 0 0 0
306 1 1 0 6.18022756 82.19352389 7.50000000 0 0 0
307 1 1 0 5.45314196 80.97615300 7.50000000 0 0 0
308 1 1 0 6.14387328 79.73779296 7.50000000 0 0 0
309 1 1 0 5.41678768 78.52042208 7.50000000 0 0 0
310 1 1 0 6.10751900 77.28206204 7.50000000 0 0 0
311 1 1 0 5.38043340 76.06469115 7.50000000 0 0 0
312 1 1 0 6.07116472 74.82633112 7.50000000 0 0 0
313 1 1 0 5.34407912 73.60896023 7.50000000 0 0 0
314 1 1 0 6.03481044 72.37060019 7.50000000 0 0 0
315 1 1 0 5.30772484 71.15322931 7.50000000 0 0 0
316 1 1 0 5.99845616 69.91486927 7.50000000 0 0 0
317 1 1 0 5.27137056 68.69749839 7.50000000 0 0 0
318 1 1 0 5.96210188 67.45913835 7.50000000 0 0 0
319 1 1 0 5.23501628 66.24176746 7.50000000 0 0 0
320 1 1 0 5.92574760 65.00340742 7.50000000 0 0 0
321 1 1 0 5.19866201 63.78603654 7.50000000 0 0 0
322 1 1 0 5.88939332 62.54767650 7.50000000 0 0 0
323 1 1 0 5.16230773 61.33030562 7.50000000 0 0 0
324 1 1 0 5.85303904 60.09194558 7.50000000 0 0 0
325 1 1 0 5.12595345 58.87457469 7.50000000 0 0 0
326 1 1 0 5.81668476 57.63621465 7.50000000 0 0 0
327 1 1 0 5.08959917 56.41884377 7.50000000 0 0 0
328 1 1 0 5.78033048 55.18048373 7.50000000 0 0 0
329 1 1 0 5.05324489 53.96311285 7.50000000 0 0 0
330 1 1 0 5.74397620 52.72475281 7.50000000 0 0 0
331 1 1 0 5.01689061 51.50738192 7.50000000 0 0 0
332 1 1 0 5.70762192 50.26902189 7.50000000 0 0 0
333 1 1 0 4.98053633 49.05165100 7.50000000 0 0 0
334 1 1 0 5.67126764 47.81329096 7.50000000 0 0 0
335 1 1 0 4.94418205 46.59592008 7.50000000 0 0 0
336 1 1 0 5.63491336 45.35756004 7.50000000 0 0 0
337 1 1 0 4.90782777 44.14018915 7.50000000 0 0 0
338 1 1 0 5.59855908 42.90182912 7.50000000 0 0 0
339 1 1 0 4.87147349 41.68445823 7.50000000 0 0 0
340 1 1 0 5.56220480 40.44609819 7.50000000 0 0 0
341 1 1 0 4.83511921 39.22872731 7.50000000 0 0 0
342 1 1 0 5.52585052 37.99036727 7.50000000 0 0 0
343 1 1 0 4.79876493 36.77299639 7.50000000 0 0 0
344 1 1 0 5.48949624 35.53463635 7.50000000 0 0 0
345 1 1 0 4.76241065 34.31726546 7.50000000 0 0 0
346 1 1 0 5.45314196 33.07890542 7.50000000 0 0 0
347 1 1 0 4.72605637 31.86153454 7.50000000 0 0 0
348 1 1 0 5.41678768 30.62317450 7.50000000 0 0 0
349 1 1 0 4.68970209 29.40580362 7.50000000 0 0 0
350 1 1 0 5.38043340 28.16744358 7.50000000 0 0 0
351 1 1 0 4.65334781 26.95007269 7.50000000 0 0 0
352 1 1 0 5.34407912 25.71171266 7.50000000 0 0 0
353 1 1 0 4.61699353 24.49434177 7.50000000 0 0 0
354 1 1 0 5.30772484 23.25598173 7.50000000 0 0 0
355 1 1 0 4.58063925 22.03861085 7.50000000 0 0 0
356 1 1 0 5.27137056 20.80025081 7.50000000 0 0 0
357 1 1 0 4.54428497 19.58287992 7.50000000 0 0 0
358 1 1 0 5.23501628 18.34451989 7.50000000 0 0 0
359 1 1 0 4.50793069 17.12714900 7.50000000 0 0 0
360 1 1 0 5.19866200 15.88878896 7.50000000 0 0 0
361 1 1 0 4.47157641 14.67141808 7.50000000 0 0 0
362 1 1 0 5.16230772 13.43305804 7.50000000 0 0 0
363 1 1 0 4.43522213 12.21568716 7.50000000 0 0 0
364 1 1 0 5.12595344 10.97732712 7.50000000 0 0 0
365 1 1 0 4.39886785 9.75995623 7.50000000 0 0 0
366 1 1 0 5.08959916 8.52159619 7.50000000 0 0 0
367 1 1 0 4.36251357 7.30422531 7.50000000 0 0 0
368 1 1 0 5.05324488 6.06586527 7.50000000 0 0 0
369 1 1 0 4.32615929 4.84849439 7.50000000 0 0 0
370 1 1 0 5.01689060 3.61013435 7.50000000 0 0 0
371 1 1 0 4.28980501 2.39276346 7.50000000 0 0 0
372 1 1 0 4.98053632 1.15440343 7.50000000 0 0 0
373 1 1 0 8.50690146 143.56580781 7.50000000 0 0 0
374 1 1 0 9.19763278 142.32744777 7.50000000 0 0 0
375 1 1 0 8.47054719 141.11007688 7.50000000 0 0 0
376 1 1 0 9.16127850 139.87171685 7.50000000 0 0 0
377 1 1 0 8.43419291 138.65434596 7.50000000 0 0 0
378 1 1 0 9.12492422 137.41598592 7.50000000 0 0 0
379 1 1 0 8.39783863 136.19861504 7.50000000 0 0 0
380 1 1 0 9.08856994 134.96025500 7.50000000 0 0 0
381 1 1 0 8.36148435 133.74288412 7.50000000 0 0 0
382 1 1 0 9.05221566 132.50452408 7.50000000 0 0 0
383 1 1 0 8.32513007 131.28715319 7.50000000 0 0 0
384 1 1 0 9.01586138 130.04879315 7.50000000 0 0 0
385 1 1 0 8.28877579 128.83142227 7.50000000 0 0 0
386 1 1 0 8.97950710 127.59306223 7.50000000 0 0 0
387 1 1 0 8.25242151 126.37569135 7.50000000 0 0 0
388 1 1 0 8.94315282 125.13733131 7.50000000 0 0 0
389 1 1 0 8.21606723 123.91996042 7.50000000 0 0 0
390 1 1 0 8.90679854 122.68160039 7.50000000 0 0 0
391 1 1 0 8.17971295 121.46422950 7.50000000 0 0 0
392 1 1 0 8.87044426 120.22586946 7.50000000 0 0 0
393 1 1 0 8.14335867 119.00849858 7.50000000 0 0 0
394 1 1 0 8.83408998 117.77013854 7.50000000 0 0 0
395 1 1 0 8.10700439 116.55276765 7.50000000 0 0 0
396 1 1 0 8.79773570 115.31440762 7.50000000 0 0 0
397 1 1 0 8.07065011 114.09703673 7.50000000 0 0 0
398 1 1 0 8.76138142 112.85867669 7.50000000 0 0 0
399 1 1 0 8.03429583 111.64130581 7.50000000 0 0 0
400 1 1 0 8.72502714 110.40294577 7.50000000 0 0 0
401 1 1 0 7.99794155 109.18557489 7.50000000 0 0 0
402 1 1 0 8.68867286 107.94721485 7.50000000 0 0 0
403 1 1 0 7.96158727 106.72984396 7.50000000 0 0 0
404 1 1 0 8.65231858 105.49148392 7.50000000 0 0 0
405 1 1 0 7.92523299 104.27411304 7.50000000 0 0 0
406 1 1 0 8.61596430 103.03575300 7.50000000 0 0 0
407 1 1 0 7.88887871 101.81838212 7.50000000 0 0 0
408 1 1 0 8.57961002 100.58002208 7.50000000 0 0 0
409 1 1 0 7.85252443 99.36265119 7.50000000 0 0 0
410 1 1 0 8.54325574 98.12429115 7.50000000 0 0 0
411 1 1 0 7.81617015 96.90692027 7.50000000 0 0 0
412 1 1 0 8.50690146 95.66856023 7.50000000 0 0 0
413 1 1 0 7.77981587 94.45118935 7.50000000 0 0 0
414 1 1 0 8.47054718 93.21282931 7.50000000 0 0 0
415 1 1 0 7.74346159 91.99545842 7.50000000 0 0 0
416 1 1 0 8.43419290 90.75709839 7.50000000 0 0 0
417 1 1 0 7.70710731 89.53972750 7.50000000 0 0 0
418 1 1 0 8.39783862 88.30136746 7.50000000 0 0 0
419 1 1 0 7.67075303 87.08399658 7.50000000 0 0 0
420 1 1 0 8.36148434 85.84563654 7.50000000 0 0 0
421 1 1 0 7.63439875 84.62826565 7.50000000 0 0 0
422 1 1 0 8.32513006 83.38990562 7.50000000 0 0 0
423 1 1 0 7.59804447 82.17253473 7.50000000 0 0 0
424 1 1 0 8.28877578 80.93417469 7.50000000 0 0 0
425 1 1 0 7.56169019 79.71680381 7.50000000 0 0 0
426 1 1 0 8.25242150 78.47844377 7.50000000 0 0 0
427 1 1 0 7.52533591 77.26107289 7.50000000 0 0 0
428 1 1 0 8.21606722 76.02271285 7.50000000 0 0 0
429 1 1 0 7.48898163 74.80534196 7.50000000 0 0 0
430 1 1 0 8.17971294 73.56698192 7.50000000 0 0 0
431 1 1 0 7.45262735 72.34961104 7.50000000 0 0 0
432 1 1 0 8.14335866 71.11125100 7.50000000 0 0 0
433 1 1 0 7.41627307 69.89388012 7.50000000 0 0 0
434 1 1 0 8.10700438 68.65552008 7.50000000 0 0 0
435 1 1 0 7.37991879 67.43814919 7.50000000 0 0 0
436 1 1 0 8.07065010 66.19978916 7.50000000 0 0 0
437 1 1 0 7.34356451 64.98241827 7.50000000 0 0 0
438 1 1 0 8.03429582 63.74405823 7.50000000 0 0 0
439 1 1 0 7.30721023 62.52668735 7.50000000 0 0 0
440 1 1 0 7.99794154 61.28832731 7.50000000 0 0 0
441 1 1 0 7.27085595 60.07095642 7.50000000 0 0 0
442 1 1 0 7.96158726 58.83259639 7.50000000 0 0 0
443 1 1 0 7.23450167 57.61522550 7.50000000 0 0 0
444 1 1 0 7.92523298 56.37686546 7.50000000 0 0 0
445 1 1 0 7.19814739 55.15949458 7.50000000 0 0 0
446 1 1 0 7.88887870 53.92113454 7.50000000 0 0 0
447 1 1 0 7.16179311 52.70376366 7.50000000 0 0 0
448 1 1 0 7.85252442 51.46540362 7.50000000 0 0 0
449 1 1 0 7.12543883 50.24803273 7.50000000 0 0 0
450 1 1 0 7.81617014 49.00967269 7.50000000 0 0 0
451 1 1 0 7.08908455 47.79230181 7.50000000 0 0 0
452 1 1 0 7.77981586 46.55394177 7.50000000 0 0 0
453 1 1 0 7.05273027 45.33657089 7.50000000 0 0 0
454 1 1 0 7.74346158 44.09821085 7.50000000 0 0 0
455 1 1 0 7.01637599 42.88083996 7.50000000 0 0 0
456 1 1 0 7.70710731 41.64247993 7.50000000 0 0 0
457 1 1 0 6.98002171 40.42510904 7.50000000 0 0 0
458 1 1 0 7.67075303 39.18674900 7.50000000 0 0 0
459 1 1 0 6.94366743 37.96937812 7.50000000 0 0 0
460 1 1 0 7.63439875 36.73101808 7.50000000 0 0 0
461 1 1 0 6.90731315 35.51364719 7.50000000 0 0 0
462 1 1 0 7.59804447 34.27528716 7.50000000 0 0 0
463 1 1 0 6.87095887 33.05791627 7.50000000 0 0 0
464 1 1 0 7.56169019 31.81955623 7.50000000 0 0 0
465 1 1 0 6.83460459 30.60218535 7.50000000 0 0 0
466 1 1 0 7.52533591 29.36382531 7.50000000 0 0 0
467 1 1 0 6.79825031 28.14645443 7.50000000 0 0 0
468 1 1 0 7.48898163 26.90809439 7.50000000 0 0 0
469 1 1 0 6.76189603 25.69072350 7.50000000 0 0 0
470 1 1 0 7.45262735 24.45236346 7.50000000 0 0 0
471 1 1 0 6.72554175 23.23499258 7.50000000 0 0 0
472 1 1 0 7.41627307 21.99663254 7.50000000 0 0 0
473 1 1 0 6.68918747 20.77926166 7.50000000 0 0 0
474 1 1 0 7.37991879 19.54090162 7.50000000 0 0 0
475 1 1 0 6.65283319 18.32353073 7.50000000 0 0 0
476 1 1 0 7.34356451 17.08517069 7.50000000 0 0 0
477 1 1 0 6.61647891 15.86779981 7.50000000 0 0 0
478 1 1 0 7.30721023 14.62943977 7.50000000 0 0 0
479 1 1 0 6.58012463 13.41206889 7.50000000 0 0 0
480 1 1 0 7.27085595 12.17370885 7.50000000 0 0 0
481 1 1 0 6.54377035 10.95633796 7.50000000 0 0 0
482 1 1 0 7.23450167 9.71797793 7.50000000 0 0 0
483 1 1 0 6.50741607 8.50060704 7.50000000 0 0 0
484 1 1 0 7.19814739 7.26224700 7.50000000 0 0 0
485 1 1 0 6.47106179 6.04487612 7.50000000 0 0 0
486 1 1 0 7.16179311 4.80651608 7.50000000 0 0 0
487 1 1 0 6.43470751 3.58914519 7.50000000 0 0 0
488 1 1 0 7.12543883 2.35078516 7.50000000 0 0 0
489 1 1 0 6.39835323 1.13341427 7.50000000 0 0 0
490 1 1 0 11.34253528 143.52382950 7.50000000 0 0 0
491 1 1 0 10.61544969 142.30645862 7.50000000 0 0 0
492 1 1 0 11.30618100 141.06809858 7.50000000 0 0 0
493 1 1 0 10.57909541 139.85072769 7.50000000 0 0 0
494 1 1 0 11.26982672 138.61236766 7.50000000 0 0 0
495 1 1 0 10.54274113 137.39499677 7.50000000 0 0 0
496 1 1 0 11.23347244 136.15663673 7.50000000 0 0 0
497 1 1 0 10.50638685 134.93926585 7.50000000 0 0 0
498 1 1 0 11.19711816 133.70090581 7.50000000 0 0 0
499 1 1 0 10.47003257 132.48353492 7.50000000 0 0 0
500 1 1 0 11.16076388 131.24517489 7.50000000 0 0 0
501 1 1 0 10.43367829 130.02780400 7.50000000 0 0 0
502 1 1 0 11.12440960 128.78944396 7.50000000 0 0 0
503 1 1 0 10.39732401 127.57207308 7.50000000 0 0 0
504 1 1 0 11.08805532 126.33371304 7.50000000 0 0 0
505 1 1 0 10.36096973 125.11634216 7.50000000 0 0 0
506 1 1 0 11.05170104 123.87798212 7.50000000 0 0 0
507 1 1 0 10.32461545 122.66061123 7.50000000 0 0 0
508 1 1 0 11.01534677 121.42225119 7.50000000 0 0 0
509 1 1 0 10.28826117 120.20488031 7.50000000 0 0 0
510 1 1 0 10.97899249 118.96652027 7.50000000 0 0 0
511 1 1 0 10.25190689 117.74914939 7.50000000 0 0 0
512 1 1 0 10.94263821 116.51078935 7.50000000 0 0 0
513 1 1 0 10.21555261 115.29341846 7.50000000 0 0 0
514 1 1 0 10.90628393 114.05505842 7.50000000 0 0 0
515 1 1 0 10.17919833 112.83768754 7.50000000 0 0 0
516 1 1 0 10.86992965 111.59932750 7.50000000 0 0 0
517 1 1 0 10.14284405 110.38195662 7.50000000 0 0 0
518 1 1 0 10.83357537 109.14359658 7.50000000 0 0 0
519 1 1 0 10.10648977 107.92622569 7.50000000 0 0 0
520 1 1 0 10.79722109 106.68786566 7.50000000 0 0 0
521 1 1 0 10.07013549 105.47049477 7.50000000 0 0 0
522 1 1 0 10.76086681 104.23213473 7.50000000 0 0 0
523 1 1 0 10.03378121 103.01476385 7.50000000 0 0 0
524 1 1 0 10.72451253 101.77640381 7.50000000 0 0 0
525 1 1 0 9.99742693 100.55903292 7.50000000 0 0 0
526 1 1 0 10.68815825 99.32067289 7.50000000 0 0 0
527 1 1 0 9.96107265 98.10330200 7.50000000 0 0 0
528 1 1 0 10.65180397 96.86494196 7.50000000 0 0 0
529 1 1 0 9.92471837 95.64757108 7.50000000 0 0 0
530 1 1 0 10.61544969 94.40921104 7.50000000 0 0 0
531 1 1 0 9.88836409 93.19184016 7.50000000 0 0 0
532 1 1 0 10.57909541 91.95348012 7.50000000 0 0 0
533 1 1 0 9.85200981 90.73610923 7.50000000 0 0 0
534 1 1 0 10.54274113 89.49774919 7.50000000 0 0 0
535 1 1 0 9.81565553 88.28037831 7.50000000 0 0 0
536 1 1 0 10.50638685 87.04201827 7.50000000 0 0 0
537 1 1 0 9.77930125 85.82464739 7.50000000 0 0 0
538 1 1 0 10.47003257 84.58628735 7.50000000 0 0 0
539 1 1 0 9.74294697 83.36891646 7.50000000 0 0 0
540 1 1 0 10.43367829 82.13055643 7.50000000 0 0 0
541 1 1 0 9.70659269 80.91318554 7.50000000 0 0 0
542 1 1 0 10.39732401 79.67482550 7.50000000 0 0 0
543 1 1 0 9.67023841 78.45745462 7.50000000 0 0 0
544 1 1 0 10.36096973 77.21909458 7.50000000 0 0 0
545 1 1 0 9.63388413 76.00172369 7.50000000 0 0 0
546 1 1 0 10.32461545 74.76336366 7.50000000 0 0 0
547 1 1 0 9.59752985 73.54599277 7.50000000 0 0 0
548 1 1 0 10.28826117 72.30763273 7.50000000 0 0 0
549 1 1 0 9.56117557 71.09026185 7.50000000 0 0 0
550 1 1 0 10.25190689 69.85190181 7.50000000 0 0 0
551 1 1 0 9.52482129 68.63453093 7.50000000 0 0 0
552 1 1 0 10.21555261 67.39617089 7.50000000 0 0 0
553 1 1 0 9.48846701 66.17880000 7.50000000 0 0 0
554 1 1 0 10.17919833 64.94043996 7.50000000 0 0 0
555 1 1 0 9.45211273 63.72306908 7.50000000 0 0 0
556 1 1 0 10.14284405 62.48470904 7.50000000 0 0 0
557 1 1 0 9.41575845 61.26733816 7.50000000 0 0 0
558 1 1 0 10.10648977 60.02897812 7.50000000 0 0 0
559 1 1 0 9.37940417 58.81160723 7.50000000 0 0 0
560 1 1 0 10.07013549 57.57324720 7.50000000 0 0 0
561 1 1 0 9.34304989 56.35587631 7.50000000 0 0 0
562 1 1 0 10.03378121 55.11751627 7.50000000 0 0 0
563 1 1 0 9.30669561 53.90014539 7.50000000 0 0 0
564 1 1 0 9.99742693 52.66178535 7.50000000 0 0 0
565 1 1 0 9.27034133 51.44441446 7.50000000 0 0 0
566 1 1 0 9.96107265 50.20605443 7.50000000 0 0 0
567 1 1 0 9.23398705 48.98868354 7.50000000 0 0 0
568 1 1 0 9.92471837 47.75032350 7.50000000 0 0 0
569 1 1 0 9.19763277 46.53295262 7.50000000 0 0 0
570 1 1 0 9.88836409 45.29459258 7.50000000 0 0 0
571 1 1 0 9.16127849 44.07722169 7.50000000 0 0 0
572 1 1 0 9.85200981 42.83886166 7.50000000 0 0 0
573 1 1 0 9.12492421 41.62149077 7.50000000 0 0 0
574 1 1 0 9.81565553 40.38313073 7.50000000 0 0 0
575 1 1 0 9.08856993 39.16575985 7.50000000 0 0 0
576 1 1 0 9.77930125 37.92739981 7.50000000 0 0 0
577 1 1 0 9.05221565 36.71002893 7.50000000 0 0 0
578 1 1 0 9.74294697 35.47166889 7.50000000 0 0 0
579 1 1 0 9.01586137 34.25429800 7.50000000 0 0 0
580 1 1 0 9.70659269 33.01593796 7.50000000 0 0 0
581 1 1 0 8.97950710 31.79856708 7.50000000 0 0 0
582 1 1 0 9.67023841 30.56020704 7.50000000 0 0 0
583 1 1 0 8.94315282 29.34283616 7.50000000 0 0 0
584 1 1 0 9.63388413 28.10447612 7.50000000 0 0 0
585 1 1 0 8.90679854 26.88710523 7.50000000 0 0 0
586 1 1 0 9.59752985 25.64874520 7.50000000 0 0 0
587 1 1 0 8.87044426 24.43137431 7.50000000 0 0 0
588 1 1 0 9.56117557 23.19301427 7.50000000 0 0 0
589 1 1 0 8.83408998 21.97564339 7.50000000 0 0 0
590 1 1 0 9.52482129 20.73728335 7.50000000 0 0 0
591 1 1 0 8.79773570 19.51991246 7.50000000 0 0 0
592 1 1 0 9.48846701 18.28155243 7.50000000 0 0 0
593 1 1 0 8.76138142 17.06418154 7.50000000 0 0 0
594 1 1 0 9.45211273 15.82582150 7.50000000 0 0 0
595 1 1 0 8.72502714 14.60845062 7.50000000 0 0 0