ITEM: TIMESTEP
287
ITEM: NUMBER OF ATOMS
19496
ITEM: BOX BOUNDS pp pp pp
0.0000000000000000e+00 1.2124284700000000e+02
0.0000000000000000e+00 2.0999877200000000e+02
0.0000000000000000e+00 1.8399999999999999e+01
ITEM: ATOMS id type x y z c_csym c_2[1] c_2[2] c_2[3] c_2[4] c_2[5] c_2[6] c_3 
194 1 0.878934 8.57929 2.91028 6.01358 -170469 -142384 -2867.62 -24838.8 15685.7 -3358.18 -7.41525 
195 1 0.147026 7.3652 2.90648 6.02132 -149722 -163959 2115.82 -18112.7 20182.1 -1307.64 -7.41544 
196 1 0.831929 6.12377 2.90321 6.01847 -166870 -146496 -1023.18 -13448.8 12654.9 -3036.6 -7.4151 
197 1 0.0991189 4.91015 2.90027 6.02407 -151616 -161934 663.533 -8351.51 13446.5 -882.768 -7.4151 
198 1 0.783329 3.66839 2.89807 6.02264 -162857 -150731 -201.163 -5376.95 8379.58 -2625.75 -7.41496 
199 1 0.0498964 2.4551 2.89628 6.027 -154126 -159700 73.5503 -2080.13 6589.64 -431.601 -7.41491 
200 1 0.733711 1.21314 2.89536 6.02741 -158837 -154913 -18.7321 -1081.46 2965.27 -2114.89 -7.41487 
201 1 -3.62846e-06 6.40356e-06 2.8949 6.02967 -156864 -156878 -27.31 43.3533 0.145412 0.784128 -7.41486 
366 1 2.29641 8.55071 2.91106 6.01582 -161072 -152402 2585.7 -20090 22838.1 -4259.68 -7.41565 
367 1 2.98134 7.30922 2.90801 6.01621 -179078 -134113 -880.764 -18176.8 14062.1 -9836.72 -7.41529 
368 1 2.24939 6.09509 2.90405 6.01915 -159634 -154011 796.666 -8686.51 16258.2 -4716.18 -7.41526 
369 1 2.93363 4.85329 2.90197 6.01991 -171884 -141581 112.405 -8400.63 10505.2 -9173.21 -7.41513 
370 1 2.20079 3.63965 2.89896 6.02232 -158315 -155363 18.8076 -507.398 9404.47 -5057.51 -7.41501 
371 1 2.88462 2.39768 2.89808 6.02439 -164405 -149317 259.736 -2226.92 5751.18 -8304.95 -7.41499 
372 1 2.15117 1.18437 2.89627 6.02522 -157247 -156412 -82.8403 3615.49 2623.47 -5308.44 -7.4149 
537 1 5.12962 8.49582 2.91463 6.01317 -193503 -119355 355.488 -20615.7 15280.2 -16499.8 -7.41562 
538 1 4.39876 7.28102 2.90992 6.01195 -170397 -142823 20.2195 -7023.14 18321.7 -7548.96 -7.41544 
539 1 5.08306 6.03919 2.90804 6.01741 -183707 -129689 1319.84 -9226.41 12520.1 -15677.4 -7.41544 
540 1 4.35106 4.82502 2.90404 6.01675 -165720 -147564 -701.566 2968.31 11595.1 -8708.11 -7.41516 
541 1 5.03495 3.58304 2.90324 6.02152 -173114 -140415 1230.94 -1199.91 8549.81 -14567 -7.41525 
542 1 4.30206 2.36936 2.90026 6.02049 -161150 -152299 -558.765 9261.81 4790.17 -9699.54 -7.41502 
543 1 4.98587 1.1274 2.9007 6.02231 -162100 -151548 491.84 2818.21 3463.05 -13149.3 -7.41511 
708 1 6.54698 8.46843 2.91738 6.00415 -183400 -129305 -1989.56 -3731.78 19628.3 -9372.53 -7.41559 
709 1 7.23137 7.22658 2.91574 6.01215 -197353 -115880 3699.45 -7919.36 14338.7 -21835.3 -7.41589 
710 1 6.50044 6.01173 2.91104 6.01006 -175846 -136985 -2468.57 8267.01 13105 -11292.8 -7.41531 
711 1 7.18442 4.76976 2.91034 6.01789 -184278 -129114 3221.13 1942.07 11231.7 -20571.1 -7.41566 
712 1 6.45236 3.55553 2.90645 6.01533 -168170 -144870 -1880.58 16631.7 6392.51 -13006.5 -7.41517 
713 1 7.13623 2.31359 2.90687 6.01934 -170480 -143066 1845.42 7965.38 6948.04 -18936.6 -7.41544 
714 1 6.40331 1.09987 2.90404 6.01807 -160355 -152989 -606.023 20670.3 -160.953 -14502.6 -7.41516 
879 1 9.3784 8.41585 2.92452 6.00503 -212172 -100567 7398.11 -4967.43 15915.3 -27406.9 -7.41647 
880 1 8.6487 7.2002 2.91938 6.00296 -187748 -124087 -5535.12 14884.9 13967 -12863.9 -7.41543 
881 1 9.33283 5.95826 2.91881 6.01186 -197244 -116081 6442.65 6787.74 13719.5 -26064.7 -7.4162 
882 1 8.60179 4.74336 2.91427 6.01019 -177455 -134907 -4373.83 25306.3 7418.56 -15215.9 -7.4153 
883 1 9.28579 3.50146 2.91467 6.01671 -181194 -132238 4332.78 14874.3 10320.8 -24304.6 -7.41591 
884 1 8.55365 2.28719 2.91102 6.01482 -166848 -145801 -2286.9 31585.3 911.132 -17326.5 -7.41531 
885 1 9.23783 1.04548 2.91251 6.01166 -164275 -148826 1516.19 18672.7 5797.69 -22126 -7.41564 
9774 2 0.5385 8.60675 6.48966 6.01788 -144523 -168671 3223.66 24901.1 23433.3 558.034 -7.41566 
9775 2 0.585511 6.15189 6.49677 6.02163 -147595 -166002 1232.8 13587.1 16891.1 -118.693 -7.41525 
9776 2 0.634122 3.69698 6.50192 6.02448 -151113 -162707 260.751 5430.24 10069.4 -826.454 -7.41499 
9777 2 0.683745 1.24197 6.50464 6.02746 -154814 -158908 -18.4052 1183.18 3315.76 -1508.18 -7.41487 
9778 2 -5.58529e-06 -1.34409e-05 6.5051 6.02972 -156873 -156967 -26.9928 20.2832 -0.715311 2.29585 -7.41486 
9942 2 1.95607 8.6354 6.48896 6.00998 -153765 -158845 -2467.33 21053.2 16330.5 -5703.09 -7.41531 
9943 2 2.68854 7.42164 6.49196 6.01732 -135115 -178108 1321.8 18816.8 19837.7 -3002.54 -7.41544 
9944 2 2.00304 6.18062 6.49596 6.01673 -154717 -158625 -701.162 9472.56 13337.7 -5685.87 -7.41516 
9945 2 2.73624 4.96723 6.49803 6.01991 -141847 -171690 112.459 9017.37 13196.9 -4510.73 -7.41513 
9946 2 2.05162 3.72575 6.50104 6.02228 -155565 -158114 18.4787 1090.44 9082.75 -5613.43 -7.41501 
9947 2 2.78524 2.51257 6.50192 6.02265 -149041 -164500 -202.315 2673.63 6464.04 -5943.13 -7.41496 
9948 2 2.10122 1.27076 6.50372 6.02697 -156291 -157249 72.927 -3375.36 3668.25 -5488.3 -7.41491 
9949 2 2.83493 0.0576071 6.50327 6.02509 -156667 -156929 -2.50892 307.558 15.4153 -7224.06 -7.41492 
10113 2 4.79278 8.69028 6.48536 6.01313 -119824 -192886 356.523 21928.2 21929.9 -4982.04 -7.41562 
10114 2 4.10615 7.44995 6.49007 6.01187 -143543 -169640 20.068 8541.84 15698.6 -12091.8 -7.41544 
10115 2 4.83928 6.23653 6.49199 6.01614 -129446 -183643 -880.98 10492 15550.7 -7258.68 -7.41529 
10116 2 4.15379 4.99558 6.49595 6.01909 -147805 -165727 795.466 -1851.56 12214.9 -11720.9 -7.41526 
10117 2 4.88737 3.78236 6.49678 6.01846 -139809 -173438 -1024.72 2100.05 8958.64 -9440.46 -7.4151 
10118 2 4.20275 2.54092 6.49973 6.02408 -152125 -161441 661.488 -8627 7488.61 -11200.1 -7.41511 
10119 2 4.93644 1.32773 6.49931 6.01988 -150812 -162606 -421.177 -2478.43 2493.97 -11428.8 -7.41505 
10120 2 4.2524 0.0859433 6.50104 6.02236 -156607 -156997 51.1124 -11131 1707.63 -10528.5 -7.41501 
10284 2 6.21049 8.71787 6.48264 6.00739 -129589 -183355 1908.51 6057.07 17723.4 -18249.3 -7.41586 
10285 2 6.94352 7.50439 6.48437 6.01303 -114531 -197687 -3053.95 10088.4 17133.1 -9045.62 -7.41543 
10286 2 6.25692 6.26412 6.48894 6.01573 -136967 -176317 2584.85 -6232.48 15108.1 -17649 -7.41565 
10287 2 6.99041 5.05084 6.48972 6.01353 -127750 -184890 -2868.83 -179.709 10750.8 -11904.3 -7.41524 
10288 2 6.30493 3.80994 6.49352 6.02126 -144538 -168855 2114.62 -15183.3 11222.6 -16823 -7.41544 
10289 2 7.03857 2.59669 6.49315 6.0143 -141724 -171340 -1698.43 -6964.24 4369.82 -14561.7 -7.4152 
10290 2 6.35394 1.35528 6.49594 6.01957 -152372 -161023 891.994 -20186.2 6154.88 -15774.8 -7.41526 
10291 2 7.0874 0.141887 6.49434 6.01581 -156096 -157284 37.1745 -9708.68 -1651.74 -16924.5 -7.41527 
10455 2 9.04913 8.77043 6.47579 6.00937 -98160.9 -213380 -6597.47 8096.9 18015.2 -9959.85 -7.41552 
10456 2 8.36125 7.53096 6.48062 6.01277 -123798 -189468 5608.35 -11766.6 17623.4 -23180 -7.41618 
10457 2 9.09461 6.31758 6.48133 6.00854 -113404 -198326 -5993.13 -3993.6 11883.3 -13374 -7.41535 
10458 2 8.40805 5.07735 6.48565 6.01623 -134350 -178994 4703.15 -22861.5 14681.5 -22116.4 -7.41592 
10459 2 9.1416 3.86401 6.48536 6.00756 -129938 -182369 -4157.72 -12914.6 5644.12 -16603.2 -7.41533 
10460 2 8.45612 2.62315 6.48892 6.01604 -145099 -168114 2768.81 -30277.6 10482.7 -20782 -7.41565 
10461 2 9.18955 1.40967 6.4875 6.00852 -147017 -165714 -1491 -18002.6 -369.061 -19544.6 -7.41543 
10462 2 8.50487 0.168315 6.49007 6.01572 -155978 -156995 266.837 -33304.7 5184.4 -19185.3 -7.41544 
1050 1 10.7957 8.39076 2.92847 5.99595 -200851 -109689 -9998.69 22165.1 14254.4 -13563.7 -7.41548 
1051 1 11.48 7.14889 2.92803 6.0053 -211163 -101778 10973.8 12917.8 15948.2 -30863.1 -7.41686 
1052 1 10.7501 5.93319 2.92312 6.00378 -188489 -122677 -8218.82 34794.8 7914.58 -16430.5 -7.41538 
1053 1 11.4343 4.69136 2.92349 6.01199 -193464 -119705 8108.97 23027.4 13482.1 -29055 -7.41651 
1054 1 10.7032 3.47641 2.91929 6.01055 -175673 -136276 -5254.66 43352 1512.98 -19056.9 -7.41542 
1055 1 11.3875 2.23477 2.92062 6.00793 -174775 -138403 4249.53 29051.4 9814.07 -26805 -7.41615 
1056 1 10.6553 1.02043 2.91734 6.01242 -162399 -149973 -1557.58 47257 -4598.09 -21425.7 -7.41559 
1221 1 13.6258 8.34186 2.93749 5.99861 -225352 -87140.5 16762 19986.2 17871 -34826.6 -7.41762 
1222 1 12.8973 7.1253 2.9324 5.99749 -200490 -109265 -13434.9 44688.2 7975.46 -16812.2 -7.4154 
1223 1 13.5817 5.88358 2.93273 6.00592 -206826 -106402 13191 32117.8 16358.4 -33043.8 -7.41722 
1224 1 12.8516 4.66785 2.92822 6.00635 -185955 -124932 -9616.21 55460.2 1724.09 -19831.8 -7.41548 
1225 1 13.5362 3.42631 2.92939 6.0047 -186614 -126397 8336.64 40442.4 13599.5 -30801.4 -7.41677 
1226 1 12.8049 2.2113 2.92566 6.00957 -170875 -140766 -4778.47 61847.1 -4354.36 -22601.6 -7.41569 
1227 1 13.4898 0.970087 2.92772 5.99884 -165647 -146978 2700.15 44151 9663.06 -28126.8 -7.41632 
1392 1 15.0431 8.31987 2.94163 5.9916 -212806 -95343.3 -19890.4 54500.1 7696.85 -16528.3 -7.41533 
1393 1 15.7278 7.07829 2.94188 5.99983 -220204 -92830.9 19460.3 41714.4 18871.3 -36165.2 -7.41801 
1394 1 14.999 5.86172 2.93726 6.00078 -197226 -112378 -15319.6 67490.7 1635.59 -19816.8 -7.41546 
1395 1 15.6838 4.62032 2.93822 6.00027 -199429 -113599 13732.4 52223.8 17045.6 -34002.5 -7.41748 
1396 1 14.9535 3.40455 2.93428 6.0074 -180664 -129878 -9430.8 76296.3 -4368.62 -22870 -7.41572 
1397 1 15.6386 2.16345 2.93606 5.99507 -177507 -135261 6915.29 58315.4 13954.1 -31406.3 -7.41694 
1398 1 14.9072 0.948382 2.93293 6.00273 -163709 -147621 -2752.84 80049.8 -9963.12 -25683.7 -7.4161 
1563 1 17.8726 8.2756 2.9505 5.99398 -233051 -79307.4 26689.4 51313.3 20960.1 -38349 -7.41884 
1564 1 17.145 7.05814 2.94592 5.99555 -208519 -99241.7 -22168.3 79035.2 1351.7 -19178.3 -7.41536 
1565 1 17.8302 5.81691 2.94664 5.99574 -212395 -100751 20265.4 63924.6 20067.3 -36332.4 -7.41827 
1566 1 17.1011 4.60033 2.94268 6.00473 -191391 -118085 -15395.1 90064.3 -4535.14 -22402.1 -7.41567 
1567 1 17.7864 3.35938 2.94415 5.99201 -189987 -122746 12454.3 72514.1 17855.9 -33878.7 -7.41764 
1568 1 17.056 2.14357 2.94092 5.99955 -173482 -136912 -7520.81 96457.3 -10144.6 -25398.8 -7.4161 
1569 1 17.7419 0.903016 2.94317 5.98566 -166613 -145321 3804.06 76107.9 14408.5 -31032.9 -7.417 
10626 2 10.467 8.79577 6.47161 6.00854 -109218 -204028 9953.29 -17850.4 19661.4 -28152.5 -7.41683 
10627 2 11.2001 7.58225 6.47224 6.00246 -97915.4 -212819 -10501.2 -8847.72 12436 -13984.4 -7.41541 
10628 2 10.5123 6.3428 6.47674 6.01014 -121966 -191154 8575.65 -31114.7 17716.6 -26909.9 -7.41652 
10629 2 11.2458 5.12933 6.47653 6.0008 -116225 -194993 -7977.62 -19871.9 6374.16 -17653 -7.41542 
10630 2 10.5592 3.88914 6.48053 6.00954 -135304 -177715 5894.04 -40866.4 14490.5 -25360 -7.41618 
10631 2 11.2926 2.67556 6.47934 6.00099 -135620 -176379 -4345.31 -27354.3 414.476 -21061.1 -7.41556 
10632 2 10.6071 1.43474 6.48259 6.01105 -148846 -163872 2342.76 -46477.9 10044.7 -23529.1 -7.41586 
10633 2 11.34 0.220867 6.48034 6.00337 -155350 -157383 -86.7003 -30618.5 -5095.13 -24127.6 -7.41581 
10797 2 13.3071 8.84464 6.46299 5.99649 -81630.7 -227563 -16333.7 -14553.5 12506.7 -13904.3 -7.41538 
10798 2 12.618 7.60603 6.46737 6.00371 -108490 -204545 13747.6 -39476.8 20231.6 -31074.1 -7.41724 
10799 2 13.3512 6.3924 6.46722 5.99403 -101309 -208286 -13174.7 -27463.1 6658.14 -17870.9 -7.41543 
10800 2 12.6635 5.15296 6.47136 6.00253 -123761 -188770 10349.5 -51477.7 18035.3 -29371.4 -7.41683 
10801 2 13.3967 3.93923 6.47041 5.99354 -122398 -188173 -8622.59 -37289.2 791.17 -21613.5 -7.41562 
10802 2 12.7102 2.69907 6.47405 6.00344 -139609 -172914 5778.2 -59625.5 14548 -27377.4 -7.41641 
10803 2 13.4431 1.48508 6.47219 5.99513 -144272 -167750 -3147.86 -43034.8 -4764.51 -25050.4 -7.41593 
10804 2 12.7575 0.244326 6.47511 6.00658 -155418 -156935 545.779 -63253.7 9897.95 -25117.5 -7.41602 
10968 2 14.7251 8.86686 6.45803 5.99725 -94273.6 -218304 20094 -47650.1 22150.9 -34497.4 -7.41803 
10969 2 15.458 7.65302 6.4579 5.98786 -86091.4 -221802 -19616.3 -35428.6 6590.78 -17428.7 -7.41537 
10970 2 14.769 6.41439 6.46191 5.99539 -111080 -201119 16075.7 -61830.9 20999.2 -32703.8 -7.41758 
10971 2 15.502 5.20048 6.46118 5.9864 -108273 -200783 -14261.9 -47470 858.492 -21371.9 -7.4156 
10972 2 14.8144 3.96105 6.46495 5.9956 -128634 -183390 10590.5 -72478.9 18531.6 -30610.9 -7.41707 
10973 2 15.5472 2.74692 6.4635 5.98706 -131482 -179053 -7683.31 -55762.4 -4702.88 -25051.8 -7.41595 
10974 2 14.8606 1.50681 6.46678 5.99803 -146497 -165525 4123.28 -78742.2 14788.9 -28264.7 -7.41657 
10975 2 15.5929 0.292295 6.4645 5.9899 -154734 -157131 -424.692 -59502.5 -9752.9 -28410.5 -7.41641 
11139 2 17.5663 8.91112 6.44894 5.98234 -71021.1 -234454 -27044.9 -43197 6259.36 -16485.5 -7.41522 
11140 2 16.8759 7.67332 6.45258 5.9885 -98101.1 -213411 22890.5 -71319.5 23307 -35273.1 -7.4184 
11141 2 17.6087 6.45919 6.45202 5.98006 -93948.6 -213049 -21066.4 -57321 714.527 -20506.4 -7.41549 
11142 2 16.9198 5.22054 6.4557 5.98788 -116885 -194519 16652.3 -84384.5 21880.7 -33139.2 -7.41783 
11143 2 17.6525 4.00622 6.45463 5.97976 -118063 -190824 -13565.8 -68128.2 -4795.76 -24307 -7.41589 
11144 2 16.9648 2.76682 6.45807 5.98947 -136094 -175404 9123.54 -93394.6 19114 -30764.4 -7.41722 
11145 2 17.697 1.55217 6.45635 5.98158 -142604 -168271 -5075.97 -74656.3 -9951.82 -27830.2 -7.41641 
11146 2 17.0104 0.312139 6.45929 5.99338 -155062 -156333 860.767 -97571.8 15118.3 -28181 -7.41663 
1734 1 19.2898 8.25716 2.95384 5.99092 -219534 -86555 -29862.6 89493.4 949.884 -18068.2 -7.41518 
1735 1 19.9753 7.01614 2.95426 5.99178 -224604 -88266.2 27662.8 75212.5 22582.1 -37754.5 -7.41909 
1736 1 19.2474 5.79872 2.9504 6.00064 -202199 -105809 -22424.1 102870 -4770.04 -21363.1 -7.41553 
1737 1 19.9331 4.55795 2.95154 5.98776 -202527 -110274 19094.5 86107.4 21258.7 -35497.3 -7.41839 
1738 1 19.2037 3.34136 2.94839 5.99706 -183810 -125535 -13579.7 111753 -10348.2 -24442.3 -7.41601 
1739 1 19.8899 2.10095 2.9503 5.98236 -179130 -133149 9381.66 92236.8 18614.9 -32853.9 -7.41767 
1740 1 19.1593 0.885089 2.94788 5.98961 -164805 -145561 -3911.51 115343 -15429.9 -27319 -7.4166 
1905 1 22.1192 8.21796 2.96085 5.98785 -235677 -76653.6 35594.7 85425.6 24547.7 -38287 -7.41992 
1906 1 21.3925 6.99969 2.95714 5.996 -212322 -93867.3 -30188.7 114134 -4999.64 -19909 -7.41532 
1907 1 22.0787 5.75915 2.95792 5.98362 -214456 -98376.5 26529.4 98582 24093.5 -36263.8 -7.41918 
1908 1 21.3504 4.54175 2.95494 5.99527 -194154 -113961 -20641.3 125444 -10492.8 -22986.2 -7.41583 
1909 1 22.0368 3.30153 2.95651 5.97994 -191450 -120839 16036.9 107322 22272.8 -33861 -7.41838 
1910 1 21.3072 2.08491 2.95427 5.98666 -175069 -134118 -9963.27 131670 -15640 -25866.9 -7.41646 
1911 1 21.9942 0.84511 2.95659 5.97353 -167328 -143690 4690 110790 19192.8 -31123.6 -7.41757 
2076 1 23.5364 8.20317 2.96275 5.99171 -221472 -82836.9 -38327.1 123565 -5187.87 -18179.1 -7.41506 
2077 1 24.223 6.96289 2.96311 5.98028 -225079 -87454.5 34418.9 109579 26310.8 -36230.5 -7.41997 
2078 1 23.4958 5.74469 2.96034 5.99229 -203957 -102715 -28359 137194 -10541.3 -21189.8 -7.41559 
2079 1 24.1827 4.50468 2.96155 5.97632 -203183 -109227 23441.1 120741 25305.8 -34091.7 -7.41912 
2080 1 23.4541 3.2873 2.95956 5.98457 -185219 -122997 -16976.7 146059 -15695.8 -24006 -7.41625 
2081 1 24.1414 2.04767 2.96159 5.97109 -179933 -131754 11326.2 126889 22972.3 -31628 -7.41823 
2082 1 23.4116 0.831007 2.96031 5.97686 -165763 -143581 -4782.36 149498 -20301.6 -26654.6 -7.41701 
2247 1 26.3662 8.16903 2.9671 5.97769 -234228 -77752.4 42434.6 118744 27909 -35491.1 -7.42074 
2248 1 25.6402 6.95005 2.9645 5.98941 -212570 -92279 -36373.2 146715 -10467.6 -19193.8 -7.4153 
2249 1 26.3275 5.71029 2.96532 5.97294 -213740 -98565.1 31249.6 132235 27690.5 -33621.7 -7.41986 
2250 1 25.5999 4.49215 2.9636 5.98323 -194757 -112196 -24593.1 158084 -15570.1 -21899.1 -7.41597 
2251 1 26.2876 3.25271 2.96533 5.96941 -191512 -120234 18681 141052 26111.8 -31443.2 -7.41892 
2252 1 25.5587 2.03533 2.96438 5.97454 -175998 -132386 -11719.5 164228 -20283.2 -24433.8 -7.41675 
2253 1 26.2469 0.79631 2.96692 5.96323 -168144 -142278 5286.51 144500 23305.3 -28990.7 -7.41798 
2418 1 27.7833 8.15767 2.96749 5.98723 -219808 -83175.2 -44362 153952 -10276.5 -17110.8 -7.41498 
2420 1 27.7446 5.69932 2.96637 5.98171 -203167 -102288 -32468.2 167690 -15273.7 -19679.4 -7.41565 
2422 1 27.7048 3.24202 2.96715 5.97309 -185342 -121894 -19236.5 176534 -20031.4 -22073 -7.41643 
2424 1 27.6643 0.785768 2.96956 5.96545 -166703 -141794 -5242.45 179855 -24213.8 -24329.3 -7.41733 
11310 2 18.9843 8.92973 6.44369 5.98214 -85169.7 -225257 30518.7 -79865.9 24914.4 -37023.8 -7.41925 
11311 2 19.7168 7.71534 6.4432 5.97443 -79869.6 -224460 -28738.7 -66663.9 428.702 -19172.5 -7.4153 
11312 2 19.0266 6.47747 6.4466 5.98065 -104845 -205525 23731.3 -95109.8 24511.3 -34901.9 -7.41864 
11313 2 19.759 5.26294 6.44584 5.97318 -104303 -202083 -20545.8 -79803.4 -4966.1 -22983.2 -7.41574 
11314 2 19.0701 4.02428 6.44927 5.9813 -125064 -185624 15365.9 -106621 22750.8 -32550.4 -7.41796 
11315 2 19.8023 2.80946 6.44809 5.97398 -129583 -179312 -11063.7 -88922.3 -10160.6 -26561.8 -7.4163 
11316 2 19.1146 1.57011 6.45125 5.98425 -145310 -165676 5948.6 -113587 19663.1 -30016.4 -7.41726 
11317 2 19.8461 0.35485 6.4495 5.97702 -154802 -156237 -879.215 -93137 -14822.8 -29865.8 -7.41695 
11481 2 21.8262 8.96896 6.43491 5.96989 -66691 -234720 -36929.7 -75038.4 55.5934 -17515.7 -7.41506 
11482 2 21.1347 7.73188 6.43788 5.97413 -93085.3 -216187 31512.5 -104290 26392.2 -35883 -7.41948 
11483 2 21.8668 6.51708 6.43732 5.96767 -91151.3 -212728 -28300.3 -90309.3 -5153.87 -21239.5 -7.41551 
11484 2 21.1768 5.27918 6.44059 5.9738 -113781 -195867 22565 -118210 25631.2 -33595.5 -7.41875 
11485 2 21.9087 4.06415 6.43988 5.96742 -116724 -190097 -18098.9 -101957 -10304.9 -24777.1 -7.4161 
11486 2 21.2199 2.82552 6.44313 5.97571 -134730 -175414 12274.5 -127897 23493.4 -31151.3 -7.41797 
11487 2 21.9514 1.61011 6.44207 5.96929 -142433 -167049 -6895.53 -109029 -15095.6 -28085.3 -7.41679 
11488 2 21.2636 0.370842 6.44499 5.98006 -155415 -154847 1221.52 -132490 20083.5 -28576.4 -7.41719 
11652 2 23.2442 8.98385 6.42967 5.96856 -81994.5 -225689 39659.4 -111677 27541.8 -36114.9 -7.42032 
11653 2 23.976 7.76875 6.42919 5.96332 -78947.7 -221981 -36476.4 -99339.4 -5331.71 -19227.4 -7.41523 
11654 2 23.2847 6.53158 6.43217 5.96722 -102949 -205419 30390 -127778 27732.1 -33923.1 -7.41956 
11655 2 24.0164 5.31631 6.4318 5.96204 -104221 -199985 -25842.5 -113347 -10360.6 -22640.5 -7.41583 
11656 2 23.3264 4.07839 6.43504 5.96805 -124372 -184926 19519.3 -140031 26547.7 -31597.2 -7.41872 
11657 2 24.0577 2.8628 6.43459 5.9628 -130026 -177337 -13928.1 -123084 -15188.3 -25870 -7.41655 
11658 2 23.3689 1.62421 6.43773 5.97124 -145575 -164273 7591.91 -147431 24012.5 -29173.8 -7.41785 
11659 2 24.0996 0.408158 6.43697 5.96583 -155662 -154511 -1333.61 -127659 -19502.2 -28878.4 -7.41736 
11823 2 26.0863 9.0181 6.42157 5.96006 -68002.6 -229716 -44732.7 -106752 -5489.83 -17085.8 -7.41492 
11824 2 25.3939 7.78163 6.42412 5.96171 -92957.4 -213927 38502.1 -135271 29087.2 -33600.6 -7.42036 
11825 2 26.1252 6.56608 6.42396 5.95776 -92702.6 -208540 -33942.7 -122879 -10323.6 -20304.8 -7.41552 
11826 2 25.4341 5.32885 6.42705 5.96144 -114246 -193716 27336.2 -149824 28824.1 -31412.8 -7.41948 
11827 2 26.1652 4.11305 6.42709 5.95742 -118237 -186686 -21622.1 -135105 -15094.2 -23386.6 -7.41624 
11828 2 25.4753 2.87513 6.43037 5.96347 -135601 -173208 14854.6 -159953 27182.3 -29155.8 -7.41855 
11829 2 26.206 1.65893 6.43035 5.95929 -143617 -164504 -8346.69 -142516 -19525.3 -26294.3 -7.41707 
11830 2 25.517 0.420419 6.43343 5.96788 -156500 -152877 1634.25 -164837 24259.9 -26837.8 -7.41763 
11994 2 27.5044 9.02949 6.41656 5.95737 -84046.9 -221077 46589.3 -140649 29773.5 -32723.6 -7.42114 
11996 2 27.543 6.57705 6.41928 5.95599 -104997 -201466 35387.4 -157357 30360.9 -30687.4 -7.42025 
11998 2 27.5829 4.12373 6.42295 5.95681 -126229 -181580 22650.7 -169927 29593 -28605.1 -7.41928 
12000 2 27.6235 1.66947 6.42691 5.95998 -146955 -161681 8915.33 -177571 27489.4 -26492.9 -7.41829 
2417 1 28.5083 9.37738 2.97001 5.97585 -241242 -69702.5 50289.6 125896 28911.5 -34174.6 -7.42148 
2419 1 28.4712 6.9182 2.96791 5.97043 -222416 -89328 39142.4 141621 29427.9 -32559.6 -7.42059 
2421 1 28.4327 4.46012 2.9678 5.96656 -201948 -109764 26406.9 152916 28588.6 -30661.5 -7.41962 
2423 1 28.3933 2.00317 2.9695 5.96157 -179991 -130928 12599.1 159100 26469.1 -28505 -7.41862 
2588 1 29.9254 9.36736 2.96952 5.9857 -225010 -75222.4 -52067 158942 -9979.18 -15029.1 -7.41466 
2589 1 30.6138 8.1282 2.96953 5.96868 -229324 -81507.5 46859.7 148718 30561.7 -31027.4 -7.42128 
2590 1 29.8883 6.90863 2.96804 5.97954 -209847 -93592.6 -40301.3 174763 -14823.9 -17446.3 -7.4153 
2591 1 30.5768 5.66969 2.96915 5.96408 -210789 -100725 34200.8 162303 30430.8 -29390.2 -7.4203 
2592 1 29.8499 4.45091 2.9687 5.97239 -193637 -112375 -26996.8 186043 -19565.3 -19690.5 -7.41608 
2593 1 30.5387 3.21226 2.97085 5.95988 -190447 -120502 20263.5 171204 28999.6 -27518.6 -7.41926 
2594 1 29.8106 1.99418 2.97125 5.96396 -176218 -131298 -12684.2 192172 -23891.4 -21787.3 -7.41697 
2595 1 30.4999 0.755909 2.97423 5.95464 -168856 -140845 5565.74 174592 26418.6 -25434.3 -7.41823 
2759 1 32.7555 9.34008 2.97049 5.96775 -234294 -75416.6 54204.6 153631 31148.9 -29152.5 -7.42193 
2760 1 32.0309 8.11989 2.9689 5.97802 -214958 -86280.3 -47865.4 179410 -14257.2 -15266.6 -7.41496 
2761 1 32.72 6.88122 2.96969 5.96248 -217709 -93046.8 41822.9 169358 31678.7 -27743.1 -7.42095 
2762 1 31.994 5.6618 2.96925 5.97228 -200347 -103930 -34727.9 193031 -18929.6 -17361.5 -7.41571 
2763 1 32.6832 4.42337 2.97118 5.95873 -199417 -111481 27994.6 180639 30919.7 -26132.4 -7.41991 
2764 1 31.9559 3.20466 2.97177 5.96324 -184452 -121874 -20376.6 201746 -23332.8 -19306.4 -7.41658 
2765 1 32.6455 1.96655 2.97465 5.95298 -179554 -130409 13195.7 186810 28968.6 -24331.6 -7.41884 
2766 1 31.9172 0.748474 2.976 5.95602 -167537 -140063 -5336.06 205010 -27150.5 -21133.5 -7.41755 
2930 1 34.1726 9.33286 2.96931 5.9772 -218205 -80468.1 -55001.7 181757 -13604.7 -13187.2 -7.41463 
2931 1 34.8622 8.0945 2.96979 5.96161 -222672 -87096.5 49102.6 173983 32396.6 -25827.4 -7.42157 
2932 1 34.1371 6.87449 2.96918 5.97109 -205333 -96880.4 -42220.8 197385 -18161.4 -15131.9 -7.41534 
2933 1 34.8268 5.63631 2.97087 5.95718 -206476 -103943 35570.9 187454 32282.7 -24443.4 -7.42053 
2934 1 34.1004 4.417 2.97143 5.9632 -191301 -113779 -28059.1 208524 -22579 -16935.9 -7.41618 
2935 1 34.7903 3.17907 2.97418 5.95209 -188682 -121415 20896.1 196294 30961.7 -22900.2 -7.41945 
2936 1 34.0628 1.96041 2.9757 5.95532 -175933 -130643 -12998.7 214531 -26564.2 -18615.8 -7.41712 
2937 1 34.7531 0.722802 2.97921 5.94733 -169424 -139244 5546.04 199691 28589.5 -21211 -7.41838 
3101 1 37.0037 9.3093 2.96985 5.9614 -225386 -82744.5 55936.7 176442 32655.1 -23741.3 -7.42215 
3102 1 36.2794 8.08876 2.96889 5.97034 -208435 -91336.8 -49340.4 199443 -17303 -13028.7 -7.41499 
3103 1 36.9695 6.85085 2.97034 5.95638 -211523 -97854.9 42843.8 191981 33144.9 -22544.9 -7.42112 
3104 1 36.2439 5.63099 2.97065 5.96362 -196206 -106701 -35548.6 212824 -21681.5 -14699.3 -7.41578 
3105 1 36.9342 4.39327 2.97322 5.95144 -195896 -113763 28467.9 203068 32441.7 -21224.1 -7.42004 
3106 1 36.2075 3.17406 2.97466 5.95528 -182859 -122605 -20682.1 221388 -25766.3 -16250.3 -7.41669 
3107 1 36.898 1.9366 2.97811 5.94641 -178891 -130207 13238.6 209242 30646.8 -19786.2 -7.41896 
3108 1 36.1704 0.717945 2.9804 5.94865 -168240 -138425 -5203.73 224627 -29267.4 -17698.2 -7.41769 
11995 2 28.2352 7.81362 6.41648 5.95481 -82573 -215650 -42081.4 -130431 -10211.5 -17911.5 -7.41517 
11997 2 28.2739 5.36099 6.41966 5.95336 -107223 -194815 -29640.8 -144990 -14848.8 -20787.8 -7.41589 
11999 2 28.3134 2.90735 6.42354 5.95397 -132262 -173642 -15997.6 -155019 -19297.6 -23534.9 -7.41672 
12001 2 28.3533 0.452649 6.4274 5.95673 -156740 -152265 -1724.8 -159804 -23274.9 -26119 -7.41764 
12165 2 30.3464 9.05914 6.40951 5.95305 -73902.7 -220785 -49991.9 -135911 -10044.4 -15577.9 -7.41483 
12166 2 29.6531 7.82318 6.41187 5.95182 -96937 -207658 43383.1 -162460 31240.1 -29528.7 -7.42099 
12167 2 30.3836 6.60684 6.41245 5.95062 -97638.6 -201369 -37683.2 -152598 -14487.9 -18204.4 -7.41552 
12168 2 29.6916 5.37018 6.41557 5.95145 -117585 -188802 30649.2 -177326 31296.7 -27625 -7.42 
12169 2 30.4218 4.1536 6.41663 5.95008 -121966 -181586 -23955.9 -165081 -18868 -20744.7 -7.41633 
12170 2 29.7309 2.91632 6.42014 5.95333 -138061 -169723 16698 -187727 30011.9 -25712.8 -7.41897 
12171 2 30.4608 1.69936 6.42134 5.95158 -145742 -161212 -9353.95 -172614 -22940.9 -23165.4 -7.41725 
12172 2 29.7708 0.461553 6.4248 5.95753 -157740 -150533 2067.83 -192708 27472.7 -23781 -7.41794 
12336 2 31.7643 9.06747 6.40502 5.94895 -90219.4 -212391 51094.6 -165284 31561.4 -28039.5 -7.42169 
12337 2 32.4943 7.8508 6.40567 5.9491 -89518.5 -206273 -45509.2 -157824 -14054.8 -15742.7 -7.41515 
12338 2 31.8013 6.61471 6.40844 5.94745 -110127 -194565 38582.3 -182204 32362.1 -26316.4 -7.4207 
12339 2 32.5313 5.39788 6.4098 5.94746 -112563 -187874 -31943 -172537 -18306.3 -18039.6 -7.41593 
12340 2 31.8394 4.16117 6.41326 5.94802 -130027 -176588 24669.4 -194939 31861.1 -24600.4 -7.41965 
12341 2 32.5691 2.94405 6.41502 5.94739 -135717 -168951 -17285.6 -182700 -22383.6 -20255.9 -7.41682 
12342 2 31.8782 1.70679 6.41874 5.95087 -149244 -158443 9853.62 -202677 30074.6 -22883.8 -7.41858 
12343 2 32.6073 0.489255 6.42049 5.94902 -158341 -149731 -2065.31 -187463 -26032.5 -22362.7 -7.4178 
12507 2 34.606 9.09312 6.39958 5.9485 -82910 -209304 -52940.9 -160999 -13572.3 -13475.1 -7.4148 
12508 2 33.9121 7.85754 6.40181 5.94471 -103922 -198806 46243.9 -184753 32883.1 -24770.1 -7.42137 
12509 2 34.6417 6.64042 6.40335 5.94595 -104582 -192464 -39735.1 -177651 -17658.2 -15506.8 -7.41554 
12510 2 33.9489 5.40424 6.40653 5.94407 -122834 -181924 32573.6 -199625 33107.7 -23244.8 -7.42031 
12511 2 34.6783 4.18691 6.40867 5.94439 -126734 -175009 -25255.8 -190168 -21674.5 -17489.8 -7.41639 
12512 2 33.9866 2.95017 6.41242 5.94556 -141522 -164981 17814.2 -209944 32058.4 -21731.1 -7.41922 
12513 2 34.7156 1.73251 6.41478 5.94475 -148704 -157357 -9995.84 -197700 -25403.9 -19399.4 -7.41735 
12514 2 34.0247 0.495313 6.41865 5.94936 -159440 -147911 2457.19 -215092 29814.1 -20201.5 -7.41815 
12678 2 36.0239 9.09888 6.39597 5.94318 -99125.9 -201434 53493.1 -185137 32949.1 -23060.9 -7.422 
12679 2 36.7529 7.88145 6.39758 5.94471 -98331.5 -195506 -47178.7 -180571 -16958.9 -13202.9 -7.41517 
12680 2 36.0594 6.64574 6.40026 5.94138 -116981 -186000 40228.1 -201998 33821.3 -21718.2 -7.42095 
12681 2 36.7884 5.42817 6.40264 5.94257 -119263 -179687 -33062.8 -195202 -20874.1 -14935.8 -7.41598 
12682 2 36.0959 4.19191 6.40617 5.94163 -134815 -170270 25717.7 -214632 33469.7 -20396.6 -7.41986 
12683 2 36.8247 2.97409 6.40895 5.94175 -140006 -163444 -17979.7 -205240 -24615.4 -16623.1 -7.41689 
12684 2 36.133 1.73737 6.41292 5.94403 -152188 -154498 10417.9 -222338 31908.7 -19067.7 -7.41876 
12685 2 36.8614 0.519191 6.41568 5.94296 -160091 -146810 -2391.61 -209957 -27957.9 -18245.9 -7.41789 
3272 1 38.4208 9.3044 2.96877 5.97016 -209486 -87343.3 -56012.2 199405 -16387.2 -11067.9 -7.41466 
3273 1 39.1116 8.06677 2.96999 5.95621 -214622 -93565.7 49727.4 194194 33571.2 -20518 -7.42169 
3274 1 38.3867 6.84643 2.96986 5.96425 -199395 -101423 -42722 214748 -20680.6 -12605.7 -7.41541 
3275 1 39.0774 5.60894 2.97222 5.9513 -201383 -107773 35780.3 207511 33460.4 -19381.4 -7.42062 
3276 1 38.3514 4.38922 2.97334 5.95572 -187953 -115729 -28215.4 225666 -24802.3 -14040.3 -7.41627 
3277 1 39.0423 3.15192 2.97664 5.94602 -186357 -122523 20831.1 216130 32245.6 -18159.8 -7.41953 
3278 1 38.3153 1.93277 2.97881 5.94856 -175417 -130366 -12911.9 231592 -28482.9 -15372.8 -7.41723 
3279 1 39.0065 0.695738 2.9827 5.94196 -169802 -137764 5294.24 219611 30072.4 -16861.9 -7.41845 
3443 1 41.2529 9.28387 2.97017 5.95662 -215598 -90984.4 56188.5 194408 33622 -18431.8 -7.42223 
3444 1 40.5287 8.06311 2.96945 5.96413 -200647 -97565.4 -49513.4 214525 -19610.6 -10660.9 -7.41505 
3445 1 41.2199 6.82586 2.97159 5.95158 -204508 -103401 42763.5 209629 34071.8 -17441.2 -7.42118 
3446 1 40.4946 5.6057 2.97218 5.95657 -191402 -110528 -35486.6 227645 -23715.6 -11980.9 -7.41586 
3447 1 41.1858 4.36859 2.97527 5.94583 -191965 -116629 28210.4 220591 33426.1 -16398.7 -7.42009 
3448 1 40.4595 3.14898 2.97706 5.949 -180738 -123797 -20510.2 236043 -27508.9 -13212.1 -7.41678 
3449 1 41.1509 1.91207 2.98081 5.94156 -177624 -130128 12915.5 226791 31782.6 -15309.6 -7.419 
3450 1 40.4238 0.692946 2.98353 5.9431 -168622 -137017 -4985.47 239369 -30731.4 -14353.9 -7.41778 
3614 1 42.6701 9.28082 2.96972 5.96457 -199952 -95475 -55900.3 212394 -18496.1 -8868.18 -7.41472 
3615 1 43.3618 8.04384 2.97165 5.95217 -205716 -100817 49390.8 209754 34322.4 -15461.4 -7.42172 
3616 1 42.6371 6.82329 2.97156 5.9577 -192564 -106817 -42437.1 227466 -22540.3 -10069.1 -7.41548 
3617 1 43.3287 5.58639 2.97441 5.94601 -195330 -112161 35322 222860 34226.8 -14562.5 -7.42064 
3618 1 42.603 4.36638 2.97559 5.9498 -184116 -118496 -27895.3 238216 -26387.2 -11201.8 -7.41635 
3619 1 43.2947 3.12962 2.97912 5.9415 -183476 -124188 20370.8 231295 33117.2 -13644.9 -7.41955 
3620 1 42.5681 1.91008 2.9814 5.94347 -174300 -130415 -12645.8 244009 -29794.7 -12256.4 -7.41731 
3621 1 43.2601 0.673518 2.98527 5.93825 -169916 -136378 4913.58 234847 31121.7 -12713 -7.41847 
3785 1 45.5031 9.26267 2.97259 5.95292 -204865 -99722.9 55661.7 207915 34255.8 -13480.6 -7.42223 
3786 1 44.779 8.0418 2.97176 5.95897 -191976 -104762 -49043.5 225314 -21300.1 -8305.7 -7.41513 
3787 1 45.471 6.80513 2.97434 5.94646 -196889 -109556 42140.1 222951 34684.9 -12697.2 -7.42118 
3788 1 44.7459 5.58477 2.97478 5.95089 -185569 -114972 -35015.6 238210 -25150.3 -9334.57 -7.41594 
3789 1 45.4379 4.34817 2.97802 5.94153 -187269 -119824 27612.1 233789 34102.7 -11918.1 -7.42009 