ITEM: TIMESTEP
0
ITEM: NUMBER OF ATOMS
19496
ITEM: BOX BOUNDS pp pp pp
0.0000000000000000e+00 1.2124284700000000e+02
0.0000000000000000e+00 2.0999877200000000e+02
0.0000000000000000e+00 1.8399999999999999e+01
ITEM: ATOMS id type x y z c_csym c_2[1] c_2[2] c_2[3] c_2[4] c_2[5] c_2[6] c_3 
194 1 0.796 8.588 3 6.02438 -154925 -172591 -104882 -10919.5 17601.7 -2178.09 -7.41347 
195 1 0.075 7.368 3 6.02216 -146073 -185489 -105241 -9051.05 18093.2 -241.777 -7.41388 
196 1 0.771 6.133 3 6.02109 -142667 -141664 -107137 4456.89 13195.4 -1972.88 -7.41324 
197 1 0.05 4.912 3 6.02501 -141183 -148381 -107761 8567.26 12026.7 -129.748 -7.41353 
198 1 0.746 3.677 3 6.02088 -139441 -141667 -108751 6002.75 8199.05 -1841.08 -7.41349 
199 1 0.025 2.456 3 6.02501 -142803 -146391 -109280 8515.4 5928.74 -53.7082 -7.41345 
200 1 0.721 1.221 3 6.02088 -136718 -146016 -109623 5618.98 2737.38 -1677.38 -7.41322 
201 1 0 0 3 6.0265 -139585 -137799 -109750 -1608.06 -9.83766 19.558 -7.41307 
366 1 2.214 8.574 3 6.02597 -136865 -150722 -103383 12248.8 20821.5 -4161.94 -7.41325 
367 1 2.91 7.339 3 6.02444 -144593 -141719 -105362 7364.16 15500.6 -7589.58 -7.41322 
368 1 2.189 6.118 3 6.02246 -127722 -134605 -106398 -3975.12 14780.6 -4482.94 -7.41301 
369 1 2.886 4.883 3 6.02426 -173364 -109527 -107296 6633.11 10894.7 -7329.66 -7.41347 
370 1 2.164 3.662 3 6.0234 -119006 -119146 -108324 7975.59 8657.77 -4702.16 -7.4127 
371 1 2.861 2.427 3 6.02425 -123181 -115603 -108535 6633.01 5740.73 -7152.49 -7.41267 
372 1 2.139 1.206 3 6.02194 -121764 -126107 -109253 13270.6 2771.71 -4893.75 -7.41264 
537 1 5.05 8.545 3 6.02332 -136864 -143397 -102445 -11848.2 17664.2 -13243.5 -7.41336 
538 1 4.328 7.325 3 6.02159 -115882 -124350 -104394 -21847.8 17282.4 -8341.54 -7.4128 
539 1 5.025 6.089 3 6.02159 -126626 -113564 -104743 -30403.4 13462.7 -12848.7 -7.41278 
540 1 4.303 4.869 3 6.02193 -174013 -150262 -106820 -4622.05 11244.8 -8918.5 -7.41369 
541 1 5 3.634 3 6.02152 -133479 -129863 -106619 -9527.39 8586.52 -12298.9 -7.41287 
542 1 4.279 2.413 3 6.023 -134401 -149453 -108034 11629.8 5330.2 -9415.72 -7.41328 
543 1 4.975 1.178 3 6.023 -143356 -151282 -107721 -1617.58 3260.29 -11778.3 -7.41313 
708 1 6.468 8.531 3 6.023 -130642 -153410 -101723 13681.7 19542.5 -11649.2 -7.41379 
709 1 7.164 7.296 3 6.02243 -145033 -139690 -101299 112.923 15862.4 -18199.9 -7.41371 
710 1 6.443 6.075 3 6.02597 -134108 -150574 -104514 15544.7 13579.4 -12581.8 -7.41348 
711 1 7.139 4.84 3 6.02597 -142316 -142641 -103457 4763.44 11367.1 -17772.2 -7.41355 
712 1 6.418 3.619 3 6.02243 -135959 -147541 -106159 10390.5 7608.23 -13471 -7.41342 
713 1 7.114 2.384 3 6.02257 -137562 -144157 -105098 2786.65 6348.06 -17043 -7.41379 
714 1 6.393 1.163 3 6.02122 -141518 -153466 -106719 16196.1 1692.87 -14342.2 -7.41319 
879 1 9.303 8.502 3 6.023 -144224 -142225 -96533.3 2090.28 18164.3 -23456.8 -7.41398 
880 1 8.582 7.281 3 6.02152 -125781 -138628 -101798 1754.34 15351 -15879.1 -7.41314 
881 1 9.279 6.046 3 6.02193 -182779 -143374 -99247.2 -14698 14183.1 -22856.4 -7.41413 
882 1 8.557 4.826 3 6.02159 -117972 -122406 -103636 -19570.8 9506.48 -17071.5 -7.41284 
883 1 9.254 3.59 3 6.02159 -123662 -117328 -101404 -32464.5 9584.66 -22065.5 -7.41297 
884 1 8.532 2.37 3 6.02332 -127176 -152807 -104506 -1480.2 3638.9 -18161.7 -7.41322 
885 1 9.229 1.135 3 6.02446 -123501 -125546 -103018 -3795.93 4429.08 -21083.1 -7.41303 
9774 2 0.622 8.603 6.4 6.0244 -126797 -160426 -103544 9021.01 20972.1 -1087.86 -7.41336 
9775 2 0.647 6.147 6.4 6.0265 -120338 -125856 -106609 -8352.24 14970.6 -1226.03 -7.41286 
9776 2 0.672 3.691 6.4 6.02515 -122689 -124026 -108628 -9964.03 8860.05 -1409.78 -7.41262 
9777 2 0.697 1.235 6.4 6.0243 -168850 -116771 -109610 -8271.26 2884.89 -1557.93 -7.4134 
9778 2 0 0 6.4 6.02539 -139340 -137550 -109754 10948.9 11.1054 -21.9467 -7.41307 
9942 2 2.04 8.617 6.4 6.02457 -144521 -137622 -104524 -9354.45 17717.2 -5361.47 -7.41379 
9943 2 2.761 7.396 6.4 6.02243 -133634 -150243 -104802 -2547.97 17840.7 -5135.02 -7.4135 
9944 2 2.065 6.161 6.4 6.02322 -142834 -139823 -106773 -9708.94 13369.4 -5278.94 -7.41353 
9945 2 2.786 4.94 6.4 6.02152 -135822 -150314 -107299 -4488.13 11903 -5665.75 -7.41302 
9946 2 2.09 3.705 6.4 6.02325 -148066 -176333 -108443 7965.99 8411.08 -5209.8 -7.41354 
9947 2 2.811 2.485 6.4 6.02248 -129506 -133532 -108690 41284.2 5796.88 -6210.76 -7.41274 
9948 2 2.114 1.249 6.4 6.02002 -171420 -112172 -109252 24174.6 2991.63 -5103.31 -7.41316 
9949 2 2.836 0.029 6.4 6.02297 -124075 -123699 -109101 24592.2 -132.203 -6666.79 -7.41267 
10113 2 4.876 8.646 6.4 6.02426 -164322 -120788 -102413 -4683.53 20263.2 -8785.22 -7.41362 
10114 2 4.179 7.411 6.4 6.02246 -138597 -124175 -104363 3343.09 15853.1 -10842.1 -7.41313 
10115 2 4.9 6.19 6.4 6.023 -131523 -151678 -105244 -3572.4 14408.2 -9716.71 -7.4136 
10116 2 4.204 4.955 6.4 6.02243 -145257 -140064 -106427 -9565.18 11197 -10594.9 -7.41318 
10117 2 4.925 3.734 6.4 6.02444 -135308 -148752 -107112 -5711.58 8380.28 -10432.2 -7.41334 
10118 2 4.229 2.499 6.4 6.02597 -142698 -143015 -107771 -11303.6 6143.78 -10272.3 -7.41308 
10119 2 4.95 1.278 6.4 6.02434 -137100 -146274 -107901 -934.137 2458.18 -11143.9 -7.41329 
10120 2 4.254 0.043 6.4 6.02389 -136707 -152578 -108402 -8799.79 549.889 -9852.79 -7.41377 
10284 2 6.293 8.66 6.4 6.02426 -177815 -107684 -100890 -12769.9 18228.8 -16256.8 -7.41371 
10285 2 7.015 7.439 6.4 6.0234 -115214 -125262 -102849 -191.214 16497 -12932.9 -7.41289 
10286 2 6.318 6.204 6.4 6.02332 -134796 -145277 -103298 4310.07 14089.2 -15926.3 -7.41332 
10287 2 7.04 4.984 6.4 6.02159 -116966 -123123 -104889 31765.4 10571.7 -14153.8 -7.41277 
10288 2 6.343 3.748 6.4 6.02159 -123977 -116091 -105165 21281.1 9257.86 -15500.1 -7.41275 
10289 2 7.065 2.528 6.4 6.02332 -127239 -150382 -105988 14640.6 4639.94 -15262.8 -7.41337 
10290 2 6.368 1.293 6.4 6.02246 -132143 -130509 -106291 1755.93 3970.46 -15048 -7.41298 
10291 2 7.089 0.072 6.4 6.02152 -130776 -122400 -105938 10377.2 -971.439 -16173 -7.41312 
10455 2 9.129 8.689 6.4 6.02457 -130396 -152222 -99928.7 -331.908 18268.4 -15774 -7.41411 
10456 2 8.433 7.454 6.4 6.02243 -143051 -140433 -99172.7 -11938.6 16672.3 -21179.8 -7.41404 
10457 2 9.154 6.233 6.4 6.02597 -136157 -150851 -102143 -433.44 12586.3 -17338 -7.4134 
10458 2 8.458 4.998 6.4 6.02444 -142721 -142702 -101647 -15628.8 12230.5 -20542.5 -7.41366 
10459 2 9.179 3.777 6.4 6.02243 -137917 -148010 -103397 856.975 6805.81 -18790.2 -7.41337 
10460 2 8.483 2.542 6.4 6.02169 -138174 -145543 -103368 -14006.5 7256.59 -19865.3 -7.4137 
10461 2 9.204 1.321 6.4 6.02297 -129838 -133342 -103733 14241.6 1080.39 -19927.6 -7.41313 
10462 2 8.507 0.086 6.4 6.02424 -124135 -124253 -104376 -10567.1 1939.11 -19075.3 -7.41305 
1050 1 10.721 8.488 3 6.02426 -116393 -124353 -98948.6 18228.1 16839.1 -18321.8 -7.41324 
1051 1 11.418 7.253 3 6.0234 -128204 -113460 -93871 -1226.23 16629.9 -27734 -7.41354 
1052 1 10.696 6.032 3 6.02426 -165201 -119095 -101032 17840.5 11124.1 -19895.2 -7.41383 
1053 1 11.393 4.797 3 6.02246 -136095 -128643 -96661.7 -13750.8 12562.9 -26830.3 -7.41357 
1054 1 10.672 3.576 3 6.02444 -135624 -151489 -101779 18159.8 5433.6 -21403 -7.41343 
1055 1 11.368 2.341 3 6.02597 -144458 -145446 -98923.9 1655.15 7837.33 -25859.5 -7.41335 
1056 1 10.647 1.12 3 6.02238 -137019 -155570 -101733 19269.8 -224.619 -22697.5 -7.4139 
1221 1 13.557 8.459 3 6.02457 -146724 -141855 -87448.6 -1414.23 19074.4 -32241.4 -7.41451 
1222 1 12.836 7.238 3 6.02152 -131649 -151927 -97670.2 17359 12452.2 -22265.8 -7.41411 
1223 1 13.532 6.003 3 6.02457 -141999 -143971 -90852.5 -306.739 15351.4 -31385.6 -7.41452 
1224 1 12.811 4.782 3 6.02152 -133926 -152279 -98718.1 15483.9 6866.12 -24030.6 -7.41372 
1225 1 13.507 3.547 3 6.02303 -147322 -178262 -93755.5 -18258.9 11062.5 -30285.8 -7.41467 
1226 1 12.786 2.327 3 6.02219 -138626 -149783 -98821.1 -16312.4 1322.76 -25604.4 -7.41347 
1227 1 13.482 1.091 3 6.01874 -139581 -156239 -96020.3 -40628.6 6246.73 -28950.4 -7.41401 
1392 1 14.975 8.445 3 6.02457 -127305 -138003 -94847.4 8043.68 13289.4 -23808.4 -7.41366 
1393 1 15.672 7.21 3 6.02172 -175896 -113183 -83860.5 -2182.34 17978.7 -35471.5 -7.41471 
1394 1 14.95 5.989 3 6.02441 -118367 -123048 -95847.9 19765.6 7813.14 -25890.4 -7.41342 
1395 1 15.647 4.754 3 6.02303 -125301 -117878 -87362.2 -2929.67 14232.6 -34356.1 -7.41392 
1396 1 14.925 3.533 3 6.02584 -120156 -122367 -95634.7 22041.4 2350.6 -27890.4 -7.41331 
1397 1 15.622 2.298 3 6.02447 -123084 -120012 -90391.2 1490.12 9887.16 -33037.8 -7.41372 
1398 1 14.9 1.077 3 6.02431 -121068 -126609 -94645.9 25254.5 -2963.33 -29614.9 -7.41397 
1563 1 17.811 8.416 3 6.02444 -129259 -116046 -75846.5 -2293.47 20396 -39129.5 -7.41472 
1564 1 17.089 7.195 3 6.02172 -164903 -121647 -92469.9 20536.4 8535.92 -27346.7 -7.41419 
1565 1 17.786 5.96 3 6.02457 -137780 -131308 -80137.9 -14868 17043.9 -38012.1 -7.41454 
1566 1 17.065 4.739 3 6.02013 -131584 -156008 -92491.4 19300.5 3307.05 -29466.6 -7.41408 
1567 1 17.761 3.504 3 6.0246 -152082 -179390 -83878.9 -20268.3 13241.2 -36653.7 -7.41481 
1568 1 17.04 2.284 3 6.02072 -135585 -149844 -91489.8 -14119.7 -1865.32 -31419 -7.41444 
1569 1 17.736 1.048 3 6.02306 -134466 -123002 -87040.4 -26649.7 8824.5 -35085.4 -7.41422 
10626 2 10.547 8.703 6.4 6.02332 -137920 -144422 -93862.3 3268.65 19098.7 -26029.6 -7.41386 
10627 2 11.269 7.483 6.4 6.0202 -163835 -122521 -99322.2 35151.3 14058.3 -19864.4 -7.41367 
10628 2 10.572 6.247 6.4 6.02248 -137313 -128680 -96772.6 32095.7 15048.8 -25521 -7.41342 
10629 2 11.293 5.027 6.4 6.02303 -140461 -185161 -100662 18640.8 8423.68 -21615.5 -7.41405 
10630 2 10.597 3.792 6.4 6.02152 -142929 -145224 -98992.5 -14218 10651.4 -24792 -7.41349 
10631 2 11.318 2.571 6.4 6.023 -134578 -148875 -100992 530.855 2810.35 -23209 -7.41393 
10632 2 10.622 1.336 6.4 6.02243 -139577 -145517 -100777 -12718.2 5615.02 -23823.3 -7.4137 
10633 2 11.343 0.115 6.4 6.02456 -140345 -154868 -100463 -2456.88 -2679.1 -24620.8 -7.41376 
10797 2 13.383 8.732 6.4 6.02597 -127573 -138463 -96243.5 13530.7 15204.9 -21735.5 -7.41347 
10798 2 12.686 7.497 6.4 6.023 -176833 -111112 -90813.3 -19913 17870.3 -30077.5 -7.4143 
10799 2 13.408 6.276 6.4 6.0234 -117632 -123359 -97641.2 -335.742 9677.85 -23851.7 -7.41331 
10800 2 12.711 5.041 6.4 6.02429 -127195 -116015 -93721 -18891.6 13828.1 -29263.6 -7.41343 
10801 2 13.433 3.82 6.4 6.02447 -118137 -122353 -97989.3 3368.5 4159.95 -25759.3 -7.41329 
10802 2 12.736 2.585 6.4 6.02582 -124072 -117484 -96268.7 -17836.9 9205.04 -28159.9 -7.4134 
10803 2 13.458 1.364 6.4 6.02248 -119707 -119432 -97295.6 3307.15 -1217.21 -27506.2 -7.41352 
10804 2 12.761 0.129 6.4 6.02485 -133866 -140617 -98054.5 133.79 4112.79 -26926.3 -7.4135 
10968 2 14.801 8.746 6.4 6.0246 -155007 -174739 -84003.1 2309.07 20353.8 -34154.5 -7.41503 
10969 2 15.522 7.526 6.4 6.02219 -130675 -154733 -94485.8 38595.2 10780.3 -25369.2 -7.41416 
10970 2 14.826 6.29 6.4 6.02219 -141791 -145639 -87445.1 17246.3 16683.9 -33377.4 -7.41459 
10971 2 15.547 5.07 6.4 6.0246 -142907 -183908 -94922.1 22649.8 5359.24 -27642.3 -7.41438 
10972 2 14.851 3.835 6.4 6.02013 -138426 -148142 -90405.7 -16612.3 12512.9 -32373 -7.41442 
10973 2 15.572 2.614 6.4 6.02457 -139253 -149261 -94276.8 3103.35 80.4446 -29684.9 -7.41389 
10974 2 14.876 1.379 6.4 6.02013 -137247 -149655 -92905.1 -16591.4 7864.94 -31112.8 -7.41416 
10975 2 15.597 0.158 6.4 6.02541 -133143 -142613 -92761.1 12005.5 -5069.24 -31465.1 -7.41381 
11139 2 17.637 8.775 6.4 6.02303 -117327 -126865 -91570.4 3175.4 11317.3 -26420.3 -7.41343 
11140 2 16.94 7.54 6.4 6.02447 -131002 -116507 -79874.4 -19029.8 19404.9 -37205.8 -7.41411 
11141 2 17.662 6.319 6.4 6.02169 -164866 -121878 -91812.4 6018.25 6116.38 -28907.2 -7.41423 
11142 2 16.965 5.084 6.4 6.02457 -136703 -130529 -83542.4 -6080.62 15794.6 -36131.9 -7.41446 
11143 2 17.686 3.863 6.4 6.02013 -133122 -153775 -91136.8 6649.88 991.149 -31119.1 -7.41428 
11144 2 16.99 2.628 6.4 6.02457 -144078 -146319 -87084.7 -19629.5 11575.3 -34684.5 -7.41431 
11145 2 17.711 1.407 6.4 6.01957 -134706 -151072 -89452.9 5751.61 -4020.3 -33245.6 -7.41457 
11146 2 17.015 0.172 6.4 6.02306 -141278 -156282 -89599.8 -14135 6903.59 -33178 -7.41439 
1734 1 19.229 8.402 3 6.0246 -139330 -186655 -89817.4 5504.2 8956.85 -27931.2 -7.41488 
1735 1 19.925 7.167 3 6.02152 -141347 -149581 -71797.5 -4270.88 19720.7 -41188 -7.41551 
1736 1 19.204 5.946 3 6.02457 -135355 -152284 -89278.4 20864.6 3896.15 -30404.1 -7.41438 
1737 1 19.9 4.711 3 6.02013 -140442 -148310 -76328.5 -5192.86 16308.8 -39883.4 -7.41537 
1738 1 19.179 3.49 3 6.02457 -138546 -150201 -88119.9 21923.9 -1199.7 -32664.2 -7.41437 
1739 1 19.875 2.255 3 6.02243 -137729 -152051 -80320 -6316.81 12316.2 -38282.6 -7.41489 
1740 1 19.154 1.034 3 6.02516 -134238 -143957 -85985.8 13012.1 -6133.94 -34738.5 -7.41409 
1905 1 22.065 8.373 3 6.023 -179180 -117269 -62515.1 -890.528 22148.8 -43898.6 -7.41571 
1906 1 21.343 7.152 3 6.0234 -117373 -125370 -86436 21264.2 4071.77 -30804.1 -7.41396 
1907 1 22.04 5.917 3 6.02429 -126361 -120707 -67636.6 -3378.98 19274.2 -42632 -7.4152 
1908 1 21.318 4.696 3 6.02447 -118210 -124963 -85003.9 21841 -886.681 -33287 -7.41405 
1909 1 22.015 3.461 3 6.02582 -124721 -122234 -72385.2 -3911.08 15821.5 -41093 -7.41479 
1910 1 21.293 2.24 3 6.02248 -119626 -124451 -82741.2 21336.5 -5748.57 -35567.8 -7.41415 
1911 1 21.99 1.005 3 6.02385 -124773 -130745 -76398.1 -9990.69 11850.1 -39347.7 -7.41458 
2076 1 23.482 8.359 3 6.0202 -164031 -125349 -83850.9 -9638.12 4128.38 -30666.5 -7.41455 
2077 1 24.179 7.123 3 6.02248 -138192 -136571 -58169.3 -51119.5 21885.2 -44846.4 -7.41569 
2078 1 23.458 5.903 3 6.02303 -140644 -188777 -82200.4 6232.18 -614.447 -33271.6 -7.41511 
2079 1 24.154 4.668 3 6.02152 -143774 -152368 -63907.2 -6145 18790 -43337.5 -7.41555 
2080 1 23.433 3.447 3 6.023 -134717 -153275 -79767.6 23528.3 -5350.85 -35714 -7.41516 
2081 1 24.129 2.212 3 6.02243 -140333 -151912 -68961.7 -8836.41 15362.5 -41563.4 -7.41556 
2082 1 23.408 0.991 3 6.02456 -138066 -160612 -76340.7 27243.4 -9850.7 -37951.9 -7.41537 
2247 1 26.318 8.33 3 6.0249 -146817 -150505 -48131.4 -2119.8 24204.3 -46501.9 -7.41682 
2248 1 25.597 7.109 3 6.0249 -134728 -154696 -79795.4 26344.9 -729.908 -32748.9 -7.41494 
2249 1 26.293 5.874 3 6.023 -143094 -152037 -54206.3 -2864.59 21704.9 -45132.3 -7.41654 
2250 1 25.572 4.653 3 6.02243 -138181 -153361 -76989.7 22545.9 -5293.39 -35384.1 -7.41488 
2251 1 26.268 3.418 3 6.023 -139783 -154704 -59949.2 -5713.64 18663.3 -43460.7 -7.41611 
2252 1 25.547 2.197 3 6.0219 -130622 -139136 -73281.9 9343.38 -9722.68 -37848 -7.41489 
2253 1 26.244 0.962 3 6.02385 -172513 -130404 -65395.2 -9790.96 15203.7 -41548.9 -7.41579 
2418 1 27.736 8.316 3 6.02248 -126171 -143248 -77847.6 -23090.1 -965.747 -31791.6 -7.4145 
2420 1 27.711 5.86 3 6.02332 -125759 -160165 -74682.3 7931.18 -5441.75 -34560.6 -7.41496 
2422 1 27.686 3.404 3 6.02426 -119781 -126966 -70647.8 24766 -9792.98 -37134.3 -7.41489 
2424 1 27.661 0.948 3 6.02428 -171430 -131359 -65890.1 28521.5 -13819.1 -39523.7 -7.41577 
11310 2 19.055 8.789 6.4 6.01928 -144236 -148722 -71674.6 16645.8 21918.6 -40381.6 -7.41529 
11311 2 19.776 7.569 6.4 6.02457 -134857 -171957 -88956.4 35998.8 6583.63 -29485.3 -7.41432 
11312 2 19.079 6.334 6.4 6.02172 -174128 -117834 -75742.6 -18345.5 18758.2 -39401.4 -7.41506 
11313 2 19.801 5.113 6.4 6.02441 -118443 -124610 -88026.5 6166.73 1545.36 -32072.2 -7.41386 
11314 2 19.104 3.878 6.4 6.02303 -125021 -119840 -79667.4 -18816.8 15054 -38098.6 -7.41437 
11315 2 19.826 2.657 6.4 6.02429 -118837 -123671 -86202.6 4861.46 -3402.99 -34402.1 -7.4141 
11316 2 19.129 1.422 6.4 6.0234 -123121 -121082 -83161.1 -18438.9 10841.4 -36544.5 -7.41413 
11317 2 19.851 0.201 6.4 6.02428 -171867 -128257 -83606.1 -14.2095 -7988.31 -36492.2 -7.41461 
11481 2 21.89 8.818 6.4 6.02243 -130320 -157284 -86205.5 9161.95 6962.97 -29494.8 -7.41456 
11482 2 21.194 7.583 6.4 6.02457 -145849 -146321 -66990.5 -17736.2 21405.8 -42214.1 -7.41583 
11483 2 21.915 6.362 6.4 6.02152 -131692 -154423 -85240.9 8407.33 2035.59 -32290.8 -7.41483 
11484 2 21.219 5.127 6.4 6.02457 -141846 -148456 -71691 -20456 18148.4 -40913.8 -7.41564 
11485 2 21.94 3.906 6.4 6.02152 -134195 -155343 -83246.4 9498.62 -2816.79 -34868.2 -7.41461 
11486 2 21.244 2.671 6.4 6.02303 -147123 -184250 -75963.8 -3416.14 14361.9 -39360.2 -7.41549 
11487 2 21.965 1.451 6.4 6.02248 -131565 -137060 -80278.8 53155.6 -7552.32 -37203.8 -7.41448 
11488 2 21.268 0.215 6.4 6.02235 -165229 -94080.1 -79645.9 -1109.21 10128.2 -37620.4 -7.41463 
11652 2 23.308 8.833 6.4 6.02303 -128373 -122689 -57319.1 -18627.4 23807.3 -44609.4 -7.41555 
11653 2 24.03 7.612 6.4 6.02426 -116406 -127576 -82378.2 6917.7 2021.56 -32109.4 -7.4142 
11654 2 23.333 6.377 6.4 6.0234 -128178 -120591 -62576 -18267.2 21172.4 -43319 -7.41537 
11655 2 24.055 5.156 6.4 6.02426 -165446 -123150 -80446.2 6623.99 -2642.1 -34802.6 -7.41501 
11656 2 23.358 3.921 6.4 6.02246 -136071 -135163 -67589.2 -7045.75 17829.8 -41792.5 -7.41527 
11657 2 24.079 2.7 6.4 6.02444 -136071 -156303 -77388.5 5489.76 -7149.97 -37270.4 -7.41483 
11658 2 23.383 1.465 6.4 6.02597 -142179 -151837 -72301.4 -21908.6 14035.1 -39980.7 -7.41512 
11659 2 24.104 0.244 6.4 6.02596 -136082 -160664 -73590 5251.18 -11424.3 -39537.9 -7.41578 
11823 2 26.144 8.861 6.4 6.02243 -135111 -155347 -80718.4 9777.85 2025.8 -31248.5 -7.41466 
11824 2 25.448 7.626 6.4 6.023 -144229 -152095 -52883.9 -20162.9 23698.4 -45130.4 -7.41654 
11825 2 26.169 6.405 6.4 6.02152 -126001 -143233 -78246.7 21859.5 -2558.4 -34157.5 -7.41451 
11826 2 25.472 5.17 6.4 6.02193 -182859 -152480 -58499.4 -4629.91 20911.5 -43719.7 -7.41651 
11827 2 26.194 3.95 6.4 6.02159 -118448 -128115 -74664.1 42419.8 -7130.29 -36855.8 -7.41451 
11828 2 25.497 2.714 6.4 6.02159 -123800 -125574 -63933.3 11933 17629 -42020.6 -7.41516 
11829 2 26.219 1.494 6.4 6.02332 -127863 -159584 -70383.4 23479.6 -11297.7 -39320.2 -7.41519 
11830 2 25.522 0.259 6.4 6.02395 -124330 -132309 -68688.9 -16748.7 13874.1 -40070.1 -7.41502 
11994 2 27.562 8.876 6.4 6.02152 -148355 -152642 -42318 -18800.1 26009.1 -46483.3 -7.41682 
11996 2 27.587 6.42 6.4 6.02243 -145191 -151417 -48631.3 -17779.9 23717.2 -45112.5 -7.41678 
11998 2 27.612 3.964 6.4 6.0249 -140896 -152900 -54799.2 -25396.9 20823 -43468.4 -7.41664 
12000 2 27.637 1.508 6.4 6.023 -139258 -156223 -60615.2 -24133.5 17460.4 -41599.6 -7.41592 
2417 1 28.457 9.536 3 6.02172 -153313 -186821 -37147 -21259 26208.8 -47624.1 -7.41777 
2419 1 28.433 7.08 3 6.02159 -127554 -124623 -43842.1 -38841.2 24294 -46368.1 -7.41656 
2421 1 28.408 4.625 3 6.02447 -124056 -128161 -50707.7 -6207.91 21679.3 -44794.4 -7.41595 
2423 1 28.383 2.169 3 6.0234 -123569 -126306 -57011.9 -8239.49 18629.1 -42934.6 -7.41567 
2588 1 29.875 9.522 3 6.02426 -115695 -126526 -76401.2 25517.2 -1378.01 -30436.8 -7.41488 
2589 1 30.572 8.287 3 6.02353 -139306 -139518 -33198 -19306.3 26407.8 -47064.2 -7.4173 
2590 1 29.851 7.066 3 6.02444 -134001 -158907 -72937.6 26194.5 -5631.4 -33231.8 -7.41509 
2591 1 30.547 5.831 3 6.02597 -148488 -154146 -40396.7 -3200.06 24383.2 -45601 -7.41681 
2592 1 29.826 4.61 3 6.02243 -133654 -156006 -68647.1 22864.2 -9914.44 -35925.3 -7.4158 
2593 1 30.522 3.375 3 6.02457 -141703 -154387 -47337.2 -7394.9 21740.6 -43853.2 -7.41698 
2594 1 29.801 2.154 3 6.02096 -135080 -156115 -63675.6 22309.6 -13969.5 -38383.1 -7.41607 
2595 1 30.497 0.919 3 6.02346 -140106 -164295 -54161.5 -10810.5 18753.9 -41852.6 -7.41655 
2759 1 32.711 9.493 3 6.02457 -148216 -154771 -21705 -5010.59 28324.5 -47166.3 -7.41838 
2760 1 31.99 8.272 3 6.02152 -132470 -159137 -71698 21960.1 -6143.51 -31553.3 -7.41528 
2761 1 32.686 7.037 3 6.02303 -151168 -188551 -29667.9 -21589.4 26789.3 -45808 -7.41843 
2762 1 31.965 5.817 3 6.02219 -137224 -157462 -67031.2 -9880.79 -10196.2 -34337.1 -7.41533 
2763 1 32.661 4.581 3 6.01928 -140213 -159810 -37379.3 -40125.9 24630.8 -44244 -7.41731 
2764 1 31.94 3.361 3 6.02457 -138435 -174310 -61404.2 -5732.93 -14092.4 -36887.9 -7.41593 
2765 1 32.637 2.126 3 6.02172 -171294 -126130 -45008.4 -6490.49 21973.3 -42488.6 -7.41695 
2766 1 31.915 0.905 3 6.02389 -116856 -102462 -55328.7 10320.1 -17788.5 -39242.9 -7.41548 
2930 1 34.129 9.479 3 6.02597 -126657 -143315 -71302.2 11557.4 -6557.99 -29566 -7.41503 
2931 1 34.826 8.244 3 6.02303 -129250 -127152 -18370.3 -5119.89 28751.3 -45562.8 -7.4182 
2932 1 34.104 7.023 3 6.02584 -116984 -129395 -66347.1 25067.2 -10628.4 -32343.5 -7.41526 
2933 1 34.801 5.788 3 6.02447 -126806 -129460 -26641.9 -5567.84 27118.1 -44088.5 -7.4175 
2934 1 34.079 4.567 3 6.02303 -120713 -130188 -60427.9 26195.9 -14508.1 -34952.9 -7.41524 
2935 1 34.776 3.332 3 6.02447 -127172 -129724 -35019.1 -4109.23 24992.2 -42418.3 -7.41675 
2936 1 34.054 2.111 3 6.02299 -168438 -126829 -53598 22518.5 -18152.2 -37366.1 -7.41644 
2937 1 34.751 0.876 3 6.02487 -133645 -150578 -43140.9 -21268.2 22304.7 -40470.9 -7.41697 
3101 1 36.965 9.45 3 6.02597 -140390 -143471 -6782.75 -16437.5 30397.6 -44669.6 -7.419 
3102 1 36.244 8.229 3 6.02013 -131578 -160313 -65815.2 22314.6 -11025.2 -30013.8 -7.41575 
3103 1 36.94 6.994 3 6.02457 -148265 -157578 -15723.6 -3371.9 29254.5 -43374.4 -7.41852 
3104 1 36.219 5.773 3 6.02013 -131642 -160965 -59517.3 22449.9 -14835.1 -32601.5 -7.41621 
3105 1 36.915 4.538 3 6.0246 -151287 -191022 -24686.2 -23289 27550.4 -41866 -7.41851 
3106 1 36.194 3.318 3 6.02219 -134378 -159985 -52650.3 -11231 -18343 -35076.5 -7.41661 
3107 1 36.89 2.082 3 6.02338 -139310 -158751 -33545.7 -39456.5 25270.2 -40113.4 -7.41784 
3108 1 36.169 0.862 3 6.02462 -141513 -165127 -45255.6 -8967.48 -21684.3 -37278.6 -7.41698 
11995 2 28.283 7.655 6.4 6.023 -131557 -156804 -76042.9 8102.36 -2675.24 -33059.7 -7.41536 
11997 2 28.308 5.199 6.4 6.02457 -133904 -156414 -72528.2 5995.91 -7030.87 -35892.8 -7.41545 
11999 2 28.333 2.743 6.4 6.0249 -137018 -155169 -68063.9 5551.66 -11225.2 -38509.2 -7.41563 
12001 2 28.358 0.287 6.4 6.0223 -133456 -148183 -62852.9 16584.8 -15106 -40840.2 -7.41556 
12165 2 30.398 8.904 6.4 6.02447 -115387 -129502 -74956.4 9621.46 -3008.15 -31634.9 -7.41463 
12166 2 29.701 7.669 6.4 6.02581 -129430 -125136 -37846 -21413.6 26152.3 -46061.1 -7.41683 
12167 2 30.423 6.448 6.4 6.02303 -115250 -131726 -71074.4 9027.96 -7241.17 -34512.9 -7.41473 
12168 2 29.726 5.213 6.4 6.02332 -135395 -157787 -44778.8 -3867.6 23806.3 -44491.1 -7.41674 
12169 2 30.448 3.993 6.4 6.0202 -166195 -127211 -66101.8 41542.2 -11406.1 -37207.8 -7.4156 
12170 2 29.751 2.757 6.4 6.02248 -134856 -141016 -51429.8 24715.2 20929.3 -42703.6 -7.41607 
12171 2 30.472 1.537 6.4 6.02303 -142980 -191579 -60510.9 24647.7 -15229 -39617.5 -7.41635 
12172 2 29.776 0.302 6.4 6.02265 -141385 -162518 -57667.2 -15938 17661.1 -40608.6 -7.41625 
12336 2 31.816 8.919 6.4 6.02013 -145282 -154331 -26696 -18610.3 28238.8 -46357.5 -7.4183 
12337 2 32.537 7.698 6.4 6.02457 -135680 -156566 -69912.7 8105.13 -7591.06 -32708.1 -7.41542 
12338 2 31.841 6.463 6.4 6.02243 -142870 -156783 -34408.8 -19107.5 26456.6 -44921.1 -7.41762 
12339 2 32.562 5.242 6.4 6.026 -130386 -143264 -64562 18658.4 -11599.6 -35460.5 -7.41519 
12340 2 31.865 4.007 6.4 6.023 -175891 -124712 -41773.5 -24138 24073.7 -43299.8 -7.41694 
12341 2 32.587 2.786 6.4 6.0234 -119934 -128900 -58759.6 9344.9 -15319.6 -38035.1 -7.41558 
12342 2 31.89 1.551 6.4 6.02428 -122890 -128071 -48641.4 -23167 21124.2 -41396 -7.41629 
12343 2 32.612 0.33 6.4 6.02194 -122721 -137428 -51952.4 3349.9 -18847.6 -40373.4 -7.41601 
12507 2 34.651 8.947 6.4 6.02013 -129048 -163003 -69634.8 9850.15 -7834.04 -30610.1 -7.4154 
12508 2 33.955 7.712 6.4 6.0246 -156988 -187682 -23125.9 -3279.21 28569.1 -44874.1 -7.4184 
12509 2 34.676 6.492 6.4 6.02072 -131565 -160135 -64003.3 42170 -11854 -33383.9 -7.41594 
12510 2 33.98 5.256 6.4 6.02219 -143863 -157455 -31126.8 14944.2 26705.4 -43316 -7.41769 
12511 2 34.701 4.036 6.4 6.0246 -141714 -191192 -57683.9 24347.3 -15627.9 -36007.2 -7.41676 
12512 2 34.005 2.801 6.4 6.02152 -138248 -159388 -38899.3 -20702.4 24288.5 -41532.6 -7.41744 
12513 2 34.726 1.58 6.4 6.02457 -137956 -158326 -50600.2 7997.12 -19118.4 -38374.2 -7.41663 
12514 2 34.03 0.345 6.4 6.02069 -139072 -167142 -46535.3 -16430.6 21454 -39536.2 -7.41691 
12678 2 36.069 8.962 6.4 6.02303 -130315 -129352 -11375.6 -18535.3 30472.3 -44252.2 -7.4184 
12679 2 36.791 7.741 6.4 6.02447 -118225 -131760 -63980.1 5145.13 -12270.4 -31029.1 -7.41503 
12680 2 36.094 6.506 6.4 6.02447 -130028 -130224 -20080.7 -22636.3 29088 -42827.2 -7.41765 
12681 2 36.816 5.285 6.4 6.02303 -117720 -131301 -57315.5 7941.94 -15962.4 -33609.9 -7.41567 
12682 2 36.119 4.05 6.4 6.02444 -126213 -128972 -28908.4 -20750 27145.9 -41209.3 -7.41748 
12683 2 36.841 2.829 6.4 6.02172 -167711 -128113 -49782.8 7302.11 -19368.4 -35983.2 -7.41669 
12684 2 36.144 1.594 6.4 6.02401 -134566 -143630 -37322.3 -9571.14 24648.6 -39362.4 -7.41702 
12685 2 36.865 0.373 6.4 6.01844 -137859 -169448 -41932.3 3399.07 -22486.6 -38128.6 -7.41718 
3272 1 38.383 9.436 3 6.0246 -141680 -190971 -66443.9 4911.23 -11470.1 -27467.9 -7.41602 
3273 1 39.079 8.201 3 6.02013 -142835 -162399 -4555.88 -4088.16 31011.2 -42019.7 -7.41949 
3274 1 38.358 6.98 3 6.02457 -137620 -158044 -59904.2 23678.4 -15200.1 -30043.2 -7.41589 
3275 1 39.054 5.745 3 6.02013 -141878 -161964 -14167.8 -5410.67 29792.7 -40683.5 -7.41883 
3276 1 38.333 4.524 3 6.02457 -129534 -143822 -52279.3 10351.6 -18772.6 -32456 -7.41628 
3277 1 39.03 3.289 3 6.02169 -172931 -128938 -23326.4 -5083.58 27937.6 -39236 -7.41827 
3278 1 38.308 2.068 3 6.02447 -122971 -131855 -44306.5 23552.4 -22030.2 -34697.7 -7.41617 
3279 1 39.005 0.833 3 6.02357 -124493 -140298 -32574.1 -5183.55 25658.4 -37478.7 -7.41716 
3443 1 41.219 9.407 3 6.02426 -180000 -130118 6913.87 799.388 32313.4 -40193 -7.41996 
3444 1 40.497 8.186 3 6.0234 -117380 -130984 -60434.5 20646.6 -15655.5 -27199.3 -7.41548 
3445 1 41.194 6.951 3 6.02426 -128572 -133275 -3002.39 -1619.38 31620.6 -39039.4 -7.4189 
3446 1 40.472 5.73 3 6.02303 -118167 -131937 -52728.1 21259.1 -19126.1 -29540.5 -7.41594 
3447 1 41.169 4.495 3 6.02441 -126919 -132692 -13052.8 -3343.54 30283.3 -37692.8 -7.4183 
3448 1 40.447 3.274 3 6.02172 -166642 -131478 -44380.8 21067.5 -22364.1 -31744.5 -7.41689 
3449 1 41.144 2.039 3 6.02401 -142229 -179446 -23060.7 -33513.6 28369.4 -36138.7 -7.41819 
3450 1 40.423 0.819 3 6.01984 -137759 -172056 -35747.5 -9327.95 -25245.4 -33768.8 -7.41742 
3614 1 42.636 9.393 3 6.02193 -172632 -161292 -61782.5 5368.49 -15896.4 -24219.6 -7.4163 
3615 1 43.333 8.158 3 6.02152 -138588 -149877 7889.14 -15201.6 33042.5 -36725.1 -7.41963 
3616 1 42.612 6.937 3 6.023 -133002 -162338 -54059.1 21392.1 -19304 -26419.2 -7.41645 
3617 1 43.308 5.702 3 6.02243 -144449 -161822 -2661.07 -5113.63 32151.9 -35601.8 -7.41952 
3618 1 42.587 4.481 3 6.02457 -134658 -160838 -45198.8 21359.8 -22580.3 -28507.3 -7.41719 
3619 1 43.283 3.246 3 6.02152 -139848 -162315 -13180.5 -4023.38 30657.5 -34268.9 -7.4191 
3620 1 42.562 2.025 3 6.02457 -139314 -161300 -36116.3 20885.4 -25572.4 -30449.5 -7.41737 
3621 1 43.258 0.79 3 6.02394 -139745 -170282 -23498.2 -3919.95 28653.8 -32746.8 -7.4185 
3785 1 45.472 9.364 3 6.02597 -147511 -164167 18602.8 1685.01 34133.6 -33822.9 -7.42076 
3786 1 44.751 8.143 3 6.02243 -134412 -160151 -55588.1 17326.4 -19590.1 -23038.3 -7.41636 
3787 1 45.447 6.908 3 6.023 -142928 -165102 7755.23 -955.562 33714.6 -32881.6 -7.42026 
3788 1 44.726 5.687 3 6.02246 -129176 -146215 -46645.1 6046.07 -22796 -25067.3 -7.41649 
3789 1 45.423 4.452 3 6.02426 -174660 -132220 -3054.92 -338.632 32637.1 -31824 -7.41948 
3790 1 44.701 3.231 3 6.0234 -119150 -135701 -37137.6 17850 -25801.9 -26933.2 -7.41674 
3791 1 45.398 1.996 3 6.02331 -131499 -168412 -13808.2 -18393.1 30999.4 -30556.6 -7.41855 
3792 1 44.676 0.776 3 6.02271 -124344 -141439 -27237.6 -10541.3 -28411.5 -28797.9 -7.41747 
12849 2 38.905 8.991 6.4 6.02219 -132766 -160672 -64590.1 43019.2 -12586.2 -28378.4 -7.41569 
12850 2 38.209 7.755 6.4 6.02072 -143918 -160453 -9118.73 14969.4 31000.7 -41720.8 -7.41921 
12851 2 38.93 6.535 6.4 6.0246 -144943 -191557 -57586 23526.5 -16233.3 -30939.5 -7.41634 
12852 2 38.234 5.3 6.4 6.02013 -140462 -163544 -18149.3 -18558.9 29576.4 -40240.1 -7.41846 
12853 2 38.955 4.079 6.4 6.02457 -129951 -145027 -49834.6 18297.6 -19661.4 -33296.7 -7.4163 
12854 2 38.258 2.844 6.4 6.02172 -173001 -128046 -26889.6 -20106 27523.4 -38652.1 -7.41806 
12855 2 38.98 1.623 6.4 6.02441 -121249 -132177 -41436.1 5649.62 -22826 -35512.4 -7.41658 
12856 2 38.283 0.388 6.4 6.02357 -124229 -139333 -35816.9 -16289.4 25023.1 -36769.9 -7.41697 
13020 2 40.323 9.005 6.4 6.02493 -141594 -145200 2685.69 -9429.85 32498.5 -40124.2 -7.41945 
13021 2 41.044 7.784 6.4 6.02338 -131798 -162370 -58559.3 2653.84 -16492.8 -28015.3 -7.41618 
13022 2 40.348 6.549 6.4 6.02597 -149262 -159408 -7079.42 -21244.6 31532.2 -38803.5 -7.41892 
13023 2 41.069 5.328 6.4 6.02013 -133007 -160706 -50608 6867.97 -19917.4 -30350.5 -7.41687 
13024 2 40.373 4.093 6.4 6.02457 -143849 -159844 -16773.3 -18563.4 29936.3 -37299.6 -7.41867 
13025 2 41.094 2.872 6.4 6.02243 -137108 -160387 -41847.7 8077.27 -23076.4 -32467.5 -7.41718 
13026 2 40.398 1.637 6.4 6.02257 -139002 -160963 -26543.4 -20833.8 27883.4 -35659.6 -7.41827 
13027 2 41.119 0.416 6.4 6.02122 -142797 -168376 -32707.9 1467.59 -25886.9 -34347.3 -7.41752 
13191 2 43.159 9.034 6.4 6.02159 -116116 -133663 -60083.6 39873.8 -16791.4 -24960.5 -7.41537 
13192 2 42.462 7.798 6.4 6.02159 -128867 -135145 3986.15 15812 33126.8 -36800.2 -7.41919 
13193 2 43.184 6.578 6.4 6.02332 -125321 -165801 -51951 21130.2 -20157.2 -27170 -7.41631 
13194 2 42.487 5.343 6.4 6.02447 -125572 -136099 -6106.17 -17943.4 32065.4 -35433.5 -7.41859 
13195 2 43.209 4.122 6.4 6.02426 -119415 -131726 -42934.7 3669.23 -23333.1 -29206.8 -7.41673 
13196 2 42.512 2.887 6.4 6.02353 -135118 -146984 -16303.6 -4279.16 30389.5 -33944 -7.4183 
13197 2 43.233 1.666 6.4 6.02169 -135099 -164058 -33528.4 3902.76 -26141.1 -31053.1 -7.41776 