ITEM: TIMESTEP
208
ITEM: NUMBER OF ATOMS
10088
ITEM: BOX BOUNDS pp pp pp
0.0000000000000000e+00 8.7338652999999994e+01
0.0000000000000000e+00 1.5127498399999999e+02
0.0000000000000000e+00 1.8399999600000001e+01
ITEM: ATOMS id type x y z c_csym c_2[1] c_2[2] c_2[3] c_2[4] c_2[5] c_2[6] c_3 
1 1 4.09908e-06 -6.02513e-07 7.43582 6.04582 -11920.5 -11901.2 -7514.31 -14.651 -0.215046 -0.192353 -7.41275 
2 1 2.15822 1.17834 7.44283 6.03483 -22286.4 -1981.55 -4685.09 815.695 12957 -23521.5 -7.41304 
3 1 3.57748 1.14569 7.45093 6.02102 -21427.2 -5463.19 -3498.67 23514.3 10489.3 -29166 -7.41318 
4 1 6.41504 1.08285 7.47099 6.01669 -27913.5 2533.66 3447.16 33136.4 11085.8 -42387.3 -7.41438 
5 1 7.83429 1.05496 7.47967 6.02426 -25919.4 -4714.2 -1923.43 66318.5 -3099.11 -24154.9 -7.41393 
42 1 0.0586264 2.45847 7.44282 6.02764 -18552.5 -6610.93 -5365.55 -8837.9 24279.7 1319.03 -7.41296 
43 1 1.47794 2.42453 7.44498 6.02728 -18225.9 -6957.92 -4502.68 -2401.35 26816.9 -13155.5 -7.41309 
44 1 2.21525 3.63774 7.45452 6.02132 -42639.5 16295 -1355.83 -14747.3 27962.6 -19985.8 -7.41342 
45 1 3.63444 3.60509 7.46089 6.01544 -39867.6 10542.3 -2902.05 6670.39 30509.6 -22353.8 -7.41345 
46 1 4.31496 2.35898 7.45943 6.02675 -41698.5 17149.3 1951.25 9075.41 18754.1 -38557.3 -7.41391 
47 1 5.73414 2.32857 7.46872 6.01852 -38831.9 6789.11 -3825.16 40548.7 12837.7 -28023.8 -7.41344 
48 1 6.46989 3.54303 7.4768 6.02351 -55315.2 34664.7 9442.58 16542.3 16489.3 -38733.7 -7.41509 
49 1 7.88904 3.51463 7.48361 6.02575 -48637.6 14426.6 -9553.12 47752.3 7424.27 -15839.8 -7.41339 
50 1 8.57066 2.26925 7.48473 6.01912 -36634.8 17031.6 10244.4 40387.6 12633 -32388.3 -7.41546 
124 1 0.114521 4.91711 7.45939 6.01742 -26534.8 -3166.03 -3415.86 -29573.2 33802.8 2620.69 -7.41331 
125 1 1.53384 4.88345 7.46092 6.02109 -23578 -2075.73 1122.21 -23617.7 42494.3 -10968.9 -7.4139 
126 1 2.26897 6.09782 7.47093 6.02062 -57003 26527.6 -1506.61 -36696.2 27166.7 -13854.5 -7.4137 
127 1 3.68815 6.06538 7.47488 6.01247 -49680.8 21473.5 398.876 -18255.6 36505 -13791.3 -7.41419 
128 1 4.3697 4.81961 7.47099 6.02069 -64970.5 40232.4 4743.28 -12664.2 22657.8 -30998.7 -7.41436 
129 1 5.7888 4.7889 7.47749 6.01492 -57840.8 24586.7 -6221.69 15847.5 23152.3 -17784.5 -7.41356 
130 1 6.52244 6.00448 7.48487 6.01686 -71907.5 53278.9 11398.5 -9888 12147.4 -29321.9 -7.41549 
131 1 7.94157 5.97527 7.48917 6.0222 -59538.1 27052.8 -13544.4 17527.4 10486.7 -6366.03 -7.41333 
132 1 8.62361 4.72986 7.48906 6.02202 -53488.5 40121.2 16866 16128.3 11003.4 -28055.1 -7.41623 
206 1 0.166531 7.37579 7.47667 6.01945 -31768.2 -2141.8 -6685.29 -47432.4 26222 2590.94 -7.41343 
207 1 1.58589 7.34277 7.47757 6.02069 -23578.4 1709.5 8079.28 -42409.6 41272.5 -7748.96 -7.41502 
208 1 2.31927 8.55811 7.48456 6.02964 -60944.1 28263.3 -7010.61 -49436.3 14239.1 -8303.98 -7.41365 
209 1 3.7385 8.52621 7.48645 6.01553 -48325.7 25796.7 5984.6 -35593.1 29357.7 -4192.35 -7.41511 
210 1 4.42134 7.28099 7.48291 6.021 -76373.2 49631.7 2530.87 -34987.3 14321.4 -20810.2 -7.41449 
211 1 5.84045 7.25009 7.4865 6.01511 -63779.7 33941.5 -4857.42 -11782 22014 -6540.48 -7.41406 
212 1 6.57265 8.46635 7.49121 6.01717 -76607.9 57437.3 8443.2 -32282.1 1626.97 -19833.2 -7.41543 
213 1 7.9918 8.43642 7.49351 6.02259 -59452 32913.2 -12800 -10557.7 7699.18 2010.95 -7.41366 
214 1 8.6746 7.19122 7.49343 6.01861 -61129.3 50138.7 18539.5 -12423.4 3537.06 -22010.3 -7.41649 
6 1 10.6724 0.998046 7.49089 6.01796 -20128.3 -137.423 6441.29 52893.8 11968.9 -17370.6 -7.41529 
7 1 12.0917 0.972528 7.49328 6.02311 -17688.2 -5552.25 -4751.29 75227.7 -12642 -1175.72 -7.41435 
8 1 14.9309 0.917104 7.49526 6.01839 -11105.6 -2631.04 5282.76 55943 17764.9 -3022.35 -7.41535 
9 1 16.3502 0.892004 7.49619 6.0171 -8204.21 -3984.75 -6596.68 81551.9 -15185.7 -4722.33 -7.41454 
10 1 19.1897 0.838087 7.50184 6.00014 -10222.8 -1637.91 3141.55 92674 26258.2 -19748.5 -7.41549 
51 1 9.98989 2.24278 7.48963 6.03106 -31576.4 955.856 -8952.86 68003.4 -5131.52 -8572.32 -7.41372 
52 1 10.7255 3.45755 7.49281 6.02214 -32056.2 19432.6 17372.1 35490.3 12706.5 -18357.5 -7.41639 
53 1 12.1448 3.43134 7.49461 6.03209 -23093.6 -2496.38 -17401.6 58118.1 -7570.85 1198.1 -7.41337 
54 1 12.828 2.18694 7.4946 6.01981 -16906 3092.93 13016 47067 15939.4 -7597.96 -7.41599 
55 1 14.2474 2.16134 7.49522 6.02434 -10827.3 -7651.9 -13157.7 68722.6 -11600.6 1483.3 -7.41391 
56 1 14.9837 3.37569 7.49724 6.01725 -10210.7 -2625.25 19197 41560.8 22755 -8693.2 -7.41652 
57 1 16.4031 3.35024 7.49857 6.02145 -916.456 -12406 -21690.3 69213.1 -7043.8 -6694.93 -7.41365 
58 1 17.087 2.10624 7.4981 6.01014 -9015.34 -5411.43 11556.4 63064.5 26679.7 -11583.5 -7.41593 
59 1 18.5063 2.08223 7.501 6.009 -2760.64 -6782.33 -15276.1 97698.9 -10179.1 -16465.8 -7.41425 
60 1 19.243 3.29666 7.50639 5.99784 -14267.6 -4675.44 19619.7 80986.6 38210 -26115.4 -7.41669 
133 1 10.0428 4.70242 7.49253 6.03322 -42349.2 11421.9 -17850.7 42173.5 -335.735 -2860.72 -7.41312 
134 1 10.7771 5.91779 7.49586 6.02694 -38749.4 30968.5 24036.7 7521.22 8501.34 -18052.4 -7.41706 
135 1 12.1964 5.89038 7.49744 6.03884 -23781.2 1295.59 -26317.8 30484.2 -4266.2 1432.75 -7.41286 
136 1 12.8802 4.6461 7.49709 6.02468 -19731.2 10323.6 24009.6 24753.3 15800.2 -11825.5 -7.41701 
137 1 14.2996 4.61968 7.49805 6.03212 -7356.77 -10255.9 -25792.3 48352.8 -6069.58 -674.258 -7.41314 
138 1 15.0351 5.83433 7.50196 6.02201 -12521.1 -583.014 30384 18289.4 23251.5 -17913.4 -7.41746 
139 1 16.4546 5.80825 7.50448 6.02874 2098.08 -12635.9 -33945.3 49139.4 292.533 -12146.2 -7.41318 
140 1 17.1393 4.56464 7.50331 6.01022 -10656.2 -7186.21 26089.8 45270.9 32584.5 -20425 -7.41709 
141 1 18.5587 4.54039 7.50723 6.01453 1144.37 -10225 -30220.1 82535.4 363.328 -20269.6 -7.41365 
142 1 19.2941 5.75537 7.51552 6.00108 -24494.7 203.043 36101.2 60428.8 42524.7 -36135.3 -7.41796 
215 1 10.0938 7.16256 7.49574 6.03135 -44478.3 18607.7 -22059.9 10986.1 427.686 1504.37 -7.413 
216 1 10.827 8.37835 7.49858 6.02476 -43081 36350 25791.9 -19929.4 2060.47 -19533.6 -7.41716 
217 1 12.2464 8.34967 7.50057 6.03794 -24059.7 8473.54 -30290.8 2830.26 -1904.96 -796.373 -7.41283 
218 1 12.9308 7.10554 7.50071 6.03106 -23702.6 15712.1 30734.4 -2547.18 12146.8 -18368.5 -7.41757 
219 1 14.3503 7.07806 7.50269 6.03875 -6499.23 -6142.53 -34304.2 23510.8 -1401.63 -5674.2 -7.41285 
220 1 15.0845 8.29326 7.50787 6.02873 -21709 7795.2 37957.7 -5955.82 20262.1 -30062.7 -7.41804 
221 1 16.504 8.26659 7.51189 6.02497 -3670.31 -1029.35 -42600.5 28304.7 6108.12 -18754.2 -7.4131 
222 1 17.1895 7.02323 7.51131 6.01636 -19827.7 -819.529 38635.7 22684.5 32453 -32704.9 -7.41809 
223 1 18.6089 6.99873 7.51651 6.01675 -3888.5 -1588.56 -43014.1 63094.9 8170.14 -25396.7 -7.41339 
224 1 19.3424 8.21475 7.52587 6.01057 -43086.3 15904.5 50817.9 38104.8 39175.9 -47611 -7.41912 
11 1 20.6091 0.816322 7.50682 5.99486 -6938.33 1025.14 -7260.35 135022 -17414.9 -27813.9 -7.41487 
12 1 23.4486 0.768472 7.52034 5.96619 -14653.9 5308.89 4074.11 174032 35646.4 -39616.6 -7.41609 
13 1 24.8679 0.753354 7.52754 5.96456 -11723.8 8860.12 -7101.15 223880 -23128.5 -40573.7 -7.41524 
14 1 27.7076 0.71446 7.54064 5.93919 -19871.7 13747.2 5186.5 264315 42492.4 -43141.1 -7.41658 
61 1 20.6623 3.27487 7.51215 5.99888 -5392.74 -2609.98 -24063 124888 -3474.28 -28906 -7.41414 
62 1 21.3459 2.03098 7.51223 5.9842 -17086.5 1632.99 12163 125281 39240.6 -33336.9 -7.41637 
63 1 22.7652 2.0123 7.51932 5.98208 -11088.7 5044.79 -16176.5 174034 -11709.2 -36217.5 -7.41464 
64 1 23.5013 3.22774 7.5281 5.96872 -32375.7 14638.5 23896.2 160761 51752.3 -43269.9 -7.41752 
65 1 24.9206 3.21251 7.53589 5.97352 -24300.6 16738.8 -26440.3 211134 -6062.1 -39301.8 -7.41438 
66 1 25.6044 1.96909 7.535 5.95356 -28722.7 17418 15097.7 215573 49361.1 -44507 -7.41713 
67 1 27.0236 1.95748 7.54169 5.95565 -23726.7 17846.1 -17392.8 263000 -16547.7 -38923.2 -7.41483 
68 1 27.7588 3.1743 7.5509 5.94244 -46255.9 35632 27617.9 246772 59772.5 -43715.8 -7.41835 
143 1 20.7135 5.73353 7.52221 6.00627 -10943.2 4181.75 -39980.3 106242 7157.26 -31673.8 -7.41371 
144 1 21.3981 4.49004 7.52122 5.98504 -30328.4 7302.06 31046.8 107209 49275.6 -40050.4 -7.41777 
145 1 22.8173 4.47131 7.52898 5.99117 -19370.5 11633.1 -34194.6 156803 2213.15 -36688.2 -7.41404 
146 1 23.5514 5.68778 7.54023 5.97596 -54376.1 30924.7 45519.3 135029 56358.1 -48211.2 -7.41918 
147 1 24.9706 5.67238 7.54818 5.98815 -41806.8 33794.5 -46977 185168 4914.01 -38107.7 -7.41379 
148 1 25.6552 4.42919 7.54659 5.9583 -53140.6 36161.5 37695.1 191364 60356.4 -46795.5 -7.41889 
149 1 27.0743 4.41725 7.55348 5.97066 -43356.9 33727.7 -38791.7 238726 -1948.35 -37335.1 -7.41403 
150 1 27.807 5.63543 7.5644 5.95428 -73737.8 60767.7 52666.9 211653 63431 -44242.6 -7.42037 
225 1 20.7617 8.19297 7.53306 6.00782 -26129.7 23629.2 -54984 85746.7 13038.6 -33279.5 -7.41347 
226 1 21.4472 6.94976 7.53295 5.99362 -50183.7 22439.1 50046.4 82969.7 48888.9 -48291.5 -7.41924 
227 1 22.8664 6.93104 7.54094 6.00116 -35199.4 29737.9 -52683.9 133012 10170.8 -36476 -7.41362 
228 1 23.5978 8.14899 7.55198 5.99059 -80752.7 54686.4 66685 106524 49859.7 -53088.9 -7.42078 
229 1 25.0168 8.1335 7.55952 6.00146 -64348.9 60393.8 -68433.3 155788 8682.14 -34943.1 -7.41325 
230 1 25.7025 6.89051 7.55956 5.97245 -80462.1 60442.5 61685.3 157932 57809 -49168.1 -7.42074 
231 1 27.1215 6.87818 7.56619 5.98929 -66320.9 58559 -62145.4 204279 4165.41 -34631.1 -7.41336 
232 1 27.8511 8.09801 7.57617 5.97386 -101654 88680.7 78213.3 172392 54429.7 -44734.8 -7.42227 
15 1 29.1269 0.706255 7.54565 5.93925 -17917.6 15412.5 -7395.91 305439 -28250.1 -35960.2 -7.41546 
16 1 31.967 0.675609 7.55287 5.92314 -23920.9 19534.8 5248.9 330911 45365 -33864.6 -7.4167 
17 1 33.3862 0.672479 7.555 5.92385 -22793.9 18807.7 -7329.92 356780 -30832.8 -23545.2 -7.41556 
18 1 36.2267 0.647544 7.55762 5.91485 -26309.5 22045.6 5234.7 367822 45823.4 -21615.3 -7.41666 
19 1 37.6459 0.647367 7.55811 5.91672 -25454.5 19649.2 -6761.42 380970 -32241.7 -11029.8 -7.41562 
69 1 29.1779 3.16573 7.55606 5.95294 -39422.4 29972.8 -29059.3 288451 -10153.2 -34067.3 -7.41437 
70 1 29.8627 1.92319 7.55279 5.93027 -35563.3 29456.7 16493.5 295040 54415.3 -39224.5 -7.41758 
71 1 31.2818 1.91763 7.55619 5.93676 -31683.2 24319.6 -18451 329099 -19854.4 -29100 -7.41488 
72 1 32.0162 3.1356 7.56418 5.92503 -49357.7 45416.3 28908.1 309408 62590.2 -32635.8 -7.41874 
73 1 33.4353 3.13195 7.56579 5.93907 -43590.3 32149.6 -30108 336363 -12423.6 -22143.2 -7.41432 
74 1 34.1213 1.89036 7.5609 5.91722 -36730.6 33559.4 16776.9 344916 55694.9 -26956.9 -7.41769 
75 1 35.5404 1.88874 7.56162 5.926 -33548.2 24247.5 -18359.9 364583 -21498.3 -16363.9 -7.41489 
76 1 36.2742 3.1074 7.56787 5.91574 -44118.3 44325.1 29057.6 343620 62803.2 -19706 -7.41884 
77 1 37.6933 3.10666 7.56709 5.93034 -38852.6 26483.2 -29673.8 358068 -13737.4 -10209.7 -7.41431 
78 1 38.3803 1.86581 7.56225 5.91158 -33365.4 31974 16801.2 369209 55323.9 -14980 -7.41767 
151 1 29.226 5.62624 7.56939 5.97228 -62301.4 51776.2 -52844.4 252851 -343.085 -32178.2 -7.41358 
152 1 29.9115 4.38383 7.5658 5.93783 -62480.7 55292.6 41220.8 263650 65275.5 -38544.1 -7.41968 
153 1 31.3305 4.37761 7.56893 5.95501 -53927.5 42066.5 -41812 298130 -5526.01 -27731.4 -7.41389 
154 1 32.0623 5.59696 7.57819 5.93874 -73787.7 71732.6 55442.5 266438 65964.2 -31299.3 -7.42105 
155 1 33.4812 5.59236 7.57919 5.96017 -63452.4 51577.2 -55188.3 293627 -3711.96 -21177.8 -7.41341 
156 1 34.1682 4.35094 7.5738 5.92498 -58040.4 58220.3 42081.2 308549 66509.3 -25109.4 -7.42001 
157 1 35.5872 4.34849 7.57358 5.9439 -50426.9 37228.6 -42268.1 329133 -7447.61 -15754.8 -7.41382 
158 1 36.3186 5.56837 7.58083 5.92884 -59918.9 65388.7 55645.4 295809 66401.4 -17822.1 -7.42132 
159 1 37.7376 5.56652 7.57877 5.94881 -50286.4 38448.5 -54914.7 310894 -5544.29 -10092.9 -7.41334 
160 1 38.4259 4.326 7.573 5.9179 -44711.7 49928.8 41848 329907 66176.1 -12733 -7.4201 
233 1 29.2699 8.08815 7.58074 5.99029 -85922.9 80679 -78161.5 212293 574.135 -28700.8 -7.41281 
234 1 29.9566 6.8459 7.57931 5.95559 -89371 82718.8 68052.8 220013 61543.7 -38019.1 -7.42183 
235 1 31.3755 6.83878 7.58203 5.97666 -76342.5 66924.6 -67595.9 253914 -1550.43 -25751.3 -7.41307 
236 1 32.1041 8.05973 7.59024 5.96052 -97273.5 97972.8 83162.9 218056 56270.7 -30605.3 -7.4232 
237 1 33.523 8.05399 7.59069 5.979 -82464.7 76942.9 -82232.7 244716 -5117.4 -19321.6 -7.41252 
238 1 34.2112 6.81281 7.58721 5.94349 -77953.3 82230.5 69792.9 257881 62819.5 -23831.5 -7.42239 
239 1 35.6302 6.80916 7.58609 5.96488 -65872.3 56403.6 -68851.1 278468 -4801.77 -15067.8 -7.41292 
240 1 36.3587 8.03043 7.59233 5.95028 -74271.2 85009.9 83895.9 241783 56978.2 -16958.8 -7.42367 
241 1 37.7777 8.02719 7.58917 5.96993 -60215.3 55768.9 -82547.2 256632 -8146.98 -9632.94 -7.41241 
242 1 38.4676 6.78708 7.58461 5.93504 -54208 65890.1 69325.2 275192 62905.1 -11203.8 -7.42262 
316 1 29.9974 9.30947 7.58862 5.97558 -114831 110238 94046.7 178062 48132.6 -37731.8 -7.42367 
317 1 31.4162 9.30143 7.59097 5.99072 -97489.4 96643.2 -93641.6 210750 -4800.69 -22184.9 -7.4122 
320 1 34.25 9.27592 7.59683 5.96627 -96362.3 105099 97529.6 208605 49084.7 -23381.5 -7.42444 
321 1 35.6689 9.27095 7.59507 5.98277 -79961.8 79961.9 -96337.6 228643 -10148.5 -13482.8 -7.41197 
324 1 38.5051 9.24896 7.59338 5.95744 -62310.4 80122.4 97474.7 221559 49458.9 -10742.9 -7.42484 
20 1 40.4866 0.625588 7.55849 5.91261 -26575.6 22419.8 5238.51 383994 45210.1 -10615.9 -7.4166 
21 1 41.9057 0.626741 7.55824 5.91453 -25581.7 18693.8 -6196.38 388496 -33344.4 -308.143 -7.41565 
22 1 44.7466 0.606034 7.55768 5.91203 -23813.2 21086.9 5063.76 387989 44175.4 -579.202 -7.41656 
23 1 46.1658 0.607289 7.55711 5.91421 -22675.4 15686.7 -5901.25 385433 -34273.7 9580.94 -7.4157 
79 1 39.7995 1.86627 7.56152 5.92055 -30364.9 20167.2 -17694.8 378353 -22632.6 -5001.36 -7.41491 
80 1 40.5331 3.08517 7.56561 5.91157 -33241.5 36903.2 28868.5 357888 61980 -8413.21 -7.41884 
81 1 41.9522 3.08576 7.56361 5.92414 -27982.7 16551.3 -28828.9 363598 -14722 122.82 -7.41432 
82 1 42.64 1.84536 7.56019 5.91003 -26207 27190.8 16692.7 377795 54302.9 -4500.68 -7.41763 
83 1 44.0592 1.84652 7.55885 5.91706 -23009.6 13527.4 -17100.2 379456 -23554.4 4957.14 -7.41494 
84 1 44.7931 3.06525 7.56064 5.90985 -18735.3 25968 28521.1 360402 60803.2 1942.54 -7.4188 
85 1 46.2123 3.06596 7.55829 5.92069 -13342 3804.24 -28158.3 358980 -15380.2 9794.69 -7.41436 
86 1 46.9004 1.82569 7.55684 5.9108 -16611.6 19852.2 16348.6 376224 53113.6 5831.09 -7.41759 
87 1 48.3196 1.82639 7.55531 5.91626 -13167.4 5185.09 -16776.1 370560 -24122.1 14952 -7.415 
161 1 39.845 4.32558 7.57069 5.93493 -37385.3 24807.1 -41423.5 340022 -8654.96 -4932.58 -7.41381 
162 1 40.5766 5.54543 7.57561 5.92256 -37753.9 49155.9 54963.2 307487 65833.7 -6237.42 -7.4214 
163 1 41.9957 5.54487 7.57185 5.94048 -28263.4 18642.2 -53740.5 313643 -6616.29 -235.455 -7.41334 
164 1 42.6851 4.30499 7.56716 5.91395 -25839 35807.2 41338 336673 65172.8 -1950.59 -7.4201 
165 1 44.1043 4.30526 7.56398 5.929 -18345.1 8316.98 -40408.5 339065 -9453.72 4735.31 -7.41383 
166 1 44.8366 5.52464 7.56662 5.91857 -11908 27849.2 54077.2 308803 64844.5 4469.09 -7.42137 
167 1 46.2559 5.5242 7.56248 5.93442 -2144.89 -4649.33 -52584.3 307623 -7070.43 9146.18 -7.41338 
168 1 46.946 4.28468 7.5597 5.91242 -5247.74 18288.6 40651 334343 64017.2 8772.96 -7.42003 
169 1 48.3653 4.28453 7.55656 5.92553 2644.68 -9968.51 -39601.1 329307 -9645.23 14520.7 -7.41389 
243 1 39.8867 6.78533 7.58079 5.95438 -42563.3 34733.7 -67991.2 285444 -6497.41 -5081.57 -7.41288 
244 1 40.6158 8.00628 7.58484 5.94206 -40972.3 58893.2 82867.9 250415 56878.7 -5182.68 -7.42385 
245 1 42.035 8.00422 7.57948 5.9596 -27157.7 25293.4 -81293.7 256347 -9552.66 -624.293 -7.41239 
246 1 42.7264 6.76501 7.57537 5.92877 -23970.1 41245.1 68212.4 280042 62276.1 -126.804 -7.42267 
247 1 44.1457 6.76391 7.57039 5.94601 -12137 7419.52 -66594.6 282358 -7287.5 4101.99 -7.41289 
248 1 44.876 7.98407 7.57246 5.93559 -3995.8 26063.6 81298.9 250860 56358.8 5786.86 -7.42384 
249 1 46.2954 7.98212 7.56668 5.95086 10193 -9788.76 -79718.5 249224 -9775 8080.4 -7.41242 
250 1 46.9878 6.74352 7.56412 5.9247 7295.54 12411.7 66876.7 277658 61489.5 10915.9 -7.42259 
251 1 48.4073 6.74204 7.55941 5.93973 19699.7 -22174.4 -65261.7 272375 -7081.11 13400.4 -7.41294 
325 1 39.9242 9.24568 7.58836 5.97442 -46397.5 48581.6 -95995.6 231413 -12793.4 -4919.2 -7.41189 
328 1 42.7636 9.22526 7.58176 5.94894 -20745.2 44406.1 95948.1 224489 49300.5 494.374 -7.42496 
329 1 44.1829 9.22257 7.57528 5.96368 -4710.55 9569.42 -94463.4 226332 -13653.2 3244.12 -7.41188 
332 1 47.0256 9.20204 7.56767 5.94226 21196.2 3141.31 93789 222552 49203.4 11580.5 -7.42484 
333 1 48.4452 9.199 7.56167 5.95456 38078.3 -32345 -92591.8 216757 -12796.6 11425.9 -7.41193 
24 1 49.0069 0.585783 7.55595 5.91255 -18806.6 17811.6 4590.87 381784 43010.4 10100.2 -7.41651 
25 1 50.4261 0.585947 7.55497 5.91569 -17460.2 11531.4 -5817.63 371082 -34762.1 20222.3 -7.41577 
26 1 53.2674 0.561647 7.55247 5.91801 -12809.5 13707 3900.57 360741 41569.6 22588.4 -7.41642 
27 1 54.6866 0.559188 7.55043 5.92156 -11471.9 7384.89 -5635.42 338010 -34227.4 32142.2 -7.41587 
28 1 57.5277 0.529632 7.5446 5.93216 -7877.18 9780.65 3256.2 314715 39001.1 35578.4 -7.41624 
88 1 49.0543 3.04459 7.55515 5.91116 -3393 13053.6 27892.1 353668 59576.8 13053.3 -7.41872 
89 1 50.4736 3.04426 7.55286 5.92026 2477.56 -8948.17 -27659.4 343966 -15322.6 20231.7 -7.41445 
90 1 51.1614 1.80379 7.55293 5.91319 -6149.18 11783.5 15675.2 363510 51807.4 17596.3 -7.41749 
91 1 52.5807 1.80273 7.55107 5.91946 -2468.55 -2592.07 -16486.1 347992 -23839.5 26186.8 -7.41511 
92 1 53.3163 3.02012 7.54971 5.91731 9588.36 1264.82 26834.7 333776 58170.8 25988.2 -7.41852 
93 1 54.7358 3.01728 7.54719 5.92554 15687.3 -18286.1 -26856.6 312064 -13870.5 31739.3 -7.41461 
94 1 55.4228 1.7762 7.54732 5.92209 1569.79 4961.61 14674.6 332162 49911.9 30996.2 -7.41729 
95 1 56.8422 1.77158 7.54428 5.92781 5190.81 -7179.83 -15712 302431 -22011.8 37579.3 -7.41525 
96 1 57.5787 2.988 7.54251 5.93124 14640.1 -5767.3 25212.2 291476 55701.4 39270.7 -7.41813 
170 1 49.0987 5.50308 7.55752 5.9174 13316.2 4071.87 52952.2 302627 63890.4 15937.3 -7.42124 
171 1 50.5182 5.50169 7.55393 5.93116 23768.3 -27427.6 -51522.2 293019 -6447.6 19193.8 -7.41347 
172 1 51.2083 4.26217 7.55284 5.9148 13942.9 588.136 39604.2 322580 62898.2 20940.1 -7.41987 
173 1 52.6278 4.26036 7.55007 5.92612 22316.9 -25781.5 -38724.5 307636 -8587.67 25400.6 -7.41401 
174 1 53.3625 5.47789 7.55033 5.92176 32622.6 -17139.7 51276.7 285731 63199.2 29036.3 -7.42093 
175 1 54.7821 5.47416 7.5474 5.93379 43593.4 -43973.1 -49931.5 264433 -3846.18 30034.6 -7.41366 
176 1 55.4716 4.2342 7.54668 5.92481 25424.4 -13091.7 37898.6 294929 61582.1 34584.8 -7.4195 
177 1 56.8912 4.22903 7.54369 5.93314 34142.1 -33424.8 -36969.7 266148 -5467.68 36276.4 -7.41423 
178 1 57.627 5.44551 7.5442 5.93625 38618.1 -28885.8 48547.1 250192 62356.3 42288.8 -7.42031 
252 1 49.1391 7.96109 7.56032 5.93172 30973.8 -9729.5 79377.7 246051 56097.6 17337.9 -7.42364 
253 1 50.5588 7.95829 7.55556 5.94465 46049.8 -44040.5 -78027.5 236033 -8369.89 17189.5 -7.4125 
254 1 51.2516 6.71993 7.55462 5.92447 34639.5 -16354.6 65152.4 268105 61072.8 23193.2 -7.42232 
255 1 52.6712 6.71694 7.551 5.93742 47736.4 -47857 -63701.1 253032 -5097.11 23470.5 -7.41308 
256 1 53.4047 7.93475 7.55192 5.93321 56644.9 -41401.6 76777 233312 56804.3 30042 -7.42319 
257 1 54.8245 7.92986 7.54869 5.94434 72470.7 -69225.7 -75500 212020 -4286.69 26658.8 -7.41272 
258 1 55.5169 6.69126 7.54825 5.93188 50416.9 -38121.8 62519.1 245838 61362.3 36571.9 -7.42179 
259 1 56.9367 6.68521 7.54541 5.94148 64083.7 -61088.3 -60811.4 217563 -290.715 33358.4 -7.41335 
260 1 57.6715 7.90188 7.54728 5.94468 64640.9 -59403.7 72676.6 205411 58591 42694.2 -7.42238 
336 1 51.2908 9.17687 7.55642 5.93907 56696.8 -37552.9 91047.1 216106 50029.9 23424.6 -7.42446 
337 1 52.7107 9.17251 7.55218 5.94932 74373.7 -68784.5 -90150.4 200740 -9425.18 19920.8 -7.41208 
340 1 55.5582 9.14716 7.55055 5.94334 77003.3 -68023.7 87161.8 199678 52502 35837 -7.42377 
341 1 56.9782 9.14009 7.54798 5.9502 95146.2 -89238.6 -85856.9 171848 -2562.02 28102.4 -7.41243 
29 1 58.9471 0.522471 7.54027 5.93443 -7065.85 3838.55 -5086.96 276602 -31707.5 41960.7 -7.41589 
30 1 61.7876 0.485029 7.52911 5.95757 -6250.74 6565 2684.01 238143 33598.5 42194.3 -7.4159 
31 1 63.207 0.471137 7.52242 5.95983 -6188.56 1990.31 -4882.48 189199 -26289.7 40555 -7.41561 
32 1 66.0467 0.424612 7.50943 5.98976 -8236.48 4526.12 1666.07 148659 25822.9 32151.9 -7.41544 
33 1 67.4661 0.403764 7.50399 5.99545 -8457.72 1287.22 -4954.53 104322 -19583.7 22304.3 -7.41506 
97 1 58.9982 2.98061 7.53862 5.93617 20745.5 -19324.5 -25028.3 254663 -10411.7 41041.1 -7.41479 
98 1 59.6839 1.73849 7.53678 5.94243 2850.32 1771 13440.9 272493 45892.2 42181.5 -7.4169 
99 1 61.1034 1.72811 7.53142 5.94525 6032.35 -5996.57 -14308 228276 -18031.1 42831.8 -7.41526 
100 1 61.8403 2.94361 7.53 5.95828 7687.15 -3787.33 22918.2 221498 49934.4 46122 -7.41745 
101 1 63.2598 2.9296 7.52413 5.96096 13426.8 -9607.35 -22436.5 173668 -5712.11 39857.5 -7.41474 
102 1 63.944 1.68623 7.51967 5.9739 -3794.02 3979.05 11734.3 188059 38027.8 41500 -7.41632 
103 1 65.3634 1.66865 7.5133 5.97787 -1095.1 98.9993 -13258.6 139534 -12984.1 32813.2 -7.41491 
104 1 66.1002 2.88353 7.5132 5.99289 -8398.85 5958.74 19847.5 138690 39267.7 36858.7 -7.41669 
105 1 67.5196 2.86255 7.50782 5.99815 -2553.89 3313.74 -20225.3 94546.1 -3213.91 22559 -7.41429 
179 1 59.0467 5.43754 7.54087 5.94209 49870.1 -45669.8 -46563.9 214353 1392.31 38952.9 -7.41394 
180 1 59.7348 4.19656 7.53837 5.94536 23217.3 -16151.7 35233.5 242786 58589.2 45979.6 -7.41882 
181 1 61.1544 4.18588 7.53383 5.94847 31828.6 -26644.2 -33528.3 199835 -379.945 41715 -7.41443 
182 1 61.8907 5.40154 7.53509 5.96354 25121.1 -23782.9 44090.7 190907 58703.1 49922.6 -7.41929 
183 1 63.3103 5.38729 7.53006 5.9644 36133.4 -27913.8 -40803.2 144069 7489.41 39324.3 -7.41413 
184 1 63.9964 4.14484 7.52473 5.978 5127.84 -5403.47 31216.6 168168 50698.4 46467.5 -7.41785 
185 1 65.4159 4.12713 7.51884 5.98027 13524.7 -7280.35 -29370.3 120229 3606.27 33564.9 -7.41428 
186 1 66.1518 5.34238 7.52084 5.99834 -2681.5 -3155.4 37595.4 118507 47682.5 43768.8 -7.41811 
187 1 67.5713 5.32123 7.51511 6.00086 8471.03 -2581.93 -34788.6 73584.7 9031.2 25317.2 -7.41382 
261 1 59.0914 7.89316 7.54457 5.94942 80685.6 -74826.6 -70352.1 170386 3190.94 34667 -7.41312 
262 1 59.7824 6.65366 7.54257 5.95149 46468.9 -43524.4 58121.4 203231 61230.2 48013.6 -7.42086 
263 1 61.2022 6.64252 7.5389 5.9539 60097.8 -52801.4 -54861.1 161355 7111.17 39142.1 -7.41372 
264 1 61.9375 7.85841 7.54176 5.96944 47570.1 -53823.6 65476.8 157181 58523.3 51403.3 -7.42109 
265 1 63.3573 7.84391 7.53749 5.96851 63036.7 -53881.6 -60630.8 111158 12007.2 37022.8 -7.41357 
266 1 64.046 6.60284 7.53249 5.98326 20184.1 -26797.1 50710.1 140592 55900.3 50978.8 -7.41951 
267 1 65.4657 6.585 7.52693 5.98292 33415.5 -24165.9 -46083 92742.5 12885.8 34464.1 -7.41384 
268 1 66.2006 7.80061 7.52978 6.00335 11571.2 -25641.2 53985.8 95086.5 49563.4 50214.8 -7.4195 
269 1 67.6202 7.77938 7.52349 6.00221 26797.9 -19517.8 -48512 48944.6 15577.5 28348.4 -7.41356 
344 1 59.8261 9.10947 7.54777 5.95964 73241.7 -77101.2 80727 166025 55601.3 47025.5 -7.42264 
345 1 61.2461 9.09783 7.54494 5.95984 90918.5 -83052.7 -77089.8 125274 7358.99 33959.2 -7.413 
348 1 64.0921 9.05974 7.54106 5.98892 42694.2 -58088.6 69213.7 113980 53683.2 53229.2 -7.42102 
349 1 65.512 9.04184 7.5357 5.98507 59472 -50518.4 -62612.4 66227.4 15932 33656 -7.41347 
34 1 70.3054 0.350467 7.49741 6.0145 -11537.5 2121.84 1407.55 87989.2 19697 8860.96 -7.41512 
35 1 71.7247 0.325625 7.49592 6.01915 -11168.9 -1540.02 -2724.64 60254.6 -14649.8 2517.17 -7.41476 
36 1 74.564 0.270263 7.49417 6.02046 -13192.8 -5254.81 2062.01 76542.4 15844.9 871.743 -7.41499 
37 1 75.9833 0.244861 7.49226 6.01906 -12430.8 -10080.1 -122.069 55314.4 -10672.8 11005.6 -7.41474 
106 1 68.2029 1.61831 7.50337 6.00547 -13098.4 7890.77 9981.88 109688 27968.4 22846.5 -7.41581 
107 1 69.6222 1.59485 7.49982 6.01297 -9965.19 3208.35 -11713.3 73329 -10190.7 10249.2 -7.41439 
108 1 70.3586 2.80947 7.50106 6.01754 -17937.7 10985.1 17544.3 80654.1 26524.2 14321.3 -7.41629 
109 1 71.7779 2.7843 7.49867 6.02395 -11046.3 232.115 -17390.3 52264.5 -5220 1802.03 -7.41379 
110 1 72.4613 1.53999 7.49658 6.01967 -14049.6 2940.61 9461.68 75144.9 19971.3 2964.33 -7.41567 
111 1 73.8806 1.51451 7.49538 6.02331 -9997.48 -8441.6 -8493.79 53253.3 -9529.24 685.516 -7.41419 
112 1 74.6172 2.72881 7.49595 6.01924 -6523.21 -4928.89 15648.3 66914.5 18291.1 5268.71 -7.41623 
113 1 76.0366 2.70289 7.49351 6.02258 665.195 -27256.9 -12800.2 45247.5 -5591.07 5662.15 -7.41366 
114 1 76.7203 1.4589 7.49121 6.01717 -4057.81 -15133.4 8442.94 74223.4 16362.5 11325.8 -7.41543 
188 1 68.2557 4.07748 7.50943 6.01046 -15809.1 10258.5 26660.7 96307.9 36566 30149 -7.41704 
189 1 69.6751 4.05373 7.50502 6.0172 -6705.94 5100.95 -25886.4 58802.4 1912.68 12278 -7.4137 
190 1 70.4105 5.26881 7.50694 6.02259 -19153.5 11430.7 31383.9 63190 29716.4 24077.2 -7.4174 
191 1 71.8299 5.24303 7.50307 6.03115 -6594.77 -1030.41 -29694.7 32476.1 2884.91 4060.54 -7.41317 
192 1 72.5139 3.99898 7.50013 6.02246 -14920.3 7642.67 23255.7 60554.4 21820.3 10152.8 -7.41682 
193 1 73.9333 3.97278 7.49783 6.02958 -4498.23 -13712.3 -21417.9 37262.8 -3257.48 -1346.82 -7.41328 
194 1 74.6693 5.18729 7.49858 6.02475 -787.96 -5945.4 25791.7 44376 15886.6 11551 -7.41716 
195 1 76.0888 5.16023 7.49574 6.03135 12351.5 -38268.2 -22059.7 21788.9 -1516.87 -381.796 -7.413 
196 1 76.7736 3.91681 7.49343 6.0186 11555 -22550.1 18539.4 54421.5 17292.9 14068.2 -7.41649 
270 1 68.3065 6.53662 7.51742 6.01587 -10840 -66.044 41275 76158.5 40390.3 39704.7 -7.41825 
271 1 69.7259 6.51254 7.51173 6.01996 3110.23 -1518.65 -38062.4 36390.3 10470.5 16711.8 -7.41335 
272 1 70.4604 7.72802 7.51327 6.02767 -12790 -798.723 41557.5 42068.2 29155.2 35836.3 -7.41826 
273 1 71.8799 7.70158 7.50762 6.03342 3901.75 -9126.96 -38228.8 8479.86 8714.87 8759.45 -7.41297 
274 1 72.565 6.4581 7.50422 6.02939 -12817.3 4654.44 33028.2 38207.1 19911.8 20571.5 -7.41764 
275 1 73.9844 6.43084 7.50057 6.03795 2818.85 -18357.3 -30290.8 12650 1642.03 -1251.44 -7.41283 
276 1 74.7197 7.64565 7.50071 6.03106 3704.06 -11613.5 30734.5 18369.6 9834.39 19703.6 -7.41757 
277 1 76.1392 7.6172 7.49744 6.03885 21499.5 -43875.1 -26318 -4406.15 892.106 -4410.87 -7.41286 
278 1 76.8252 6.37432 7.49586 6.02693 20023.4 -27820.5 24036.6 26431.6 11383.2 16388.5 -7.41706 
352 1 68.3545 8.9951 7.52573 6.02177 4349.91 -23762.5 53163.8 55775.8 39299.5 48929 -7.41927 
353 1 69.7741 8.97081 7.51859 6.0169 21388 -19266.9 -47448.5 13640.7 15481.5 21821.5 -7.41327 
356 1 72.6142 8.91694 7.50787 6.02873 -4828.03 -9210.56 37957.5 15782.5 15904.3 32578.7 -7.41804 
357 1 74.0338 8.88866 7.50269 6.03875 14074.7 -26822.1 -34304.1 -11634.6 5614.83 1623.15 -7.41285 
360 1 76.8749 8.83155 7.49709 6.02466 24257.9 -33632.5 24009.8 674.848 2341.07 19596.1 -7.41701 
38 1 78.8225 0.188495 7.48291 6.02099 -12146.1 -14494.7 2530.58 72094.1 10861.1 22808 -7.41449 
39 1 80.2418 0.161335 7.47488 6.01247 -12066.3 -16159.4 399.254 39869.4 -6309.23 38510.2 -7.41419 
40 1 83.0807 0.0995909 7.45452 6.02131 -11230.6 -15111.4 -1355.55 32954.5 3326.74 34209 -7.41342 
41 1 84.5 0.0676589 7.44498 6.02727 -11842.1 -13299.8 -4502.25 6050.83 -2015.65 29801.9 -7.41308 
115 1 78.1397 1.43294 7.4865 6.0151 -630.23 -29121.1 -4857.34 48141.6 -5342.86 22335.1 -7.41406 
116 1 78.8774 2.64636 7.48487 6.01686 13416.5 -31983.9 11398.8 59205 19319.5 25181.1 -7.41549 
117 1 80.2969 2.61879 7.47749 6.01494 17745.8 -51013.7 -6221.59 27712.1 3825.84 28942.8 -7.41356 
118 1 80.9799 1.37446 7.47099 6.0207 2861.04 -27714.5 4743.03 51956.7 15517.2 35121.5 -7.41436 
119 1 82.3993 1.34497 7.46089 6.01544 3682.68 -33085.4 -2902.39 18468 4104.23 37599 -7.41345 
120 1 83.1382 2.55737 7.45943 6.02675 10266.4 -34779.3 1951.21 20944.8 24014.6 35520.5 -7.41391 
121 1 84.5577 2.52534 7.45093 6.02103 10842.6 -37870.2 -3498.82 -4794.46 20014.3 23666.7 -7.41318 
122 1 85.2391 1.27989 7.44283 6.03482 -6375.36 -17978.1 -4685.19 8435.14 13891.9 22981.5 -7.41305 
123 1 86.6584 1.24618 7.43825 6.0363 -6806.74 -17225.4 -6581.02 -3425.3 13372.7 7583.8 -7.41284 
197 1 78.1931 3.88996 7.48917 6.02219 20640.1 -53085.8 -13544.6 28670.8 269.788 12264.9 -7.41333 
198 1 78.9307 5.10333 7.48906 6.02202 30649.3 -44041 16865.9 32510.7 18794.7 23556.8 -7.41623 
199 1 80.3504 5.07479 7.48361 6.02575 40002.6 -74253.6 -9552.93 3417.14 10006 14349.4 -7.4134 
200 1 81.0354 3.83157 7.4768 6.02351 26502.1 -47134.6 9442.18 30736.9 25299.7 33647.2 -7.41509 
201 1 82.455 3.80162 7.46872 6.0185 30557.4 -62496.2 -3825.19 -553.902 17849.7 25130 -7.41344 
202 1 83.1934 5.01416 7.47099 6.01668 23563.8 -49041.1 3447.38 -3391.87 31165.9 30794.1 -7.41438 
203 1 84.613 4.98198 7.46504 6.02003 27262.9 -54767.9 895.936 -26339.7 33346.9 12459.8 -7.41381 
204 1 85.2964 3.73767 7.45453 6.01964 116.602 -26746.4 -2178.77 -9415.18 31915.1 22410.3 -7.41344 
205 1 86.7159 3.70404 7.45094 6.02718 931.965 -25708.8 -1455.41 -20175.5 35654.4 3900.83 -7.41342 
279 1 78.2448 6.34611 7.49253 6.03323 34503.8 -65467.4 -17850.7 2169.46 2645.38 1139.77 -7.41312 
280 1 78.9816 7.55975 7.49281 6.02214 37294.3 -49911.2 17372.1 4546.9 9544.86 20182.8 -7.41639 
281 1 80.4014 7.53011 7.48963 6.03106 51730 -82306.4 -8953.16 -19917.2 9989.71 -157.759 -7.41372 
282 1 81.0881 6.28778 7.48473 6.01912 38617 -58181.1 10244.4 3030.27 21732.7 27134.7 -7.41546 
283 1 82.5079 6.25721 7.47967 6.02426 47399.7 -78076.2 -1923.3 -23941.7 22468.2 9393.31 -7.41393 
284 1 83.245 7.47034 7.48291 6.01292 27663.8 -55115.7 582.041 -25628.4 22650.4 22032.9 -7.41446 
285 1 84.6648 7.43823 7.4798 6.01889 36459.5 -60028 6602.02 -43901.4 32826.8 709.746 -7.4148 