ITEM: TIMESTEP
0
ITEM: NUMBER OF ATOMS
10088
ITEM: BOX BOUNDS pp pp pp
0.0000000000000000e+00 8.7338652999999994e+01
0.0000000000000000e+00 1.5127498399999999e+02
0.0000000000000000e+00 1.8399999600000001e+01
ITEM: ATOMS id type x y z c_csym c_2[1] c_2[2] c_2[3] c_2[4] c_2[5] c_2[6] c_3 
1 1 0 0 7.5 6.0491 10677.2 10601.4 -64808.7 -3.47798 0.0848971 0.0651355 -7.41189 
2 1 2.1471 1.19964 7.5 6.04915 9512.05 11359 -61667.7 -1803.9 11910.7 -21417.8 -7.41205 
3 1 3.56696 1.17965 7.5 6.0492 11542.3 8306.44 -58161.4 3895.23 11128.3 -32178.4 -7.41224 
4 1 6.40668 1.13966 7.5 6.0492 9229.98 7502.02 -45171.8 -5225.51 10115.3 -50405.1 -7.4129 
5 1 7.82654 1.11967 7.5 6.0492 10818 4574.36 -40062.8 7768.16 5491.99 -47735.3 -7.41318 
42 1 0.0346307 2.45927 7.5 6.04911 7572.42 12900.2 -61854.2 -100.838 23949 159.561 -7.41205 
43 1 1.45449 2.43927 7.5 6.04915 12345 8238.33 -60775.3 1844.59 24310.6 -13768.7 -7.4121 
44 1 2.18174 3.65891 7.5 6.04915 5795.59 13544.1 -56024.5 -1351.4 32102.6 -19741.4 -7.41235 
45 1 3.60159 3.63892 7.5 6.0492 12508.3 5983.87 -53052.3 4754.54 32311.2 -29277 -7.41251 
46 1 4.29421 2.39929 7.5 6.0492 7748.4 10827.5 -52641.4 -3060.98 20699 -38357.4 -7.41252 
47 1 5.71407 2.37929 7.5 6.0492 11918.3 5442.39 -48843.9 6593.93 18699.9 -42100.5 -7.41273 
48 1 6.44131 3.59893 7.5 6.0492 5786.73 9760.37 -39294.3 -4006.96 24607.1 -47181.2 -7.4132 
49 1 7.86117 3.57893 7.5 6.0492 12121.8 2852.66 -38531.3 9024.3 20936.3 -42336.7 -7.41327 
50 1 8.55379 2.3393 7.5 6.0492 7436.78 6466.3 -31170.3 -6122.21 15263.9 -52329.1 -7.41362 
124 1 0.0692614 4.91854 7.5 6.04911 3369.95 14935.3 -54081.5 -196.055 41399.9 728.931 -7.41246 
125 1 1.48912 4.89854 7.5 6.04915 12612.2 5727.13 -51975.7 2213.28 43343.4 -12603.8 -7.41255 
126 1 2.21637 6.11818 7.5 6.04915 1439.46 15493.5 -46816.1 -1029.05 43809 -16357 -7.41283 
127 1 3.63622 6.09819 7.5 6.0492 12469.6 3696.62 -43099.4 5297.92 46059 -24486.8 -7.41302 
128 1 4.32884 4.85855 7.5 6.0492 3742.14 12990.1 -45074.1 -2249.81 35004.8 -34061.1 -7.41291 
129 1 5.7487 4.83856 7.5 6.0492 12506.2 3452.04 -42990.4 7544.26 34521.4 -36132.2 -7.41303 
130 1 6.47594 6.0582 7.5 6.0492 1861.76 12002.8 -30981.3 -3102.86 32282 -40258 -7.41363 
131 1 7.8958 6.0382 7.5 6.0492 12641.5 1442.23 -33358.4 9722.46 30717.8 -33777.3 -7.41354 
132 1 8.58842 4.79857 7.5 6.0492 3918.96 8782.32 -23972.4 -4932.96 23576.6 -46991.8 -7.41398 
206 1 0.103892 7.3778 7.5 6.04911 -978.547 16687.8 -43900 -281.132 48450.6 1400.34 -7.41299 
207 1 1.52375 7.35781 7.5 6.04915 12176.5 3228.08 -38913 2416.42 52916.1 -10833.8 -7.41322 
208 1 2.251 8.57745 7.5 6.04915 -2511.31 17170.1 -36703.4 -884.149 44820.5 -12174 -7.41336 
209 1 3.67086 8.55745 7.5 6.0492 12128.2 1524.48 -30156.8 5427.07 50002.2 -18384.7 -7.41367 
210 1 4.36347 7.31782 7.5 6.0492 -371.318 14973.4 -35608.2 -1743.05 40163.2 -27498.9 -7.4134 
211 1 5.78333 7.29783 7.5 6.0492 12484.9 1652.91 -33538.1 7943.48 42228.9 -27850 -7.41352 
212 1 6.51057 8.51747 7.5 6.0492 -1666.76 14111 -22515.1 -2634.84 31537.9 -31362.8 -7.41407 
213 1 7.93043 8.49747 7.5 6.0492 12883.9 326.514 -25773.1 9720.92 33077.4 -23328.2 -7.41392 
214 1 8.62305 7.25784 7.5 6.0492 402.181 11137.8 -16117.9 -4164.36 25312.3 -38589.4 -7.41438 
6 1 10.6663 1.07968 7.5 6.0492 8679.14 3839.71 -22965.9 -8225.46 8839.63 -48462.1 -7.41404 
7 1 12.0861 1.05968 7.5 6.0492 10025.8 2561.1 -21143.5 10215.1 -2199.47 -34125.9 -7.41415 
8 1 14.9258 1.0197 7.5 6.0492 8200.02 3570.75 -7047.53 -10203.1 9906.17 -25001.2 -7.41484 
9 1 16.3457 0.999702 7.5 6.0492 9584.89 4132.7 -10522.6 10971.6 -9153.5 -10146.8 -7.41466 
10 1 19.1854 0.959714 7.5 6.0492 8164.17 5765.27 -1156.72 -10627.1 13819.7 -4769.84 -7.4151 
51 1 9.97365 2.31931 7.5 6.0492 11274.7 2407.52 -30713.4 9833.24 8037.02 -41434.1 -7.41367 
52 1 10.7009 3.53895 7.5 6.0492 5619.51 5962.92 -16419.9 -6984.39 16263.6 -45932.9 -7.41436 
53 1 12.1207 3.51895 7.5 6.0492 11792.3 1621.01 -24099.2 11108.2 6277.71 -28896.7 -7.41401 
54 1 12.8134 2.27932 7.5 6.0492 7005.02 4135.07 -10289.3 -8869.98 11670.3 -37676.5 -7.41467 
55 1 14.2332 2.25933 7.5 6.0492 10803.2 2607.97 -17292.1 11114.5 -2854.07 -19834.7 -7.41434 
56 1 14.9605 3.47896 7.5 6.0492 5412.46 5131.95 750.959 -9539 12703.9 -24936.5 -7.41522 
57 1 16.3803 3.45897 7.5 6.0492 11799.4 3882.7 -17132.4 11098.8 -5129.04 -6892.7 -7.41434 
58 1 17.0729 2.21934 7.5 6.0492 6752.85 5095.72 1263.12 -10481.8 12787.6 -13807 -7.41524 
59 1 18.4928 2.19935 7.5 6.0492 10850.4 5565.84 -12679.1 10686.5 -10062.9 -869.423 -7.41453 
60 1 19.22 3.41898 7.5 6.0492 5406.76 6462.44 8273.7 -10636.6 16104.9 -7275.53 -7.41558 
133 1 10.0083 4.77858 7.5 6.0492 12432.4 1293.29 -29880.6 10725.9 17957.8 -34163 -7.41372 
134 1 10.7355 5.99822 7.5 6.0492 2324.2 8323.8 -9024.79 -6035.33 19156.3 -39770.1 -7.41473 
135 1 12.1554 5.97822 7.5 6.0492 13019.9 1204.29 -24696.7 11430 11497.7 -21295.8 -7.41399 
136 1 12.848 4.73859 7.5 6.0492 3993.44 6213.8 -2921.11 -7950.92 14713.3 -34642.7 -7.41504 
137 1 14.2679 4.7186 7.5 6.0492 12564.7 2316.66 -21313.5 11406.2 2009.71 -14646.2 -7.41415 
138 1 14.9951 5.93823 7.5 6.0492 2620.43 7022.73 8250.24 -8972.19 12864.9 -23063.4 -7.41559 
139 1 16.415 5.91824 7.5 6.0492 13614.8 4120.58 -22074.3 10832.3 -2347.97 -3284.24 -7.41409 
140 1 17.1076 4.67861 7.5 6.0492 4014.85 6416.16 9727.94 -10154.2 13863.4 -14702.5 -7.41566 
141 1 18.5274 4.65861 7.5 6.0492 13056.8 5766.68 -19711 10337.9 -6932.21 972.412 -7.41418 
142 1 19.2547 5.87825 7.5 6.0492 2784.82 7394.69 17197.3 -10520.4 16618.3 -10156.9 -7.41604 
215 1 10.0429 7.23785 7.5 6.0492 13118.6 599.096 -26446.3 10932.9 22447.4 -24520 -7.4139 
216 1 10.7702 8.45748 7.5 6.0492 -585.418 10704.2 -2490.85 -5509 16695.6 -31808.7 -7.41506 
217 1 12.19 8.43749 7.5 6.0492 13959.5 1197.9 -23397.2 11087.7 12464.7 -12580.6 -7.41405 
218 1 12.8826 7.19786 7.5 6.0492 1110.7 8485.48 3900.04 -7316.67 13844.2 -29501 -7.41538 
219 1 14.3025 7.17786 7.5 6.0492 13938.2 2510.39 -23442.6 11151.1 4215.57 -8516.39 -7.41404 
220 1 15.0297 8.3975 7.5 6.0492 205.551 8991.19 14253 -8584.55 10136 -20663.2 -7.4159 
221 1 16.4496 8.37751 7.5 6.0492 15053.2 4693.4 -25226.7 10184.3 -1269.53 -20.36 -7.41392 
222 1 17.1422 7.13788 7.5 6.0492 1506.6 7924.29 17137.2 -9840.53 12715 -15352 -7.41604 
223 1 18.5621 7.11788 7.5 6.0492 14838.1 6287.03 -24954.3 9738.99 -4674.82 2004.29 -7.41391 
224 1 19.2893 8.33752 7.5 6.0492 540.92 8359.54 24711.9 -10287 15268.6 -13872.9 -7.41643 
11 1 20.6053 0.93972 7.5 6.0492 9807.91 6893.36 -7979.62 10245.5 -13719.4 1077.49 -7.41475 
12 1 23.445 0.899732 7.5 6.0492 8761.15 6840.5 184.625 -9477.72 19343.9 -4188.93 -7.41514 
13 1 24.8649 0.879738 7.5 6.0492 10684.3 7162.53 -6321.43 8588.98 -16065.7 -7555.98 -7.41479 
14 1 27.7046 0.83975 7.5 6.0492 9863.15 4588.33 4859.17 -7323.23 24454.4 -19521.7 -7.41537 
61 1 20.6399 3.39899 7.5 6.0492 12334.9 7068.74 -16482 9794.44 -10061.9 2231.75 -7.41431 
62 1 21.3325 2.15936 7.5 6.0492 6971.81 6767.91 4643.07 -10366.4 18348.6 -3316.48 -7.41538 
63 1 22.7524 2.13936 7.5 6.0492 11536.9 7618.05 -12170.7 9226.76 -12758.1 -660.678 -7.41451 
64 1 23.4796 3.359 7.5 6.0492 5829.65 6766.8 11156.6 -9828.22 24129.9 -7855.03 -7.41571 
65 1 24.8995 3.33901 7.5 6.0492 13297.7 7485.59 -15157.6 8101.96 -9857.94 -7394.01 -7.41434 
66 1 25.5921 2.09938 7.5 6.0492 7756.3 5980.42 7408.93 -8677.27 25494.7 -12331 -7.41551 
67 1 27.012 2.07938 7.5 6.0492 12628.2 6044.61 -8206.01 7430.32 -12884 -15914 -7.41469 
68 1 27.7392 3.29902 7.5 6.0492 6717.99 4161.55 16899.2 -7594.63 32243.3 -22559.9 -7.41601 
143 1 20.6745 5.85826 7.5 6.0492 14432.4 7483.82 -23262.1 9213.63 -6673.34 1992.23 -7.41397 
144 1 21.3672 4.61863 7.5 6.0492 4194.25 7133.56 14862.1 -10504 20832.3 -7192.33 -7.41591 
145 1 22.787 4.59863 7.5 6.0492 13909.1 7952.23 -20078.7 8674.25 -8063.4 -1105.4 -7.4141 
146 1 23.5143 5.81827 7.5 6.0492 3057.02 6770.09 22244.5 -9936.87 26959.3 -13077.6 -7.4163 
147 1 24.9341 5.79827 7.5 6.0492 15307.2 7776.85 -21862.8 7731.83 -4023.12 -9099.53 -7.41399 
148 1 25.6267 4.55864 7.5 6.0492 4738.1 5683.79 19382.6 -8923.77 30810.7 -16713.8 -7.41615 
149 1 27.0466 4.53865 7.5 6.0492 14843.6 6322.42 -15774.6 7204.16 -5331.16 -16620 -7.4143 
150 1 27.7738 5.75829 7.5 6.0492 3646.8 3732.55 30006.8 -7659.23 37283.7 -26923.7 -7.41671 
225 1 20.7092 8.31752 7.5 6.0492 15988 7998.05 -27990.5 8604.81 -3890.48 361.322 -7.41372 
226 1 21.4018 7.07789 7.5 6.0492 1696.21 7581.91 24370.7 -10427.5 21416.2 -12265.7 -7.41641 
227 1 22.8216 7.0579 7.5 6.0492 15701.4 8327.89 -25891.9 8179.68 -3838.01 -3240.14 -7.4138 
228 1 23.5489 8.27754 7.5 6.0492 670.105 6747.54 32627.9 -9751.61 27548.2 -19661.3 -7.41686 
229 1 24.9687 8.25754 7.5 6.0492 16581 7935.65 -26281.2 7606.25 877.66 -12173.2 -7.41376 
230 1 25.6614 7.01791 7.5 6.0492 1988.58 5385.89 31526.1 -8885.75 33511.4 -22528.1 -7.4168 
231 1 27.0812 6.99792 7.5 6.0492 16270 6453.21 -21038.4 7251.76 1081 -18659.5 -7.41403 
232 1 27.8085 8.21755 7.5 6.0492 958.492 3281.47 43346.6 -7427.53 38941.9 -32156 -7.41744 
15 1 29.1244 0.819756 7.5 6.0492 11869.1 3820.24 946.744 6609.81 -17475.8 -24883.1 -7.41516 
16 1 31.9641 0.779768 7.5 6.0492 11086.3 -12.8028 16018.3 -4927.8 27729.9 -34535.9 -7.41596 
17 1 33.384 0.759774 7.5 6.0492 12908.6 -1198.65 14293.1 4677.3 -19055.6 -34527.8 -7.41588 
18 1 36.2237 0.719786 7.5 6.0492 12051 -4460.04 30331.2 -2781.27 28994.8 -35691.6 -7.41673 
19 1 37.6436 0.699792 7.5 6.0492 13549 -5335.69 28656.1 2851.36 -20975.9 -27867.6 -7.41665 
69 1 29.1591 3.27902 7.5 6.0492 14299.6 4134.86 -7579.68 6529.26 -8318.85 -24484.7 -7.41472 
70 1 29.8517 2.03939 7.5 6.0492 8912.47 2215.67 15656 -6192.96 31084.1 -29136.1 -7.41594 
71 1 31.2715 2.0194 7.5 6.0492 13671.3 1503.24 2575.91 5674.96 -13042.3 -30992.2 -7.41525 
72 1 31.9988 3.23904 7.5 6.0492 7850.19 -366.193 28593.4 -4919.8 37101.7 -35905.7 -7.41663 
73 1 33.4186 3.21904 7.5 6.0492 14938.6 -888.287 5868.49 5041.24 -8429.01 -33419.2 -7.41544 
74 1 34.1113 1.97941 7.5 6.0492 10070.6 -2519.2 29218.2 -3740.91 33707.1 -37546 -7.41666 
75 1 35.5311 1.95942 7.5 6.0492 14329.1 -3337.34 17223.2 3955.71 -14478.2 -32636.7 -7.41605 
76 1 36.2584 3.17905 7.5 6.0492 8886.59 -4549.21 43083.7 -2588.77 38316.7 -35470.2 -7.41739 
77 1 37.6782 3.15906 7.5 6.0492 15133.3 -4961.63 19898.9 3323.4 -10504.7 -26454.6 -7.41621 
78 1 38.3708 1.91943 7.5 6.0492 10912.5 -6057.9 42682.1 -1728.89 33970.4 -29569.3 -7.41737 
151 1 29.1937 5.73829 7.5 6.0492 15885.7 4314.75 -13768.6 6730.46 -302.225 -25237.8 -7.4144 
152 1 29.8863 4.49866 7.5 6.0492 5650.06 1784.49 28868.4 -6272.13 38455.7 -31866.2 -7.41665 
153 1 31.3062 4.47867 7.5 6.0492 15450.9 1760.73 -4665.36 5990.23 -3529.94 -30609.9 -7.41488 
154 1 32.0334 5.6983 7.5 6.0492 4528.8 -669.881 43026.5 -4827.77 42879.8 -37578.7 -7.4174 
155 1 33.4533 5.67831 7.5 6.0492 15902.4 -593.213 -489.939 5731.72 167.444 -32453.3 -7.41512 
156 1 34.1459 4.43868 7.5 6.0492 6699.69 -2694.14 43049.1 -3619.07 41461.4 -37982.5 -7.41739 
157 1 35.5657 4.41869 7.5 6.0492 15547.5 -2953.26 9679.54 4575.67 -4739.32 -31251.2 -7.41567 
158 1 36.293 5.63832 7.5 6.0492 5453.16 -4453.82 58115.5 -2417.69 43520.3 -34740.3 -7.41819 
159 1 37.7128 5.61833 7.5 6.0492 15498.6 -4366.36 12645.6 4038.65 -2677.4 -24784.7 -7.41585 
160 1 38.4055 4.3787 7.5 6.0492 7566.33 -5897.79 56689.4 -1569.28 41129.7 -28509.7 -7.41811 
233 1 29.2283 8.19756 7.5 6.0492 16582.5 4297.7 -17893.3 7299.81 5652.21 -26476.5 -7.4142 
234 1 29.9209 6.95793 7.5 6.0492 2583.86 1368.45 43182.7 -6142.78 42118.1 -35245.5 -7.41742 
235 1 31.3408 6.93794 7.5 6.0492 16252.3 1899.26 -9875.4 6662.74 3737.08 -30550.2 -7.41462 
236 1 32.068 8.15757 7.5 6.0492 1554.92 -914.057 58488.7 -4550.31 44103.1 -39187.6 -7.41824 
237 1 33.4879 8.13758 7.5 6.0492 15903.1 -341.969 -5563.84 6772.48 5497.65 -31056.1 -7.41487 
238 1 34.1805 6.89795 7.5 6.0492 3407.2 -2749.13 58635.2 -3416.47 44609.1 -38125.7 -7.41823 
239 1 35.6004 6.87795 7.5 6.0492 15665.6 -2472.9 3453.77 5504.84 1793.32 -29479.1 -7.41536 
240 1 36.3276 8.09759 7.5 6.0492 2301.68 -4181.27 74666.1 -2179.29 43412.4 -33389.8 -7.41908 
241 1 37.7475 8.0776 7.5 6.0492 14895.9 -3553.76 5691.64 4980.71 1063.9 -22493.6 -7.41551 
242 1 38.4401 6.83797 7.5 6.0492 4174.1 -5490.34 72768.7 -1412.11 43245.9 -26843.2 -7.41896 
316 1 29.9556 9.4172 7.5 6.0492 29.7898 955.544 57710.7 -5744.43 41727.4 -38754.7 -7.41821 
317 1 31.3754 9.3972 7.5 6.0492 16213 1876 -13692.7 7694.98 8093.84 -30092 -7.41443 
320 1 34.2151 9.35722 7.5 6.0492 637.707 -2694.09 75039 -3068.68 42703.2 -37690.3 -7.41912 
321 1 35.635 9.33722 7.5 6.0492 15008 -1917.51 -2534.32 6692.22 4382.19 -26799.6 -7.41506 
324 1 38.4747 9.29723 7.5 6.0492 1287.4 -4878.57 89997.5 -1206.66 39818.8 -24581.4 -7.41989 
20 1 40.4833 0.659804 7.5 6.0492 12582.6 -7090.35 41253.5 -958.32 28892 -20512.6 -7.41731 
21 1 41.9032 0.63981 7.5 6.0492 13808.4 -7384.06 37535.5 1057.1 -22692 -7406.34 -7.41713 
22 1 44.7429 0.599821 7.5 6.0492 12696.6 -7568.65 43506.3 698.956 28060.8 3809.3 -7.41743 
23 1 46.1627 0.579827 7.5 6.0492 13788.1 -7257.43 36903.6 -748.265 -23634.7 17139.8 -7.4171 
79 1 39.7907 1.89943 7.5 6.0492 14594.5 -6471.51 29401.4 2114.15 -16628.7 -18225.2 -7.41671 
80 1 40.5179 3.11907 7.5 6.0492 9552.4 -6971.15 53994.7 -826.342 37665.1 -19462.9 -7.41797 
81 1 41.9378 3.09908 7.5 6.0492 15133.8 -6945.75 28365.4 1230.35 -12809.4 -6433.91 -7.41668 
82 1 42.6304 1.85945 7.5 6.0492 11297.9 -7553.52 49673.8 -102.343 33272.3 -8276.93 -7.41775 
83 1 44.0503 1.83945 7.5 6.0492 14662 -7415.74 33646.8 131.21 -18176.1 5438.48 -7.41694 
84 1 44.7775 3.05909 7.5 6.0492 9719.97 -7404.66 56113.6 605.59 36941.9 4993.73 -7.41808 
85 1 46.1974 3.0391 7.5 6.0492 15188.2 -6830.6 27637.4 -1016.77 -13600.9 17266.2 -7.41664 
86 1 46.89 1.79946 7.5 6.0492 11206.7 -6988.17 46756.8 1420.9 32415.1 16453.2 -7.41759 
87 1 48.3098 1.77947 7.5 6.0492 14608.2 -6213.92 28120.1 -1850.25 -18370.9 27241.9 -7.41664 
161 1 39.8253 4.3587 7.5 6.0492 15365.7 -5901.54 21197.7 2559.88 -7610.35 -16907 -7.4163 
162 1 40.5526 5.57834 7.5 6.0492 6110.1 -6541.35 69147.9 -738.214 42214.9 -17887.9 -7.41876 
163 1 41.9724 5.55835 7.5 6.0492 15171.8 -6118.06 20301.5 1465.35 -5751.35 -5623.73 -7.41628 
164 1 42.665 4.31871 7.5 6.0492 8005.38 -7215.65 63619.6 -92.2609 40177.4 -6937.23 -7.41847 
165 1 44.0849 4.29872 7.5 6.0492 15317.2 -6777.69 25086.8 59.9212 -9433.04 5743.57 -7.41652 
166 1 44.8121 5.51836 7.5 6.0492 6285.46 -6902.53 71150.7 510.73 41823.6 6143.5 -7.41886 
167 1 46.232 5.49836 7.5 6.0492 15318.1 -6044.66 19573.8 -1429.45 -6175.3 16574.5 -7.41624 
168 1 46.9246 4.25873 7.5 6.0492 7907.82 -6710.04 60519.5 1238.35 40022.1 17514.4 -7.41831 
169 1 48.3445 4.23874 7.5 6.0492 15539.7 -5682.62 19790.6 -2376.53 -8834.24 26530.4 -7.41623 
243 1 39.86 6.81797 7.5 6.0492 14980.6 -4997.87 13600.8 3159.5 -2314.72 -15349.1 -7.41593 
244 1 40.5872 8.03761 7.5 6.0492 2883.42 -5844.8 86038 -643.509 41199.7 -15926.9 -7.41966 
245 1 42.0071 8.01761 7.5 6.0492 14257 -4893.97 11922.1 1746.18 -3090.04 -4839.58 -7.41586 
246 1 42.6997 6.77798 7.5 6.0492 4590.08 -6560.44 79737.6 -95.2584 42048.8 -5438.84 -7.41932 
247 1 44.1195 6.75799 7.5 6.0492 14806.2 -5727.67 16917.6 -65.0325 -4446.06 5536.25 -7.41612 
248 1 44.8468 7.97763 7.5 6.0492 3039.46 -6117.28 87975.4 408.68 41284.6 6936.21 -7.41976 
249 1 46.2666 7.95763 7.5 6.0492 14493.3 -4896.86 11337.2 -1987.15 -3013.58 14983.4 -7.41583 
250 1 46.9592 6.718 7.5 6.0492 4492.51 -6146.11 76441.1 1056.27 42929.8 18088.7 -7.41915 
251 1 48.3791 6.69801 7.5 6.0492 15332.8 -4876.08 12287.3 -3146.58 -2690.76 24759 -7.41585 
325 1 39.8946 9.27724 7.5 6.0492 13906.3 -3774.24 5240.45 3870.33 -1499.82 -13269.9 -7.41551 
328 1 42.7343 9.23725 7.5 6.0492 1656.3 -5655.86 97135.1 -93.4498 38314.3 -4023.55 -7.42025 
329 1 44.1542 9.21726 7.5 6.0492 13634.9 -4278.7 7693.53 -235.676 -4035.39 4877.21 -7.41565 
332 1 46.9939 9.17727 7.5 6.0492 1553.8 -5357.26 93629.2 853.365 40471.7 17769.1 -7.42007 
333 1 48.4137 9.15727 7.5 6.0492 14413.8 -3817.37 4316.17 -4110.04 -875.705 21764.4 -7.41545 
24 1 49.0025 0.539839 7.5 6.0492 12415.5 -5909.13 35914.8 2377.17 26733.7 25871.5 -7.41703 
25 1 50.4223 0.519845 7.5 6.0492 13454.9 -4946 27147.1 -2596.33 -23586.8 34187.8 -7.41657 
26 1 53.262 0.479857 7.5 6.0492 11708.2 -2122.99 21938.3 4230.66 24888.7 35319.1 -7.41628 
27 1 54.6819 0.459863 7.5 6.0492 12695.9 -656.625 12931.7 -4586.86 -22525.4 35472.3 -7.4158 
28 1 57.5216 0.419875 7.5 6.0492 10615.4 2859.29 7962.96 6323.17 22504.6 28140.6 -7.41553 
88 1 49.0371 2.99911 7.5 6.0492 9362.77 -5866.4 48306.7 2120.6 36408.9 27071.8 -7.41767 
89 1 50.457 2.97911 7.5 6.0492 15225 -4572.58 18074 -3073.18 -12670.2 33661.4 -7.41611 
90 1 51.1496 1.73948 7.5 6.0492 10640.4 -4308.21 35179.1 3139.95 31163 33324.9 -7.41698 
91 1 52.5694 1.71949 7.5 6.0492 14271.6 -2820.7 15400.2 -3746.69 -17462.5 36744.1 -7.41595 
92 1 53.2967 2.93913 7.5 6.0492 8533.59 -2300.94 34086.6 4052.86 34896.5 36940 -7.41691 
93 1 54.7165 2.91913 7.5 6.0492 14929.7 -283.499 3965.98 -4850.49 -11213.1 34764.6 -7.41534 
94 1 55.4091 1.6795 7.5 6.0492 9649.49 199.304 20256.7 5226.2 28795.2 34584.1 -7.41618 
95 1 56.829 1.65951 7.5 6.0492 13476 2039.63 1436.82 -5657.52 -16120.9 29492.2 -7.4152 
96 1 57.5562 2.87914 7.5 6.0492 7414.56 2511.33 19799.6 6435.3 31148.1 30607.8 -7.41616 
170 1 49.0717 5.45838 7.5 6.0492 5921.85 -5575.44 63084.8 1891.52 42509.6 27854.1 -7.41845 
171 1 50.4916 5.43838 7.5 6.0492 15827.2 -4041.99 10719.7 -3836.34 -3865.74 32254.7 -7.41575 
172 1 51.1842 4.19875 7.5 6.0492 7292.96 -4284.62 48667.5 2909.04 39735.4 34558.7 -7.41769 
173 1 52.6041 4.17876 7.5 6.0492 15736.8 -2437.94 7508.74 -4310.83 -6825.2 35839 -7.41555 
174 1 53.3313 5.39839 7.5 6.0492 5128.61 -2381.93 48390.3 3859.12 41878.5 38534.1 -7.41768 
175 1 54.7512 5.3784 7.5 6.0492 16180.6 25.1839 -2765.81 -5425.33 -1356.56 34028.7 -7.415 
176 1 55.4438 4.13877 7.5 6.0492 6313.88 -69.9261 33308.6 5163.36 37194.8 36886.4 -7.41688 
177 1 56.8636 4.11877 7.5 6.0492 15486.8 2377.35 -6392.84 -5811.33 -5579.16 29146.1 -7.41479 
178 1 57.5909 5.33841 7.5 6.0492 4165.55 2157.95 33212.3 6423.51 37380.9 34079 -7.41688 
252 1 49.1064 7.91764 7.5 6.0492 2697.5 -5071.32 79560.1 1631.62 43637.7 27757 -7.41933 
253 1 50.5262 7.89765 7.5 6.0492 15464.7 -3374.63 4002.53 -4899 1172.9 29677.5 -7.41541 
254 1 51.2188 6.65802 7.5 6.0492 3916.37 -4090.94 64149.4 2648.91 44183.9 35215.1 -7.41851 
255 1 52.6387 6.63802 7.5 6.0492 16144.7 -2031.6 1224.22 -5225.98 1082.86 34197.3 -7.41524 
256 1 53.3659 7.85766 7.5 6.0492 2004.05 -2368.97 64070.5 3553.56 44624.4 39516.8 -7.41853 
257 1 54.7858 7.83767 7.5 6.0492 16496.4 221.383 -7884.38 -6375.93 5559.22 32810.9 -7.41475 
258 1 55.4784 6.59804 7.5 6.0492 3075.26 -299.968 47897.5 4974.38 42242 39351.3 -7.41767 
259 1 56.8983 6.57804 7.5 6.0492 16593 2563.17 -12020.6 -6307.39 3102.63 29174.2 -7.41451 
260 1 57.6255 7.79768 7.5 6.0492 1257.47 1796.69 47354.2 6184.02 40349 37908.3 -7.41765 
336 1 51.2535 9.11729 7.5 6.0492 1028.29 -3758.6 80707.4 2304.77 43803.2 34732 -7.41941 
337 1 52.6733 9.09729 7.5 6.0492 15756.1 -1639.3 -4400.62 -6456.94 5253.13 31422.4 -7.41496 
340 1 55.513 9.0573 7.5 6.0492 334.06 -501.77 63100.9 4590.19 43339.6 41274.6 -7.4185 
341 1 56.9329 9.03731 7.5 6.0492 16869.9 2534 -15930.5 -7177.85 9002.52 29022 -7.41431 
29 1 58.9415 0.399881 7.5 6.0492 11555.4 4133.39 884.568 -6772.67 -20372.3 21641.9 -7.41516 
30 1 61.7812 0.359893 7.5 6.0492 9410.45 6689.27 -489.632 8477.24 19580.7 11142.8 -7.41509 
31 1 63.2011 0.339899 7.5 6.0492 10367.6 6826.19 -4672.79 -8911.8 -17083 4813.38 -7.41488 
32 1 66.0408 0.299911 7.5 6.0492 8528.84 7194.59 -3052.96 10188.9 16064.9 141.913 -7.41499 
33 1 67.4606 0.279917 7.5 6.0492 9580.18 5964.31 -5576.21 -10412.3 -12933.1 1917.79 -7.41487 
97 1 58.9761 2.85915 7.5 6.0492 14126.4 4546.58 -8271.84 -6563.07 -10441.5 20938.4 -7.41469 
98 1 59.6687 1.61952 7.5 6.0492 8450.58 4922.09 8466.22 7560.86 24948.2 21233.5 -7.41556 
99 1 61.0886 1.59952 7.5 6.0492 12333.6 6100.77 -7655.3 -7666.57 -14621.5 11881.5 -7.41472 
100 1 61.8158 2.81916 7.5 6.0492 6341.46 6432.53 10756.1 8827.29 25215.5 14360.7 -7.41569 
101 1 63.2357 2.79917 7.5 6.0492 13034.7 7165.35 -13981.3 -8375.95 -10254.9 3728.19 -7.4144 
102 1 63.9283 1.55954 7.5 6.0492 7431.04 7362.09 3035.5 9626.47 20094.8 5247.26 -7.41529 
103 1 65.3482 1.53954 7.5 6.0492 11261.9 6888.77 -10075.1 -9544.09 -12531.4 -158.245 -7.41462 
104 1 66.0754 2.75918 7.5 6.0492 5680.28 7413.92 7072.11 10402.7 18900.4 3354.68 -7.41551 
105 1 67.4953 2.73918 7.5 6.0492 12124.6 5963.69 -14257 -10053.6 -9018.83 -249.167 -7.41443 
179 1 59.0107 5.31842 7.5 6.0492 15954.1 4829.65 -15096.8 -6568.25 -1273.99 21417.3 -7.41434 
180 1 59.7034 4.07879 7.5 6.0492 5266.81 4570.61 20740.1 7746.51 31273.6 24944.9 -7.41621 
181 1 61.1232 4.05879 7.5 6.0492 14695.9 6470.76 -15869.7 -7289.75 -6195.14 11891.3 -7.4143 
182 1 61.8505 5.27843 7.5 6.0492 3360.6 6207.27 22697.1 8959.5 28980.3 19389.1 -7.41632 
183 1 63.2703 5.25844 7.5 6.0492 15187.3 7534.26 -21322.5 -7874.44 -3651.18 4291.14 -7.41403 
184 1 63.9629 4.0188 7.5 6.0492 4494.72 7356.73 14034.7 9861.58 23351.3 9527.83 -7.41587 
185 1 65.3828 3.99881 7.5 6.0492 13693.2 7187.74 -18411.5 -8970.26 -7313.21 -1047.86 -7.4142 
186 1 66.11 5.21845 7.5 6.0492 2946.53 7837.37 17095.4 10405.7 20062.5 7995.24 -7.41603 
187 1 67.5299 5.19845 7.5 6.0492 14277.6 6288.52 -21372.6 -9513.45 -5221.31 -1850.18 -7.41407 
261 1 59.0454 7.77769 7.5 6.0492 16953.9 4906.92 -19712 -6914.37 6002.51 22607.9 -7.4141 
262 1 59.738 6.53805 7.5 6.0492 2288.02 4207.09 33749.4 7698.48 35084.4 29882 -7.41692 
263 1 61.1578 6.51806 7.5 6.0492 16358.4 6726.87 -21812 -7127.5 1257.71 13309.6 -7.41399 
264 1 61.8851 7.7377 7.5 6.0492 747.122 5959.36 34463.1 8799.46 30415 25696.2 -7.41696 
265 1 63.3049 7.7177 7.5 6.0492 16682.7 7833.55 -26433.7 -7547.4 2017.07 6284.35 -7.41376 
266 1 63.9976 6.47807 7.5 6.0492 1807.62 7416.83 24837.4 9841.35 24672.4 15447.9 -7.41644 
267 1 65.4174 6.45808 7.5 6.0492 15615.5 7616.54 -24800.4 -8384.4 -2522.88 -606.118 -7.41387 
268 1 66.1447 7.67772 7.5 6.0492 560.444 8325.78 26111.1 10196.2 19263.6 13908.3 -7.41651 
269 1 67.5645 7.65772 7.5 6.0492 15938 6821.41 -26534.3 -8866.59 -2048.85 -2548.7 -7.41381 
344 1 59.7726 8.99732 7.5 6.0492 -206.742 3794.08 46615.7 7354.04 36042.4 35325.3 -7.41762 
345 1 61.1925 8.97733 7.5 6.0492 17259 6770.36 -25515.6 -7280.79 7081.72 15668 -7.4138 
348 1 64.0322 8.93734 7.5 6.0492 -423.585 7429.09 34614.4 9534.25 23993.4 22555.4 -7.41697 
349 1 65.4521 8.91735 7.5 6.0492 16927.5 8030.68 -29002.6 -7902.48 1487.68 1165.75 -7.41365 
34 1 70.3004 0.239928 7.5 6.0492 8310.23 4913.73 -5689.75 10809.3 11970.6 8228.32 -7.4149 
35 1 71.7202 0.219934 7.5 6.0492 9447.29 3317.78 -9253.73 -10624.4 -8565.78 19761.4 -7.41473 
36 1 74.5599 0.179946 7.5 6.0492 8774.15 3232.87 -16051.1 9911.1 7628.02 31595.7 -7.4144 
37 1 75.9798 0.159952 7.5 6.0492 9866.79 2654.85 -22325.5 -9240.77 -4696.78 44890 -7.41408 
106 1 68.1879 1.49955 7.5 6.0492 6964.14 6475.25 812.895 10674.9 15443.4 2860.36 -7.41521 
107 1 69.6077 1.47956 7.5 6.0492 10693.8 4433.88 -10627.8 -10714.2 -9043.58 7251.89 -7.41464 
108 1 70.335 2.6992 7.5 6.0492 5623.89 5879.4 2743.83 10412.6 14900.3 10443.2 -7.41532 
109 1 71.7548 2.6792 7.5 6.0492 11743.4 2711.34 -15943.4 -10944.3 -4639.05 16137.7 -7.4144 
110 1 72.4475 1.43957 7.5 6.0492 7179.01 4367.88 -5940.5 10171.6 12332.7 20026.1 -7.41489 
111 1 73.8673 1.41958 7.5 6.0492 10762.7 1979.49 -17311.7 -10536.8 -3681.31 31279.9 -7.41434 
112 1 74.5946 2.63921 7.5 6.0492 6085.3 4915.9 -9603.12 8728.23 15044.4 32290.7 -7.41471 
113 1 76.0144 2.61922 7.5 6.0492 11883.4 1327.43 -25773.1 -10298.5 3664.12 40310.1 -7.41392 
114 1 76.707 1.37959 7.5 6.0492 7892.06 4561.98 -22515.2 8149.08 11392.1 42994.1 -7.41407 
188 1 68.2225 3.95882 7.5 6.0492 4218.48 7221.08 10133.8 10546.1 17004.8 6013.47 -7.41568 
189 1 69.6424 3.93883 7.5 6.0492 12933.8 4391.1 -17784.6 -10509.4 -5686.38 4030.78 -7.41428 
190 1 70.3696 5.15846 7.5 6.0492 2927.64 7234.54 10940.8 9933.95 15718.4 12294.2 -7.41573 
191 1 71.7895 5.13847 7.5 6.0492 13586.9 2654.19 -20899.6 -10891.3 -1414.76 10719.5 -7.41415 
192 1 72.4821 3.89884 7.5 6.0492 4409.36 5952.78 1695.26 9348.88 15850.7 20664.5 -7.41527 
193 1 73.9019 3.87885 7.5 6.0492 12628.4 1301.13 -21444.7 -11059.1 1488.81 25408.9 -7.41414 
194 1 74.6292 5.09848 7.5 6.0492 3110.55 7008.05 -2490.88 7643.19 19199.3 30363.2 -7.41506 
195 1 76.049 5.07849 7.5 6.0492 13197.3 519.509 -26446.3 -10885.5 10011.2 31700.1 -7.4139 
196 1 76.7417 3.83886 7.5 6.0492 4850.88 6689.93 -16118 6732.4 20763.3 41215.9 -7.41438 
270 1 68.2571 6.41809 7.5 6.0492 1670.11 8192.63 18678.3 10287.2 16494.3 9892.81 -7.41612 
271 1 69.677 6.3981 7.5 6.0492 14749.5 4767.18 -23193.4 -10020.6 -3005.27 594.114 -7.41401 
272 1 70.4042 7.61773 7.5 6.0492 510.483 8765.66 17844.7 9475.68 13826.2 14199.2 -7.41608 
273 1 71.8241 7.59774 7.5 6.0492 15016.3 3033.49 -23950.7 -10412.6 310.272 4542.27 -7.414 
274 1 72.5167 6.35811 7.5 6.0492 1678.25 7862.28 8817.82 8626.95 16130.4 20074.6 -7.41562 
275 1 73.9366 6.33811 7.5 6.0492 13992.6 1165.44 -23397.2 -11070.1 4662.78 17085.1 -7.41405 
276 1 74.6638 7.55775 7.5 6.0492 301.454 9285.91 3899.98 6853.46 18626.5 26739.9 -7.41538 
277 1 76.0837 7.53776 7.5 6.0492 14055.6 168.688 -24696.7 -10832.1 12693.8 20605.2 -7.41399 
278 1 76.7763 6.29813 7.5 6.0492 1603.57 9053.68 -9024.82 5615.24 24863.8 36475 -7.41473 
352 1 68.2918 8.87736 7.5 6.0492 -448.681 9182.04 25556.6 9921.74 13904.2 14636.7 -7.41648 
353 1 69.7116 8.85736 7.5 6.0492 16121 5388.22 -26676 -9301.04 -1260.58 -2263.92 -7.41382 
356 1 72.5513 8.81738 7.5 6.0492 -633.482 9839.48 14253 8096.44 12826.8 19109.7 -7.41589 
357 1 73.9712 8.79738 7.5 6.0492 15028 1420.55 -23442.6 -10521.9 5267.63 7909.03 -7.41404 
360 1 76.8109 8.75739 7.5 6.0492 -1224.04 11431.5 -2921.16 4938.44 22644.9 30063.5 -7.41504 
38 1 78.8195 0.119964 7.5 6.0492 9624.66 4963.87 -35608.4 7516.94 3733.04 48531.8 -7.4134 
39 1 80.2394 0.0999701 7.5 6.0492 10473.6 5675.41 -43099.6 -6438.85 -1823.43 52131.6 -7.41302 
40 1 83.0791 0.059982 7.5 6.0492 10437.2 8898.08 -56024.5 4030.54 1045.28 37672.2 -7.41235 
41 1 84.4989 0.039988 7.5 6.04915 10863.1 9737.19 -60777.8 -2711.36 -231.667 27938.6 -7.4121 
115 1 78.1269 1.3596 7.5 6.0492 11245.1 2892.74 -33538.2 -8659.91 3004.34 50496.3 -7.41352 
116 1 78.8541 2.57923 7.5 6.0492 6780.29 7084.28 -30981.3 5942.68 18723.5 48086.1 -7.41363 
117 1 80.274 2.55924 7.5 6.0492 12249.3 3708.15 -42990.4 -7690.68 14030.7 47962.6 -7.41303 
118 1 80.9666 1.31961 7.5 6.0492 8732.63 7999.74 -45074.1 5131.04 11995.4 47345.6 -7.41291 
119 1 82.3865 1.29961 7.5 6.0492 11735 6756.42 -53052.4 -5202.68 9198.98 42620.8 -7.41251 
120 1 83.1137 2.51925 7.5 6.0492 7402.66 11163.6 -52641.4 2865.7 22869 37104.5 -7.41252 
121 1 84.5336 2.49926 7.5 6.04915 12490.2 7374.68 -58161.3 -3340.37 22303.2 25726.6 -7.41224 
122 1 85.2262 1.25963 7.5 6.04915 9302.89 11548.5 -61667.5 1704.53 12593 21023.7 -7.41205 
123 1 86.646 1.23963 7.5 6.04911 11705 9318.84 -63778.9 -734.54 12464.4 7013.53 -7.41195 
197 1 78.1615 3.81886 7.5 6.0492 12664.9 1419.98 -33358.4 -9711.18 13893.1 43491.1 -7.41354 
198 1 78.8888 5.0385 7.5 6.0492 3290.74 9401.69 -23972.4 4574 28907.8 43913.8 -7.41398 
199 1 80.3086 5.01851 7.5 6.0492 12984.1 1990.38 -38531.3 -8526.54 26196.6 39299.7 -7.41327 
200 1 81.0012 3.77888 7.5 6.0492 5302.91 10253 -39294.3 3723.81 28556.5 44901 -7.4132 
201 1 82.4211 3.75888 7.5 6.0492 12776.2 4585.36 -48843.9 -6098.2 27110.2 37244.8 -7.41273 
202 1 83.1483 4.97852 7.5 6.0492 3412.19 13324.1 -45171.8 1866.67 38594.4 33962.6 -7.4129 
203 1 84.5682 4.95852 7.5 6.04915 12817.3 4973.08 -49927.6 -3767.86 39792.5 20929.4 -7.41266 
204 1 85.2608 3.71889 7.5 6.04915 5591.64 13728.8 -56057.6 1056.67 33667.9 20137 -7.41234 
205 1 86.6807 3.6989 7.5 6.04911 12570.3 6813.14 -57613.9 -805.649 34690.6 5601.43 -7.41227 
279 1 78.1962 6.27813 7.5 6.0492 13370.7 354.835 -29880.7 -10184.4 20607.1 32633.4 -7.41372 
280 1 78.9234 7.49777 7.5 6.0492 -171.793 11753.7 -16419.9 3640.84 31647.3 37051.1 -7.41436 
281 1 80.3433 7.47777 7.5 6.0492 13141.2 541.236 -30713.4 -8753.37 31864.5 27677.3 -7.41367 
282 1 81.0359 6.23814 7.5 6.0492 1409.86 12493.1 -31170.3 2642.56 37686.4 39383.5 -7.41362 
283 1 82.4557 6.21815 7.5 6.0492 12868.3 2541.48 -40062.8 -6579.55 38594 28623.8 -7.41318 
284 1 83.183 7.43779 7.5 6.0492 -671.179 15303.9 -35858.8 1190.34 44611.5 28816.9 -7.41339 
285 1 84.6028 7.41779 7.5 6.04915 12456.9 2623.73 -37540.1 -3898.33 48476.4 14466.1 -7.4133 
286 1 85.2955 6.17816 7.5 6.04915 1246.25 15676.4 -46912.8 553.184 46018.3 18093.3 -7.41282 
287 1 86.7153 6.15817 7.5 6.04911 12364.9 4261.42 -46213.3 -814.452 49183.1 3367.27 -7.41285 
361 1 78.2308 8.7374 7.5 6.0492 13786.2 -372.647 -24099.3 -9959.02 21886.4 19885 -7.41401 
364 1 81.0705 8.69741 7.5 6.0492 -2063.98 14595.4 -22966 2019.35 37549.6 31886.4 -7.41404 
365 1 82.4904 8.67742 7.5 6.0492 12658.1 662.573 -28402.2 -6539.97 41620.2 18335.3 -7.41377 
368 1 85.3301 8.63743 7.5 6.04915 -2684.61 17350.6 -36887.2 251.556 47336.2 15120.1 -7.41335 
369 1 86.7499 8.61744 7.5 6.04911 11844 1760.63 -31617.4 -747.276 53458.1 873.987 -7.4136 
288 1 0.138523 9.83707 7.5 6.04911 -4370.78 18141.8 -34106.3 -351.191 44507.2 1828.99 -7.41351 
289 1 1.55838 9.81708 7.5 6.04915 11805.6 835.876 -23897.4 2434.54 52226.3 -8501.14 -7.41398 
290 1 2.28563 11.0367 7.5 6.04915 -5051.12 18555.6 -28290.4 -896.926 36307.9 -8157.82 -7.4138 
291 1 3.70549 11.0167 7.5 6.0492 12131.5 -475.181 -16455.9 5155.14 45061.4 -11662 -7.41436 
292 1 4.3981 9.77709 7.5 6.0492 -3585.05 16710.8 -26814.4 -1570.56 35782.5 -20184.6 -7.41386 
293 1 5.81796 9.7571 7.5 6.0492 12482.2 57.2923 -22325.4 7743.72 41224.1 -18377.5 -7.41408 
294 1 6.54521 10.9767 7.5 6.0492 -3962.34 15973.2 -16051 -2558.67 23548.6 -22403.9 -7.4144 
295 1 7.96506 10.9567 7.5 6.0492 13301.5 -558.659 -17311.7 9068.87 28929.8 -12451.8 -7.41434 
296 1 8.65768 9.71711 7.5 6.0492 -2343.84 13354.8 -9603.08 -3857.79 20442.3 -29174.2 -7.41471 