(written by TR)

10088	atoms
1	atom types
0	87.338653	xlo xhi
0	151.274984	ylo yhi
0	18.3999996	zlo zhi


Masses

1	12

Atoms

1 1 1 0 0.00000000 0.00000000 7.50000000 0 0 0
2 1 1 0 2.14710430 1.19964301 7.50000000 0 0 0
3 1 1 0 3.56696343 1.17964896 7.50000000 0 0 0
4 1 1 0 6.40668220 1.13966086 7.50000000 0 0 0
5 1 1 0 7.82654133 1.11966681 7.50000000 0 0 0
6 1 1 0 10.66626009 1.07967870 7.50000000 0 0 0
7 1 1 0 12.08611923 1.05968465 7.50000000 0 0 0
8 1 1 0 14.92583799 1.01969654 7.50000000 0 0 0
9 1 1 0 16.34569712 0.99970249 7.50000000 0 0 0
10 1 1 0 19.18541588 0.95971438 7.50000000 0 0 0
11 1 1 0 20.60527502 0.93972033 7.50000000 0 0 0
12 1 1 0 23.44499378 0.89973223 7.50000000 0 0 0
13 1 1 0 24.86485291 0.87973818 7.50000000 0 0 0
14 1 1 0 27.70457167 0.83975007 7.50000000 0 0 0
15 1 1 0 29.12443081 0.81975602 7.50000000 0 0 0
16 1 1 0 31.96414957 0.77976791 7.50000000 0 0 0
17 1 1 0 33.38400870 0.75977386 7.50000000 0 0 0
18 1 1 0 36.22372746 0.71978576 7.50000000 0 0 0
19 1 1 0 37.64358660 0.69979171 7.50000000 0 0 0
20 1 1 0 40.48330536 0.65980360 7.50000000 0 0 0
21 1 1 0 41.90316449 0.63980955 7.50000000 0 0 0
22 1 1 0 44.74288325 0.59982144 7.50000000 0 0 0
23 1 1 0 46.16274239 0.57982739 7.50000000 0 0 0
24 1 1 0 49.00246115 0.53983928 7.50000000 0 0 0
25 1 1 0 50.42232028 0.51984523 7.50000000 0 0 0
26 1 1 0 53.26203904 0.47985713 7.50000000 0 0 0
27 1 1 0 54.68189818 0.45986308 7.50000000 0 0 0
28 1 1 0 57.52161694 0.41987497 7.50000000 0 0 0
29 1 1 0 58.94147607 0.39988092 7.50000000 0 0 0
30 1 1 0 61.78119484 0.35989281 7.50000000 0 0 0
31 1 1 0 63.20105397 0.33989876 7.50000000 0 0 0
32 1 1 0 66.04077273 0.29991066 7.50000000 0 0 0
33 1 1 0 67.46063186 0.27991661 7.50000000 0 0 0
34 1 1 0 70.30035063 0.23992850 7.50000000 0 0 0
35 1 1 0 71.72020976 0.21993445 7.50000000 0 0 0
36 1 1 0 74.55992852 0.17994634 7.50000000 0 0 0
37 1 1 0 75.97978765 0.15995229 7.50000000 0 0 0
38 1 1 0 78.81950642 0.11996418 7.50000000 0 0 0
39 1 1 0 80.23936555 0.09997013 7.50000000 0 0 0
40 1 1 0 83.07908431 0.05998203 7.50000000 0 0 0
41 1 1 0 84.49894344 0.03998798 7.50000000 0 0 0
42 1 1 0 0.03463071 2.45926818 7.50000000 0 0 0
43 1 1 0 1.45448994 2.43927413 7.50000000 0 0 0
44 1 1 0 2.18173501 3.65891119 7.50000000 0 0 0
45 1 1 0 3.60159415 3.63891714 7.50000000 0 0 0
46 1 1 0 4.29420861 2.39928603 7.50000000 0 0 0
47 1 1 0 5.71406784 2.37929197 7.50000000 0 0 0
48 1 1 0 6.44131291 3.59892904 7.50000000 0 0 0
49 1 1 0 7.86117204 3.57893499 7.50000000 0 0 0
50 1 1 0 8.55378650 2.33930387 7.50000000 0 0 0
51 1 1 0 9.97364573 2.31930982 7.50000000 0 0 0
52 1 1 0 10.70089080 3.53894688 7.50000000 0 0 0
53 1 1 0 12.12074994 3.51895283 7.50000000 0 0 0
54 1 1 0 12.81336440 2.27932171 7.50000000 0 0 0
55 1 1 0 14.23322363 2.25932766 7.50000000 0 0 0
56 1 1 0 14.96046870 3.47896472 7.50000000 0 0 0
57 1 1 0 16.38032783 3.45897067 7.50000000 0 0 0
58 1 1 0 17.07294229 2.21933955 7.50000000 0 0 0
59 1 1 0 18.49280152 2.19934550 7.50000000 0 0 0
60 1 1 0 19.22004659 3.41898257 7.50000000 0 0 0
61 1 1 0 20.63990573 3.39898852 7.50000000 0 0 0
62 1 1 0 21.33252019 2.15935740 7.50000000 0 0 0
63 1 1 0 22.75237942 2.13936335 7.50000000 0 0 0
64 1 1 0 23.47962449 3.35900041 7.50000000 0 0 0
65 1 1 0 24.89948362 3.33900636 7.50000000 0 0 0
66 1 1 0 25.59209808 2.09937524 7.50000000 0 0 0
67 1 1 0 27.01195731 2.07938119 7.50000000 0 0 0
68 1 1 0 27.73920238 3.29901825 7.50000000 0 0 0
69 1 1 0 29.15906152 3.27902420 7.50000000 0 0 0
70 1 1 0 29.85167598 2.03939308 7.50000000 0 0 0
71 1 1 0 31.27153521 2.01939903 7.50000000 0 0 0
72 1 1 0 31.99878028 3.23903609 7.50000000 0 0 0
73 1 1 0 33.41863941 3.21904204 7.50000000 0 0 0
74 1 1 0 34.11125387 1.97941093 7.50000000 0 0 0
75 1 1 0 35.53111310 1.95941687 7.50000000 0 0 0
76 1 1 0 36.25835818 3.17905394 7.50000000 0 0 0
77 1 1 0 37.67821731 3.15905989 7.50000000 0 0 0
78 1 1 0 38.37083177 1.91942877 7.50000000 0 0 0
79 1 1 0 39.79069100 1.89943472 7.50000000 0 0 0
80 1 1 0 40.51793607 3.11907178 7.50000000 0 0 0
81 1 1 0 41.93779520 3.09907773 7.50000000 0 0 0
82 1 1 0 42.63040966 1.85944661 7.50000000 0 0 0
83 1 1 0 44.05026889 1.83945256 7.50000000 0 0 0
84 1 1 0 44.77751397 3.05908962 7.50000000 0 0 0
85 1 1 0 46.19737310 3.03909557 7.50000000 0 0 0
86 1 1 0 46.88998756 1.79946445 7.50000000 0 0 0
87 1 1 0 48.30984679 1.77947040 7.50000000 0 0 0
88 1 1 0 49.03709186 2.99910747 7.50000000 0 0 0
89 1 1 0 50.45695099 2.97911342 7.50000000 0 0 0
90 1 1 0 51.14956545 1.73948230 7.50000000 0 0 0
91 1 1 0 52.56942468 1.71948825 7.50000000 0 0 0
92 1 1 0 53.29666976 2.93912531 7.50000000 0 0 0
93 1 1 0 54.71652889 2.91913126 7.50000000 0 0 0
94 1 1 0 55.40914335 1.67950014 7.50000000 0 0 0
95 1 1 0 56.82900258 1.65950609 7.50000000 0 0 0
96 1 1 0 57.55624765 2.87914315 7.50000000 0 0 0
97 1 1 0 58.97610678 2.85914910 7.50000000 0 0 0
98 1 1 0 59.66872124 1.61951798 7.50000000 0 0 0
99 1 1 0 61.08858047 1.59952393 7.50000000 0 0 0
100 1 1 0 61.81582555 2.81916099 7.50000000 0 0 0
101 1 1 0 63.23568468 2.79916694 7.50000000 0 0 0
102 1 1 0 63.92829914 1.55953583 7.50000000 0 0 0
103 1 1 0 65.34815837 1.53954177 7.50000000 0 0 0
104 1 1 0 66.07540344 2.75917884 7.50000000 0 0 0
105 1 1 0 67.49526257 2.73918479 7.50000000 0 0 0
106 1 1 0 68.18787703 1.49955367 7.50000000 0 0 0
107 1 1 0 69.60773626 1.47955962 7.50000000 0 0 0
108 1 1 0 70.33498134 2.69919668 7.50000000 0 0 0
109 1 1 0 71.75484047 2.67920263 7.50000000 0 0 0
110 1 1 0 72.44745493 1.43957151 7.50000000 0 0 0
111 1 1 0 73.86731416 1.41957746 7.50000000 0 0 0
112 1 1 0 74.59455923 2.63921452 7.50000000 0 0 0
113 1 1 0 76.01441836 2.61922047 7.50000000 0 0 0
114 1 1 0 76.70703282 1.37958935 7.50000000 0 0 0
115 1 1 0 78.12689206 1.35959530 7.50000000 0 0 0
116 1 1 0 78.85413713 2.57923237 7.50000000 0 0 0
117 1 1 0 80.27399626 2.55923832 7.50000000 0 0 0
118 1 1 0 80.96661072 1.31960720 7.50000000 0 0 0
119 1 1 0 82.38646995 1.29961315 7.50000000 0 0 0
120 1 1 0 83.11371502 2.51925021 7.50000000 0 0 0
121 1 1 0 84.53357415 2.49925616 7.50000000 0 0 0
122 1 1 0 85.22618861 1.25962504 7.50000000 0 0 0
123 1 1 0 86.64604785 1.23963099 7.50000000 0 0 0
124 1 1 0 0.06926142 4.91853636 7.50000000 0 0 0
125 1 1 0 1.48912065 4.89854231 7.50000000 0 0 0
126 1 1 0 2.21636572 6.11817938 7.50000000 0 0 0
127 1 1 0 3.63622486 6.09818533 7.50000000 0 0 0
128 1 1 0 4.32883932 4.85855421 7.50000000 0 0 0
129 1 1 0 5.74869855 4.83856016 7.50000000 0 0 0
130 1 1 0 6.47594362 6.05819722 7.50000000 0 0 0
131 1 1 0 7.89580275 6.03820317 7.50000000 0 0 0
132 1 1 0 8.58841721 4.79857205 7.50000000 0 0 0
133 1 1 0 10.00827644 4.77857800 7.50000000 0 0 0
134 1 1 0 10.73552152 5.99821506 7.50000000 0 0 0
135 1 1 0 12.15538065 5.97822101 7.50000000 0 0 0
136 1 1 0 12.84799511 4.73858989 7.50000000 0 0 0
137 1 1 0 14.26785434 4.71859584 7.50000000 0 0 0
138 1 1 0 14.99509941 5.93823291 7.50000000 0 0 0
139 1 1 0 16.41495854 5.91823886 7.50000000 0 0 0
140 1 1 0 17.10757300 4.67860774 7.50000000 0 0 0
141 1 1 0 18.52743223 4.65861368 7.50000000 0 0 0
142 1 1 0 19.25467731 5.87825075 7.50000000 0 0 0
143 1 1 0 20.67453644 5.85825670 7.50000000 0 0 0
144 1 1 0 21.36715090 4.61862558 7.50000000 0 0 0
145 1 1 0 22.78701013 4.59863153 7.50000000 0 0 0
146 1 1 0 23.51425520 5.81826859 7.50000000 0 0 0
147 1 1 0 24.93411433 5.79827454 7.50000000 0 0 0
148 1 1 0 25.62672879 4.55864342 7.50000000 0 0 0
149 1 1 0 27.04658802 4.53864937 7.50000000 0 0 0
150 1 1 0 27.77383310 5.75828643 7.50000000 0 0 0
151 1 1 0 29.19369223 5.73829238 7.50000000 0 0 0
152 1 1 0 29.88630669 4.49866126 7.50000000 0 0 0
153 1 1 0 31.30616592 4.47866721 7.50000000 0 0 0
154 1 1 0 32.03341099 5.69830428 7.50000000 0 0 0
155 1 1 0 33.45327012 5.67831023 7.50000000 0 0 0
156 1 1 0 34.14588458 4.43867911 7.50000000 0 0 0
157 1 1 0 35.56574381 4.41868506 7.50000000 0 0 0
158 1 1 0 36.29298889 5.63832212 7.50000000 0 0 0
159 1 1 0 37.71284802 5.61832807 7.50000000 0 0 0
160 1 1 0 38.40546248 4.37869695 7.50000000 0 0 0
161 1 1 0 39.82532171 4.35870290 7.50000000 0 0 0
162 1 1 0 40.55256678 5.57833996 7.50000000 0 0 0
163 1 1 0 41.97242591 5.55834591 7.50000000 0 0 0
164 1 1 0 42.66504037 4.31871479 7.50000000 0 0 0
165 1 1 0 44.08489960 4.29872074 7.50000000 0 0 0
166 1 1 0 44.81214468 5.51835781 7.50000000 0 0 0
167 1 1 0 46.23200381 5.49836376 7.50000000 0 0 0
168 1 1 0 46.92461827 4.25873264 7.50000000 0 0 0
169 1 1 0 48.34447750 4.23873858 7.50000000 0 0 0
170 1 1 0 49.07172257 5.45837565 7.50000000 0 0 0
171 1 1 0 50.49158170 5.43838160 7.50000000 0 0 0
172 1 1 0 51.18419616 4.19875048 7.50000000 0 0 0
173 1 1 0 52.60405540 4.17875643 7.50000000 0 0 0
174 1 1 0 53.33130047 5.39839349 7.50000000 0 0 0
175 1 1 0 54.75115960 5.37839944 7.50000000 0 0 0
176 1 1 0 55.44377406 4.13876832 7.50000000 0 0 0
177 1 1 0 56.86363329 4.11877427 7.50000000 0 0 0
178 1 1 0 57.59087836 5.33841133 7.50000000 0 0 0
179 1 1 0 59.01073749 5.31841728 7.50000000 0 0 0
180 1 1 0 59.70335195 4.07878616 7.50000000 0 0 0
181 1 1 0 61.12321119 4.05879211 7.50000000 0 0 0
182 1 1 0 61.85045626 5.27842918 7.50000000 0 0 0
183 1 1 0 63.27031539 5.25843513 7.50000000 0 0 0
184 1 1 0 63.96292985 4.01880401 7.50000000 0 0 0
185 1 1 0 65.38278908 3.99880996 7.50000000 0 0 0
186 1 1 0 66.11003415 5.21844702 7.50000000 0 0 0
187 1 1 0 67.52989328 5.19845297 7.50000000 0 0 0
188 1 1 0 68.22250774 3.95882185 7.50000000 0 0 0
189 1 1 0 69.64236698 3.93882780 7.50000000 0 0 0
190 1 1 0 70.36961205 5.15846486 7.50000000 0 0 0
191 1 1 0 71.78947118 5.13847081 7.50000000 0 0 0
192 1 1 0 72.48208564 3.89883969 7.50000000 0 0 0
193 1 1 0 73.90194487 3.87884564 7.50000000 0 0 0
194 1 1 0 74.62918994 5.09848271 7.50000000 0 0 0
195 1 1 0 76.04904907 5.07848866 7.50000000 0 0 0
196 1 1 0 76.74166353 3.83885754 7.50000000 0 0 0
197 1 1 0 78.16152277 3.81886348 7.50000000 0 0 0
198 1 1 0 78.88876784 5.03850055 7.50000000 0 0 0
199 1 1 0 80.30862697 5.01850650 7.50000000 0 0 0
200 1 1 0 81.00124143 3.77887538 7.50000000 0 0 0
201 1 1 0 82.42110066 3.75888133 7.50000000 0 0 0
202 1 1 0 83.14834573 4.97851839 7.50000000 0 0 0
203 1 1 0 84.56820486 4.95852434 7.50000000 0 0 0
204 1 1 0 85.26081932 3.71889322 7.50000000 0 0 0
205 1 1 0 86.68067856 3.69889917 7.50000000 0 0 0
206 1 1 0 0.10389213 7.37780455 7.50000000 0 0 0
207 1 1 0 1.52375136 7.35781050 7.50000000 0 0 0
208 1 1 0 2.25099644 8.57744756 7.50000000 0 0 0
209 1 1 0 3.67085557 8.55745351 7.50000000 0 0 0
210 1 1 0 4.36347003 7.31782239 7.50000000 0 0 0
211 1 1 0 5.78332926 7.29782834 7.50000000 0 0 0
212 1 1 0 6.51057433 8.51746540 7.50000000 0 0 0
213 1 1 0 7.93043346 8.49747135 7.50000000 0 0 0
214 1 1 0 8.62304792 7.25784023 7.50000000 0 0 0
215 1 1 0 10.04290715 7.23784618 7.50000000 0 0 0
216 1 1 0 10.77015223 8.45748324 7.50000000 0 0 0
217 1 1 0 12.19001136 8.43748919 7.50000000 0 0 0
218 1 1 0 12.88262582 7.19785808 7.50000000 0 0 0
219 1 1 0 14.30248505 7.17786402 7.50000000 0 0 0
220 1 1 0 15.02973012 8.39750109 7.50000000 0 0 0
221 1 1 0 16.44958925 8.37750704 7.50000000 0 0 0
222 1 1 0 17.14220371 7.13787592 7.50000000 0 0 0
223 1 1 0 18.56206294 7.11788187 7.50000000 0 0 0
224 1 1 0 19.28930802 8.33751893 7.50000000 0 0 0
225 1 1 0 20.70916715 8.31752488 7.50000000 0 0 0
226 1 1 0 21.40178161 7.07789376 7.50000000 0 0 0
227 1 1 0 22.82164084 7.05789971 7.50000000 0 0 0
228 1 1 0 23.54888591 8.27753677 7.50000000 0 0 0
229 1 1 0 24.96874504 8.25754272 7.50000000 0 0 0
230 1 1 0 25.66135950 7.01791160 7.50000000 0 0 0
231 1 1 0 27.08121874 6.99791755 7.50000000 0 0 0
232 1 1 0 27.80846381 8.21755462 7.50000000 0 0 0
233 1 1 0 29.22832294 8.19756057 7.50000000 0 0 0
234 1 1 0 29.92093740 6.95792945 7.50000000 0 0 0
235 1 1 0 31.34079663 6.93793540 7.50000000 0 0 0
236 1 1 0 32.06804170 8.15757246 7.50000000 0 0 0
237 1 1 0 33.48790083 8.13757841 7.50000000 0 0 0
238 1 1 0 34.18051529 6.89794729 7.50000000 0 0 0
239 1 1 0 35.60037453 6.87795324 7.50000000 0 0 0
240 1 1 0 36.32761960 8.09759030 7.50000000 0 0 0
241 1 1 0 37.74747873 8.07759625 7.50000000 0 0 0
242 1 1 0 38.44009319 6.83796513 7.50000000 0 0 0
243 1 1 0 39.85995242 6.81797108 7.50000000 0 0 0
244 1 1 0 40.58719749 8.03760814 7.50000000 0 0 0
245 1 1 0 42.00705662 8.01761409 7.50000000 0 0 0
246 1 1 0 42.69967108 6.77798298 7.50000000 0 0 0
247 1 1 0 44.11953032 6.75798892 7.50000000 0 0 0
248 1 1 0 44.84677539 7.97762599 7.50000000 0 0 0
249 1 1 0 46.26663452 7.95763194 7.50000000 0 0 0
250 1 1 0 46.95924898 6.71800082 7.50000000 0 0 0
251 1 1 0 48.37910821 6.69800677 7.50000000 0 0 0
252 1 1 0 49.10635328 7.91764383 7.50000000 0 0 0
253 1 1 0 50.52621241 7.89764978 7.50000000 0 0 0
254 1 1 0 51.21882687 6.65801866 7.50000000 0 0 0
255 1 1 0 52.63868611 6.63802461 7.50000000 0 0 0
256 1 1 0 53.36593118 7.85766167 7.50000000 0 0 0
257 1 1 0 54.78579031 7.83766762 7.50000000 0 0 0
258 1 1 0 55.47840477 6.59803650 7.50000000 0 0 0
259 1 1 0 56.89826400 6.57804245 7.50000000 0 0 0
260 1 1 0 57.62550907 7.79767952 7.50000000 0 0 0
261 1 1 0 59.04536820 7.77768547 7.50000000 0 0 0
262 1 1 0 59.73798266 6.53805435 7.50000000 0 0 0
263 1 1 0 61.15784190 6.51806030 7.50000000 0 0 0
264 1 1 0 61.88508697 7.73769736 7.50000000 0 0 0
265 1 1 0 63.30494610 7.71770331 7.50000000 0 0 0
266 1 1 0 63.99756056 6.47807219 7.50000000 0 0 0
267 1 1 0 65.41741979 6.45807814 7.50000000 0 0 0
268 1 1 0 66.14466486 7.67771520 7.50000000 0 0 0
269 1 1 0 67.56452399 7.65772115 7.50000000 0 0 0
270 1 1 0 68.25713845 6.41809003 7.50000000 0 0 0
271 1 1 0 69.67699769 6.39809598 7.50000000 0 0 0
272 1 1 0 70.40424276 7.61773304 7.50000000 0 0 0
273 1 1 0 71.82410189 7.59773899 7.50000000 0 0 0
274 1 1 0 72.51671635 6.35810788 7.50000000 0 0 0
275 1 1 0 73.93657558 6.33811382 7.50000000 0 0 0
276 1 1 0 74.66382065 7.55775089 7.50000000 0 0 0
277 1 1 0 76.08367978 7.53775684 7.50000000 0 0 0
278 1 1 0 76.77629425 6.29812572 7.50000000 0 0 0
279 1 1 0 78.19615348 6.27813167 7.50000000 0 0 0
280 1 1 0 78.92339855 7.49776873 7.50000000 0 0 0
281 1 1 0 80.34325768 7.47777468 7.50000000 0 0 0
282 1 1 0 81.03587214 6.23814356 7.50000000 0 0 0
283 1 1 0 82.45573137 6.21814951 7.50000000 0 0 0
284 1 1 0 83.18297644 7.43778657 7.50000000 0 0 0
285 1 1 0 84.60283558 7.41779252 7.50000000 0 0 0
286 1 1 0 85.29545004 6.17816140 7.50000000 0 0 0
287 1 1 0 86.71530927 6.15816735 7.50000000 0 0 0
288 1 1 0 0.13852284 9.83707273 7.50000000 0 0 0
289 1 1 0 1.55838208 9.81707868 7.50000000 0 0 0
290 1 1 0 2.28562715 11.03671574 7.50000000 0 0 0
291 1 1 0 3.70548628 11.01672169 7.50000000 0 0 0
292 1 1 0 4.39810074 9.77709057 7.50000000 0 0 0
293 1 1 0 5.81795997 9.75709652 7.50000000 0 0 0
294 1 1 0 6.54520504 10.97673358 7.50000000 0 0 0
295 1 1 0 7.96506417 10.95673953 7.50000000 0 0 0
296 1 1 0 8.65767863 9.71710841 7.50000000 0 0 0
297 1 1 0 10.07753787 9.69711436 7.50000000 0 0 0
298 1 1 0 10.80478294 10.91675143 7.50000000 0 0 0
299 1 1 0 12.22464207 10.89675738 7.50000000 0 0 0
300 1 1 0 12.91725653 9.65712626 7.50000000 0 0 0
301 1 1 0 14.33711576 9.63713221 7.50000000 0 0 0
302 1 1 0 15.06436083 10.85676927 7.50000000 0 0 0
303 1 1 0 16.48421996 10.83677522 7.50000000 0 0 0
304 1 1 0 17.17683442 9.59714410 7.50000000 0 0 0
305 1 1 0 18.59669366 9.57715005 7.50000000 0 0 0
306 1 1 0 19.32393873 10.79678711 7.50000000 0 0 0
307 1 1 0 20.74379786 10.77679306 7.50000000 0 0 0
308 1 1 0 21.43641232 9.53716194 7.50000000 0 0 0
309 1 1 0 22.85627155 9.51716789 7.50000000 0 0 0
310 1 1 0 23.58351662 10.73680496 7.50000000 0 0 0
311 1 1 0 25.00337575 10.71681091 7.50000000 0 0 0
312 1 1 0 25.69599021 9.47717979 7.50000000 0 0 0
313 1 1 0 27.11584945 9.45718573 7.50000000 0 0 0
314 1 1 0 27.84309452 10.67682280 7.50000000 0 0 0
315 1 1 0 29.26295365 10.65682875 7.50000000 0 0 0
316 1 1 0 29.95556811 9.41719763 7.50000000 0 0 0
317 1 1 0 31.37542734 9.39720358 7.50000000 0 0 0
318 1 1 0 32.10267241 10.61684064 7.50000000 0 0 0
319 1 1 0 33.52253154 10.59684659 7.50000000 0 0 0
320 1 1 0 34.21514600 9.35721547 7.50000000 0 0 0
321 1 1 0 35.63500524 9.33722142 7.50000000 0 0 0
322 1 1 0 36.36225031 10.55685848 7.50000000 0 0 0
323 1 1 0 37.78210944 10.53686443 7.50000000 0 0 0
324 1 1 0 38.47472390 9.29723331 7.50000000 0 0 0
325 1 1 0 39.89458313 9.27723926 7.50000000 0 0 0
326 1 1 0 40.62182820 10.49687633 7.50000000 0 0 0
327 1 1 0 42.04168733 10.47688228 7.50000000 0 0 0
328 1 1 0 42.73430179 9.23725116 7.50000000 0 0 0
329 1 1 0 44.15416103 9.21725711 7.50000000 0 0 0
330 1 1 0 44.88140610 10.43689417 7.50000000 0 0 0
331 1 1 0 46.30126523 10.41690012 7.50000000 0 0 0
332 1 1 0 46.99387969 9.17726900 7.50000000 0 0 0
333 1 1 0 48.41373892 9.15727495 7.50000000 0 0 0
334 1 1 0 49.14098399 10.37691201 7.50000000 0 0 0
335 1 1 0 50.56084312 10.35691796 7.50000000 0 0 0
336 1 1 0 51.25345759 9.11728684 7.50000000 0 0 0
337 1 1 0 52.67331682 9.09729279 7.50000000 0 0 0
338 1 1 0 53.40056189 10.31692986 7.50000000 0 0 0
339 1 1 0 54.82042102 10.29693581 7.50000000 0 0 0
340 1 1 0 55.51303548 9.05730469 7.50000000 0 0 0
341 1 1 0 56.93289471 9.03731063 7.50000000 0 0 0
342 1 1 0 57.66013978 10.25694770 7.50000000 0 0 0
343 1 1 0 59.07999892 10.23695365 7.50000000 0 0 0
344 1 1 0 59.77261338 8.99732253 7.50000000 0 0 0
345 1 1 0 61.19247261 8.97732848 7.50000000 0 0 0
346 1 1 0 61.91971768 10.19696554 7.50000000 0 0 0
347 1 1 0 63.33957681 10.17697149 7.50000000 0 0 0
348 1 1 0 64.03219127 8.93734037 7.50000000 0 0 0
349 1 1 0 65.45205050 8.91734632 7.50000000 0 0 0
350 1 1 0 66.17929557 10.13698338 7.50000000 0 0 0
351 1 1 0 67.59915471 10.11698933 7.50000000 0 0 0
352 1 1 0 68.29176917 8.87735821 7.50000000 0 0 0
353 1 1 0 69.71162840 8.85736416 7.50000000 0 0 0
354 1 1 0 70.43887347 10.07700123 7.50000000 0 0 0
355 1 1 0 71.85873260 10.05700718 7.50000000 0 0 0
356 1 1 0 72.55134706 8.81737606 7.50000000 0 0 0
357 1 1 0 73.97120629 8.79738201 7.50000000 0 0 0
358 1 1 0 74.69845136 10.01701907 7.50000000 0 0 0
359 1 1 0 76.11831050 9.99702502 7.50000000 0 0 0
360 1 1 0 76.81092496 8.75739390 7.50000000 0 0 0
361 1 1 0 78.23078419 8.73739985 7.50000000 0 0 0
362 1 1 0 78.95802926 9.95703691 7.50000000 0 0 0
363 1 1 0 80.37788839 9.93704286 7.50000000 0 0 0
364 1 1 0 81.07050285 8.69741174 7.50000000 0 0 0
365 1 1 0 82.49036208 8.67741769 7.50000000 0 0 0
366 1 1 0 83.21760715 9.89705476 7.50000000 0 0 0
367 1 1 0 84.63746629 9.87706071 7.50000000 0 0 0
368 1 1 0 85.33008075 8.63742959 7.50000000 0 0 0
369 1 1 0 86.74993998 8.61743553 7.50000000 0 0 0
370 1 1 0 0.17315355 12.29634091 7.50000000 0 0 0
371 1 1 0 1.59301279 12.27634686 7.50000000 0 0 0
372 1 1 0 2.32025786 13.49598392 7.50000000 0 0 0
373 1 1 0 3.74011699 13.47598987 7.50000000 0 0 0
374 1 1 0 4.43273145 12.23635875 7.50000000 0 0 0
375 1 1 0 5.85259068 12.21636470 7.50000000 0 0 0
376 1 1 0 6.57983575 13.43600177 7.50000000 0 0 0
377 1 1 0 7.99969488 13.41600772 7.50000000 0 0 0
378 1 1 0 8.69230934 12.17637660 7.50000000 0 0 0
379 1 1 0 10.11216858 12.15638255 7.50000000 0 0 0
380 1 1 0 10.83941365 13.37601961 7.50000000 0 0 0
381 1 1 0 12.25927278 13.35602556 7.50000000 0 0 0
382 1 1 0 12.95188724 12.11639444 7.50000000 0 0 0
383 1 1 0 14.37174647 12.09640039 7.50000000 0 0 0
384 1 1 0 15.09899154 13.31603745 7.50000000 0 0 0
385 1 1 0 16.51885067 13.29604340 7.50000000 0 0 0
386 1 1 0 17.21146513 12.05641228 7.50000000 0 0 0
387 1 1 0 18.63132437 12.03641823 7.50000000 0 0 0
388 1 1 0 19.35856944 13.25605530 7.50000000 0 0 0
389 1 1 0 20.77842857 13.23606124 7.50000000 0 0 0
390 1 1 0 21.47104303 11.99643013 7.50000000 0 0 0
391 1 1 0 22.89090226 11.97643607 7.50000000 0 0 0
392 1 1 0 23.61814733 13.19607314 7.50000000 0 0 0
393 1 1 0 25.03800646 13.17607909 7.50000000 0 0 0
394 1 1 0 25.73062093 11.93644797 7.50000000 0 0 0
395 1 1 0 27.15048016 11.91645392 7.50000000 0 0 0
396 1 1 0 27.87772523 13.13609098 7.50000000 0 0 0
397 1 1 0 29.29758436 13.11609693 7.50000000 0 0 0
398 1 1 0 29.99019882 11.87646581 7.50000000 0 0 0
399 1 1 0 31.41005805 11.85647176 7.50000000 0 0 0
400 1 1 0 32.13730312 13.07610882 7.50000000 0 0 0
401 1 1 0 33.55716226 13.05611477 7.50000000 0 0 0
402 1 1 0 34.24977672 11.81648365 7.50000000 0 0 0
403 1 1 0 35.66963595 11.79648960 7.50000000 0 0 0
404 1 1 0 36.39688102 13.01612667 7.50000000 0 0 0
405 1 1 0 37.81674015 12.99613262 7.50000000 0 0 0
406 1 1 0 38.50935461 11.75650150 7.50000000 0 0 0
407 1 1 0 39.92921384 11.73650745 7.50000000 0 0 0
408 1 1 0 40.65645891 12.95614451 7.50000000 0 0 0
409 1 1 0 42.07631805 12.93615046 7.50000000 0 0 0
410 1 1 0 42.76893251 11.69651934 7.50000000 0 0 0
411 1 1 0 44.18879174 11.67652529 7.50000000 0 0 0
412 1 1 0 44.91603681 12.89616235 7.50000000 0 0 0
413 1 1 0 46.33589594 12.87616830 7.50000000 0 0 0
414 1 1 0 47.02851040 11.63653718 7.50000000 0 0 0
415 1 1 0 48.44836963 11.61654313 7.50000000 0 0 0
416 1 1 0 49.17561470 12.83618020 7.50000000 0 0 0
417 1 1 0 50.59547384 12.81618615 7.50000000 0 0 0
418 1 1 0 51.28808830 11.57655503 7.50000000 0 0 0
419 1 1 0 52.70794753 11.55656097 7.50000000 0 0 0
420 1 1 0 53.43519260 12.77619804 7.50000000 0 0 0
421 1 1 0 54.85505173 12.75620399 7.50000000 0 0 0
422 1 1 0 55.54766619 11.51657287 7.50000000 0 0 0
423 1 1 0 56.96752542 11.49657882 7.50000000 0 0 0
424 1 1 0 57.69477049 12.71621588 7.50000000 0 0 0
425 1 1 0 59.11462963 12.69622183 7.50000000 0 0 0
426 1 1 0 59.80724409 11.45659071 7.50000000 0 0 0
427 1 1 0 61.22710332 11.43659666 7.50000000 0 0 0
428 1 1 0 61.95434839 12.65623372 7.50000000 0 0 0
429 1 1 0 63.37420752 12.63623967 7.50000000 0 0 0
430 1 1 0 64.06682198 11.39660855 7.50000000 0 0 0
431 1 1 0 65.48668121 11.37661450 7.50000000 0 0 0
432 1 1 0 66.21392628 12.59625157 7.50000000 0 0 0
433 1 1 0 67.63378542 12.57625752 7.50000000 0 0 0
434 1 1 0 68.32639988 11.33662640 7.50000000 0 0 0
435 1 1 0 69.74625911 11.31663235 7.50000000 0 0 0
436 1 1 0 70.47350418 12.53626941 7.50000000 0 0 0
437 1 1 0 71.89336331 12.51627536 7.50000000 0 0 0
438 1 1 0 72.58597777 11.27664424 7.50000000 0 0 0
439 1 1 0 74.00583700 11.25665019 7.50000000 0 0 0
440 1 1 0 74.73308207 12.47628725 7.50000000 0 0 0
441 1 1 0 76.15294121 12.45629320 7.50000000 0 0 0
442 1 1 0 76.84555567 11.21666208 7.50000000 0 0 0
443 1 1 0 78.26541490 11.19666803 7.50000000 0 0 0
444 1 1 0 78.99265997 12.41630510 7.50000000 0 0 0
445 1 1 0 80.41251910 12.39631105 7.50000000 0 0 0
446 1 1 0 81.10513356 11.15667993 7.50000000 0 0 0
447 1 1 0 82.52499279 11.13668587 7.50000000 0 0 0
448 1 1 0 83.25223787 12.35632294 7.50000000 0 0 0
449 1 1 0 84.67209700 12.33632889 7.50000000 0 0 0
450 1 1 0 85.36471146 11.09669777 7.50000000 0 0 0
451 1 1 0 86.78457069 11.07670372 7.50000000 0 0 0
452 1 1 0 0.20778427 14.75560909 7.50000000 0 0 0
453 1 1 0 1.62764350 14.73561504 7.50000000 0 0 0
454 1 1 0 2.35488857 15.95525211 7.50000000 0 0 0
455 1 1 0 3.77474770 15.93525806 7.50000000 0 0 0
456 1 1 0 4.46736216 14.69562694 7.50000000 0 0 0
457 1 1 0 5.88722139 14.67563288 7.50000000 0 0 0
458 1 1 0 6.61446646 15.89526995 7.50000000 0 0 0
459 1 1 0 8.03432560 15.87527590 7.50000000 0 0 0
460 1 1 0 8.72694006 14.63564478 7.50000000 0 0 0
461 1 1 0 10.14679929 14.61565073 7.50000000 0 0 0
462 1 1 0 10.87404436 15.83528779 7.50000000 0 0 0
463 1 1 0 12.29390349 15.81529374 7.50000000 0 0 0
464 1 1 0 12.98651795 14.57566262 7.50000000 0 0 0
465 1 1 0 14.40637718 14.55566857 7.50000000 0 0 0
466 1 1 0 15.13362225 15.77530563 7.50000000 0 0 0
467 1 1 0 16.55348139 15.75531158 7.50000000 0 0 0
468 1 1 0 17.24609585 14.51568046 7.50000000 0 0 0
469 1 1 0 18.66595508 14.49568641 7.50000000 0 0 0
470 1 1 0 19.39320015 15.71532348 7.50000000 0 0 0
471 1 1 0 20.81305928 15.69532943 7.50000000 0 0 0
472 1 1 0 21.50567374 14.45569831 7.50000000 0 0 0
473 1 1 0 22.92553297 14.43570426 7.50000000 0 0 0
474 1 1 0 23.65277804 15.65534132 7.50000000 0 0 0
475 1 1 0 25.07263718 15.63534727 7.50000000 0 0 0
476 1 1 0 25.76525164 14.39571615 7.50000000 0 0 0
477 1 1 0 27.18511087 14.37572210 7.50000000 0 0 0
478 1 1 0 27.91235594 15.59535916 7.50000000 0 0 0
479 1 1 0 29.33221507 15.57536511 7.50000000 0 0 0
480 1 1 0 30.02482953 14.33573399 7.50000000 0 0 0
481 1 1 0 31.44468876 14.31573994 7.50000000 0 0 0
482 1 1 0 32.17193383 15.53537701 7.50000000 0 0 0
483 1 1 0 33.59179297 15.51538296 7.50000000 0 0 0
484 1 1 0 34.28440743 14.27575184 7.50000000 0 0 0
485 1 1 0 35.70426666 14.25575778 7.50000000 0 0 0
486 1 1 0 36.43151173 15.47539485 7.50000000 0 0 0
487 1 1 0 37.85137086 15.45540080 7.50000000 0 0 0
488 1 1 0 38.54398532 14.21576968 7.50000000 0 0 0
489 1 1 0 39.96384455 14.19577563 7.50000000 0 0 0
490 1 1 0 40.69108962 15.41541269 7.50000000 0 0 0
491 1 1 0 42.11094876 15.39541864 7.50000000 0 0 0
492 1 1 0 42.80356322 14.15578752 7.50000000 0 0 0
493 1 1 0 44.22342245 14.13579347 7.50000000 0 0 0
494 1 1 0 44.95066752 15.35543053 7.50000000 0 0 0
495 1 1 0 46.37052665 15.33543648 7.50000000 0 0 0
496 1 1 0 47.06314111 14.09580536 7.50000000 0 0 0
497 1 1 0 48.48300034 14.07581131 7.50000000 0 0 0
498 1 1 0 49.21024541 15.29544838 7.50000000 0 0 0
499 1 1 0 50.63010455 15.27545433 7.50000000 0 0 0
500 1 1 0 51.32271901 14.03582321 7.50000000 0 0 0
501 1 1 0 52.74257824 14.01582916 7.50000000 0 0 0
502 1 1 0 53.46982331 15.23546622 7.50000000 0 0 0
503 1 1 0 54.88968244 15.21547217 7.50000000 0 0 0
504 1 1 0 55.58229690 13.97584105 7.50000000 0 0 0
505 1 1 0 57.00215613 13.95584700 7.50000000 0 0 0
506 1 1 0 57.72940121 15.17548406 7.50000000 0 0 0
507 1 1 0 59.14926034 15.15549001 7.50000000 0 0 0
508 1 1 0 59.84187480 13.91585889 7.50000000 0 0 0
509 1 1 0 61.26173403 13.89586484 7.50000000 0 0 0
510 1 1 0 61.98897910 15.11550191 7.50000000 0 0 0
511 1 1 0 63.40883823 15.09550786 7.50000000 0 0 0
512 1 1 0 64.10145269 13.85587674 7.50000000 0 0 0
513 1 1 0 65.52131192 13.83588268 7.50000000 0 0 0
514 1 1 0 66.24855700 15.05551975 7.50000000 0 0 0
515 1 1 0 67.66841613 15.03552570 7.50000000 0 0 0
516 1 1 0 68.36103059 13.79589458 7.50000000 0 0 0
517 1 1 0 69.78088982 13.77590053 7.50000000 0 0 0
518 1 1 0 70.50813489 14.99553759 7.50000000 0 0 0
519 1 1 0 71.92799402 14.97554354 7.50000000 0 0 0
520 1 1 0 72.62060848 13.73591242 7.50000000 0 0 0
521 1 1 0 74.04046771 13.71591837 7.50000000 0 0 0
522 1 1 0 74.76771279 14.93555543 7.50000000 0 0 0
523 1 1 0 76.18757192 14.91556138 7.50000000 0 0 0
524 1 1 0 76.88018638 13.67593026 7.50000000 0 0 0
525 1 1 0 78.30004561 13.65593621 7.50000000 0 0 0
526 1 1 0 79.02729068 14.87557328 7.50000000 0 0 0
527 1 1 0 80.44714981 14.85557923 7.50000000 0 0 0
528 1 1 0 81.13976427 13.61594811 7.50000000 0 0 0
529 1 1 0 82.55962350 13.59595406 7.50000000 0 0 0
530 1 1 0 83.28686858 14.81559112 7.50000000 0 0 0
531 1 1 0 84.70672771 14.79559707 7.50000000 0 0 0
532 1 1 0 85.39934217 13.55596595 7.50000000 0 0 0
533 1 1 0 86.81920140 13.53597190 7.50000000 0 0 0
534 1 1 0 0.24241498 17.21487728 7.50000000 0 0 0
535 1 1 0 1.66227421 17.19488322 7.50000000 0 0 0
536 1 1 0 2.38951928 18.41452029 7.50000000 0 0 0
537 1 1 0 3.80937841 18.39452624 7.50000000 0 0 0
538 1 1 0 4.50199287 17.15489512 7.50000000 0 0 0
539 1 1 0 5.92185210 17.13490107 7.50000000 0 0 0
540 1 1 0 6.64909717 18.35453813 7.50000000 0 0 0
541 1 1 0 8.06895631 18.33454408 7.50000000 0 0 0
542 1 1 0 8.76157077 17.09491296 7.50000000 0 0 0
543 1 1 0 10.18143000 17.07491891 7.50000000 0 0 0
544 1 1 0 10.90867507 18.29455597 7.50000000 0 0 0
545 1 1 0 12.32853420 18.27456192 7.50000000 0 0 0
546 1 1 0 13.02114866 17.03493080 7.50000000 0 0 0
547 1 1 0 14.44100789 17.01493675 7.50000000 0 0 0
548 1 1 0 15.16825296 18.23457382 7.50000000 0 0 0
549 1 1 0 16.58811210 18.21457977 7.50000000 0 0 0
550 1 1 0 17.28072656 16.97494865 7.50000000 0 0 0
551 1 1 0 18.70058579 16.95495460 7.50000000 0 0 0
552 1 1 0 19.42783086 18.17459166 7.50000000 0 0 0
553 1 1 0 20.84768999 18.15459761 7.50000000 0 0 0
554 1 1 0 21.54030445 16.91496649 7.50000000 0 0 0
555 1 1 0 22.96016368 16.89497244 7.50000000 0 0 0
556 1 1 0 23.68740875 18.11460950 7.50000000 0 0 0
557 1 1 0 25.10726789 18.09461545 7.50000000 0 0 0
558 1 1 0 25.79988235 16.85498433 7.50000000 0 0 0
559 1 1 0 27.21974158 16.83499028 7.50000000 0 0 0
560 1 1 0 27.94698665 18.05462735 7.50000000 0 0 0
561 1 1 0 29.36684578 18.03463330 7.50000000 0 0 0
562 1 1 0 30.05946024 16.79500218 7.50000000 0 0 0
563 1 1 0 31.47931947 16.77500812 7.50000000 0 0 0
564 1 1 0 32.20656455 17.99464519 7.50000000 0 0 0
565 1 1 0 33.62642368 17.97465114 7.50000000 0 0 0
566 1 1 0 34.31903814 16.73502002 7.50000000 0 0 0
567 1 1 0 35.73889737 16.71502597 7.50000000 0 0 0
568 1 1 0 36.46614244 17.93466303 7.50000000 0 0 0
569 1 1 0 37.88600157 17.91466898 7.50000000 0 0 0
570 1 1 0 38.57861603 16.67503786 7.50000000 0 0 0
571 1 1 0 39.99847526 16.65504381 7.50000000 0 0 0
572 1 1 0 40.72572034 17.87468087 7.50000000 0 0 0
573 1 1 0 42.14557947 17.85468682 7.50000000 0 0 0
574 1 1 0 42.83819393 16.61505570 7.50000000 0 0 0
575 1 1 0 44.25805316 16.59506165 7.50000000 0 0 0
576 1 1 0 44.98529823 17.81469872 7.50000000 0 0 0
577 1 1 0 46.40515736 17.79470467 7.50000000 0 0 0
578 1 1 0 47.09777182 16.55507355 7.50000000 0 0 0
579 1 1 0 48.51763105 16.53507950 7.50000000 0 0 0
580 1 1 0 49.24487613 17.75471656 7.50000000 0 0 0
581 1 1 0 50.66473526 17.73472251 7.50000000 0 0 0
582 1 1 0 51.35734972 16.49509139 7.50000000 0 0 0
583 1 1 0 52.77720895 16.47509734 7.50000000 0 0 0
584 1 1 0 53.50445402 17.69473440 7.50000000 0 0 0
585 1 1 0 54.92431315 17.67474035 7.50000000 0 0 0
586 1 1 0 55.61692761 16.43510923 7.50000000 0 0 0
587 1 1 0 57.03678684 16.41511518 7.50000000 0 0 0
588 1 1 0 57.76403192 17.63475225 7.50000000 0 0 0
589 1 1 0 59.18389105 17.61475820 7.50000000 0 0 0
590 1 1 0 59.87650551 16.37512708 7.50000000 0 0 0
591 1 1 0 61.29636474 16.35513302 7.50000000 0 0 0
592 1 1 0 62.02360981 17.57477009 7.50000000 0 0 0
593 1 1 0 63.44346894 17.55477604 7.50000000 0 0 0
594 1 1 0 64.13608340 16.31514492 7.50000000 0 0 0
595 1 1 0 65.55594264 16.29515087 7.50000000 0 0 0