ITEM: TIMESTEP
373
ITEM: NUMBER OF ATOMS
26936
ITEM: BOX BOUNDS pp pp pp
0.0000000000000000e+00 1.4251150300000000e+02
0.0000000000000000e+00 2.4683716400000000e+02
0.0000000000000000e+00 1.5000000000000000e+01
ITEM: ATOMS id type x y z c_csym c_2[1] c_2[2] c_2[3] c_2[4] c_2[5] c_2[6] c_3 
229 1 0.875317 8.57944 2.88585 6.01798 -170505 -152134 -2681.16 -16480.9 11808.8 -2891.97 -7.41379 
230 1 0.143536 7.36525 2.88295 6.02399 -157310 -165522 2609.45 -11387.4 13383.6 -1254.52 -7.41393 
231 1 0.828739 6.12405 2.8806 6.02253 -167394 -155093 -592.334 -7917.53 8119.18 -2409.5 -7.4137 
232 1 0.0963382 4.91019 2.87862 6.02636 -158345 -164107 1199.8 -4655.39 7907.04 -841.385 -7.41371 
233 1 0.781118 3.66878 2.87722 6.02576 -164676 -157705 374.319 -2859.47 4676.39 -1822.88 -7.41362 
234 1 0.0483557 2.45511 2.87612 6.02821 -159679 -162658 697.457 -1064.44 3523.02 -432.407 -7.4136 
235 1 0.732926 1.21361 2.87558 6.02848 -162324 -160039 630.465 -606.816 1485.75 -1220.2 -7.41357 
236 1 1.67293e-05 1.37657e-05 2.87531 6.02968 -161210 -161126 634.343 7.45457 0.879597 -0.604912 -7.41356 
431 1 2.29281 8.55162 2.88649 6.01995 -164944 -158477 3022.04 -13639.3 16152.2 -3855.53 -7.41409 
432 1 2.97806 7.31039 2.8841 6.02005 -175570 -147290 -500.292 -11416.8 10003.3 -7104.1 -7.41383 
433 1 2.24621 6.09621 2.8812 6.02304 -163206 -159746 1236.38 -5135.51 10133.9 -3524.53 -7.4138 
434 1 2.93101 4.85478 2.87975 6.02357 -170242 -152485 622.356 -4701.74 6402.36 -5963.61 -7.41372 
435 1 2.19858 3.64091 2.87778 6.02555 -162077 -160442 561.311 -149.338 5152.86 -3209.4 -7.41365 
436 1 2.88315 2.39939 2.87722 6.02676 -165514 -156952 842.552 -1180.5 3030.42 -4843.4 -7.41364 
437 1 2.15038 1.18572 2.87612 6.02724 -161422 -160819 540.081 1985.05 1193.81 -2965.48 -7.41359 
632 1 5.12656 8.4975 2.88945 6.01725 -186803 -136429 789.136 -13681.4 12286.4 -12519.3 -7.41407 
633 1 4.39551 7.28284 2.88559 6.01736 -170715 -152500 292.52 -4475.91 12653.2 -6266.38 -7.41392 
634 1 5.08035 6.04138 2.88413 6.02102 -178536 -144584 1815.11 -5322.48 8677.21 -10939.8 -7.41393 
635 1 4.34845 4.82718 2.88119 6.02151 -166873 -155977 -317.433 2009.9 7053.98 -6111.75 -7.41373 
636 1 5.03306 3.58565 2.88063 6.02452 -171202 -151811 1739.1 -456.389 5116.83 -9323.18 -7.41381 
637 1 4.3006 2.37176 2.87861 6.02431 -163794 -158823 -51.1176 5378.06 2467.96 -6021.04 -7.41365 
638 1 4.98516 1.13024 2.8789 6.02528 -164318 -158319 1000.97 1613.35 1649.3 -7869.43 -7.41371 
833 1 6.54397 8.47054 2.8918 6.01015 -181422 -142063 -2010 -2437.29 15279.5 -8932.09 -7.41404 
834 1 7.22886 7.22903 2.89037 6.01728 -190051 -133496 4365.47 -4319.83 11297.1 -16641.7 -7.41428 
835 1 6.49776 6.01433 2.88646 6.01573 -174511 -148446 -2346.45 5775.89 9211.8 -9131.38 -7.41383 
836 1 7.1824 4.77277 2.88591 6.02191 -179618 -143634 3772.22 2074.61 7709.09 -14701.3 -7.41409 
837 1 6.45048 3.55852 2.88292 6.02008 -168730 -154177 -1570.69 10570.9 3972.06 -9298.58 -7.41374 
838 1 7.13507 2.317 2.88324 6.02279 -170109 -153111 2293.02 5373.73 4085.5 -12820.2 -7.41393 
839 1 6.4026 1.10307 2.88118 6.02217 -163423 -159231 -159.438 12437.4 -401.075 -9590.6 -7.41373 
1034 1 9.37627 8.4182 2.89829 6.01058 -204523 -119493 8556.79 -1434.08 13938.9 -22629.9 -7.41479 
1035 1 8.64623 7.20281 2.89352 6.00849 -185560 -137883 -5856.16 11295.7 11408.8 -11985.9 -7.41391 
1036 1 9.33091 5.96122 2.89302 6.01676 -191331 -132582 7303.91 6640.08 10585.1 -20643.3 -7.41453 
1037 1 8.59979 4.74645 2.88909 6.01497 -176547 -146536 -4396.67 17624.5 5657.71 -12605.2 -7.41382 
1038 1 9.28442 3.50491 2.88946 6.02004 -178764 -144947 4903.22 11215.1 6972.21 -18536.5 -7.41429 
1039 1 8.55249 2.2906 2.88645 6.01861 -168499 -154500 -2041.69 20736.5 657.567 -13223.5 -7.41383 
1040 1 9.23728 1.04922 2.88766 6.01678 -166689 -156674 1845.24 12877.8 3198.83 -16523.9 -7.41408 
13499 2 0.542122 8.6065 6.51409 6.02194 -154160 -168801 3773.12 16495.4 16589.9 675.165 -7.41409 
13500 2 0.588717 6.15155 6.51938 6.02452 -155908 -166535 1741.38 8058.46 10633.5 231.687 -7.4138 
13501 2 0.636351 3.69656 6.52279 6.0267 -158042 -164271 843.954 2929.88 5710.66 -201.209 -7.41364 
13502 2 0.684551 1.2415 6.52442 6.0285 -160202 -162168 630.562 593.509 1802.28 -674.814 -7.41357 
13503 2 1.71999e-05 -1.85636e-05 6.52469 6.02966 -161133 -161098 634.391 -43.3787 -0.38667 0.910641 -7.41356 
13697 2 1.95967 8.63435 6.51355 6.01581 -159733 -163059 -2348.8 14062.4 12515.5 -3407.88 -7.41383 
13698 2 2.69181 7.42037 6.51588 6.02111 -148196 -174673 1816.28 11993.3 13812.9 -2042.36 -7.41394 
13699 2 2.00623 6.17943 6.51882 6.02154 -160143 -162431 -317.608 5714.84 8820.86 -3050.67 -7.41373 
13700 2 2.73885 4.96569 6.52025 6.02357 -152659 -169965 623.031 5297.13 8365.56 -2560.53 -7.41372 
13701 2 2.05383 3.72445 6.52223 6.02551 -160732 -161867 560.916 572.012 5356.51 -2855.64 -7.41365 
13702 2 2.78669 2.51083 6.52279 6.02566 -157001 -165445 373.416 1561.98 3918.05 -3136.68 -7.41362 
13703 2 2.10201 1.2694 6.52388 6.02821 -161108 -161346 696.484 -1881.7 2135.37 -2833.84 -7.4136 
13704 2 2.83493 0.0558041 6.52361 6.0272 -161294 -161184 604.715 239.143 268.344 -3883.61 -7.4136 
13898 2 4.79577 8.68845 6.51055 6.01732 -137160 -186170 791.587 14935 16986.6 -4378.44 -7.41407 
13899 2 4.10937 7.44801 6.51442 6.01741 -152954 -170166 291.164 5616.73 11755.8 -7821.09 -7.41392 
13900 2 4.84195 6.23424 6.51591 6.02012 -144332 -178398 -498.891 6591.07 11153.9 -5108.17 -7.41382 
13901 2 4.15636 4.99335 6.51881 6.02298 -155896 -166728 1235.48 -1057.97 8120.73 -7012.39 -7.4138 
13902 2 4.88921 3.7797 6.5194 6.02253 -151128 -171122 -593.089 1364.21 6145.25 -5825.17 -7.4137 
13903 2 4.20417 2.5385 6.52138 6.02632 -158594 -163752 1197.79 -4835.66 4683.45 -6425.62 -7.41371 
13904 2 4.93708 1.32488 6.52111 6.02381 -157805 -164546 65.1082 -1334.51 1973.4 -6704.97 -7.41367 
13905 2 4.25238 0.0834616 6.52223 6.02542 -161272 -161245 614.684 -6270.3 1295.82 -6101.31 -7.41365 
14099 2 6.21341 8.7156 6.50819 6.01293 -142238 -181361 2214.87 4439.31 15032.2 -13315.5 -7.41425 
14100 2 6.94594 7.50179 6.50973 6.01639 -132700 -190398 -2913.55 6481.12 13851.4 -7757.07 -7.41392 
14101 2 6.25952 6.26141 6.51352 6.02 -148206 -175164 3020.76 -3993.71 11415.9 -12056.1 -7.41409 
14102 2 6.99236 5.04774 6.51416 6.01802 -142525 -180251 -2679.27 -278.646 8409.88 -8778.27 -7.41379 
14103 2 6.30672 3.8069 6.51705 6.02393 -153506 -169319 2607.45 -9252.97 7778.89 -10960.1 -7.41393 
14104 2 7.03964 2.59324 6.51679 6.01937 -151866 -170759 -1417.8 -4336.96 3702.66 -9861.63 -7.41376 
14105 2 6.35455 1.35207 6.5188 6.02307 -158577 -164082 1394.19 -11986.1 4188.52 -10127.5 -7.41381 
14106 2 7.08735 0.138335 6.51765 6.02063 -161079 -161818 402.595 -5980.88 -368.755 -11184.3 -7.41381 
14300 2 9.05109 8.76789 6.50194 6.01201 -117655 -205796 -6921.77 5019.35 16139.2 -10199.3 -7.41399 
14301 2 8.36359 7.52819 6.50643 6.01675 -136964 -186936 6295.61 -8253.49 14968.5 -17673.9 -7.41452 
14302 2 9.09639 6.31447 6.50712 6.01281 -130550 -192561 -6224.82 -3486.23 10484.5 -11728.8 -7.41386 
14303 2 8.40993 5.07417 6.51084 6.0205 -145449 -178021 5343.49 -15242.7 11333.3 -16255.3 -7.4143 
14304 2 9.14284 3.86047 6.51061 6.01323 -142967 -180103 -4220.81 -9123.82 5359.36 -13180.6 -7.41384 
14305 2 8.45714 2.61969 6.5135 6.02033 -153311 -169889 3326.31 -19503.9 7578.27 -15001.1 -7.41409 
14306 2 9.18995 1.4059 6.51235 6.01448 -154837 -168240 -1365.14 -12203.3 843.024 -14738.4 -7.41392 
14307 2 8.5048 0.164778 6.51441 6.01955 -161010 -162155 702.79 -21294.5 3666.14 -13993 -7.41393 
1235 1 10.7936 8.3931 2.90205 6.00043 -199444 -124185 -11043.2 18481.9 13316.7 -14292.8 -7.41394 
1236 1 11.4783 7.15149 2.90164 6.01017 -205649 -118479 12529.1 13231.3 13432.1 -26547.9 -7.41513 
1237 1 10.7483 5.93601 2.89693 6.00806 -187681 -135687 -8807.63 26693 7306.74 -15543.6 -7.41387 
1238 1 11.4329 4.69447 2.89735 6.0162 -190430 -133718 9132.13 19422.6 10082.4 -24488.3 -7.41481 
1239 1 10.7018 3.4796 2.89348 6.01386 -176562 -146744 -5381.53 31316 1813.18 -16652.3 -7.41391 
1240 1 11.3867 2.23824 2.89474 6.01262 -175426 -148520 4780.81 22355.2 6416.22 -22313.7 -7.41449 
1241 1 10.6547 1.02384 2.89178 6.01575 -165942 -157430 -1284.69 32956.2 -3042.74 -17759.5 -7.41405 
1436 1 13.6244 8.344 2.91116 6.00267 -221410 -102193 19409.7 21571.9 15956.3 -31755.3 -7.41588 
1437 1 12.8956 7.12766 2.90597 6.00053 -201367 -122120 -14906.9 37370.7 8646.12 -17723.7 -7.41385 
1438 1 13.5804 5.88614 2.90643 6.00986 -204309 -119840 15077.1 29694.7 13118.3 -29998.1 -7.41548 
1439 1 12.8503 4.67055 2.90193 6.00861 -187600 -135997 -10396.9 43924 2883.3 -19435.4 -7.41394 
1440 1 13.5352 3.42921 2.90319 6.00866 -187098 -137436 9437.68 34238.7 9780.94 -27915.5 -7.41506 
1441 1 12.804 2.21424 2.89951 6.01219 -174032 -149599 -4884.06 46962.8 -2383.46 -21000.3 -7.41414 
1442 1 13.4893 0.973198 2.90157 6.00389 -169636 -154775 3050.48 35592.4 6062.12 -25664.6 -7.41467 
1637 1 15.0417 8.32175 2.91552 5.99296 -216502 -106666 -22556.4 48834.3 9479.98 -18922.7 -7.41376 
1638 1 15.7266 7.08028 2.91601 6.00284 -219572 -104148 22576.7 41263.6 15821.3 -34467.7 -7.41627 
1639 1 14.9977 5.86384 2.91118 6.00225 -200791 -122745 -17091.3 57622.7 3683.6 -21242.3 -7.41389 
1640 1 15.6827 4.62257 2.9124 6.00406 -200468 -123816 15810.3 47755.8 13020.7 -32689.5 -7.41577 
1641 1 14.9525 3.40687 2.90827 6.00885 -185013 -138954 -10241 62646.4 -1809.88 -23313 -7.41415 
1642 1 15.638 2.16589 2.91023 5.99911 -180950 -143700 7903.43 50696.3 9714.37 -30546.7 -7.41526 
1643 1 14.9067 0.950805 2.90691 6.00682 -169052 -155162 -2599.02 64184.7 -6808.87 -25202.5 -7.4145 
1838 1 17.8714 8.27713 2.92539 5.99561 -234655 -87671.9 31242.2 53302.3 18026 -37543.9 -7.41715 
1839 1 17.1438 7.05976 2.92051 5.99559 -215335 -108118 -25212.1 71659.3 4102.5 -21962 -7.41376 
1840 1 17.8291 5.81859 2.92165 5.99861 -214767 -108898 23639.9 62137.7 15913.4 -36186.4 -7.41659 
1841 1 17.1 4.60205 2.91735 6.00463 -197720 -126277 -17261 78959.2 -1427.7 -24485 -7.41408 
1842 1 17.7856 3.36118 2.91917 5.99501 -194071 -130503 14473.6 67065.8 13173.1 -34328.9 -7.41598 
1843 1 17.0553 2.14537 2.91558 6.00275 -179686 -144549 -8097.63 82318.5 -6578.09 -26749.9 -7.41451 
1844 1 17.7414 0.904897 2.91804 5.98903 -172682 -152361 4373.86 68314.2 9901.17 -32063.3 -7.41538 
14501 2 10.4688 8.79325 6.4979 6.01258 -122173 -201880 11273.5 -13703.1 18360 -23320.1 -7.41511 
14502 2 11.2016 7.57947 6.49861 6.00589 -115362 -207885 -11435.9 -8255.98 12113.2 -14259.9 -7.41388 
14503 2 10.514 6.33986 6.50292 6.01487 -133858 -189874 9700.81 -22665.3 15042.4 -21832.4 -7.41481 
14504 2 11.2469 5.1261 6.50275 6.00577 -130864 -192354 -8618.62 -15692.4 6751.81 -16245.1 -7.41389 
14505 2 10.5604 3.88588 6.50638 6.01495 -144986 -178657 6771.15 -28666.9 11335.8 -20348.3 -7.41452 
14506 2 11.2932 2.67203 6.50528 6.00691 -146024 -177496 -4634.95 -20399.1 1888.61 -18179.2 -7.41402 
14507 2 10.6074 1.43132 6.50816 6.01579 -155522 -167926 2942.72 -32054.3 7364.44 -18977.6 -7.41426 
14508 2 11.3399 0.21725 6.50613 6.00921 -160682 -162992 11.0323 -22630.9 -2462.05 -20185.7 -7.41422 
14702 2 13.3082 8.84231 6.48926 5.99847 -97832.8 -225508 -18301.7 -14567.1 13128.6 -16008.8 -7.41382 
14703 2 12.6194 7.60352 6.49378 6.00802 -119247 -204769 15764.1 -31279 18481.9 -27084.5 -7.41549 
14704 2 13.3522 6.38969 6.49369 5.99759 -116007 -207360 -14707.6 -23837 7714.16 -18601.2 -7.41388 
14705 2 12.6646 5.15016 6.49776 6.00789 -133539 -190364 11920.9 -39300.8 15134.5 -25593.7 -7.41512 
14706 2 13.3974 3.93623 6.4968 5.9983 -134197 -189468 -9604.1 -30394.1 2641.13 -21019.2 -7.41406 
14707 2 12.7107 2.69609 6.50028 6.00903 -147429 -176479 6845.99 -44553.2 11320.8 -24049.6 -7.41475 
14708 2 13.4433 1.48194 6.49841 6.00048 -152088 -171930 -3495.12 -34256.1 -1946.64 -23356.6 -7.41433 
14709 2 12.7574 0.241294 6.50121 6.01123 -160689 -162944 1058.16 -47088.6 7093.68 -22516.1 -7.41441 
14903 2 14.7261 8.8648 6.48409 6.00044 -102305 -221069 23364.1 -40482.8 21256.8 -31487.2 -7.41629 
14904 2 15.4589 7.65085 6.4841 5.98955 -99283.1 -223736 -22347.8 -33052.7 8180.76 -19954.1 -7.41379 
14905 2 14.77 6.41214 6.48825 5.99985 -119293 -204197 18730.6 -50767.4 18564.5 -30162.3 -7.41584 
14906 2 15.5027 5.19811 6.48746 5.9895 -120033 -203510 -16262.2 -41673.5 3026.42 -22866.4 -7.41402 
14907 2 14.815 3.95866 6.49125 6.00077 -136253 -187575 12501 -58132.5 15190.3 -28634.2 -7.41537 
14908 2 15.5475 2.74442 6.48962 5.99117 -140848 -183437 -8787.96 -47500.6 -1716.09 -25589.7 -7.41436 
14909 2 14.8607 1.50436 6.4929 6.00313 -152892 -171234 5194.08 -62611.8 11263.3 -26971.1 -7.41492 
14910 2 15.5927 0.289753 6.49042 5.99443 -161181 -163506 -516.21 -50532.4 -5956.31 -28155.2 -7.41479 
15104 2 17.567 8.90936 6.47464 5.98199 -81688.9 -240096 -31155.9 -42747.2 8202.82 -20253.2 -7.41361 
15105 2 16.8767 7.67152 6.4785 5.99143 -103299 -218911 26915 -62193.9 21289.6 -33646.8 -7.41668 
15106 2 17.6094 6.45736 6.47793 5.98109 -104328 -218487 -24352.1 -53583.3 3070.09 -23559.8 -7.41389 
15107 2 16.9204 5.21871 6.48168 5.99187 -122965 -200343 19752.8 -71951.7 18605.1 -32265.5 -7.41613 
15108 2 17.6529 4.00434 6.48037 5.98195 -127442 -196478 -15755.5 -61457.5 -1763.2 -26634.7 -7.4143 
15109 2 16.9651 2.76498 6.48383 5.99396 -142475 -181550 11110.8 -78643.9 15212.7 -30635.3 -7.41556 
15110 2 17.6971 1.55026 6.48177 5.98466 -150367 -174307 -5948.65 -66428.9 -6104.75 -29476.9 -7.41481 
15111 2 17.0102 0.310301 6.48479 5.99761 -161406 -163030 1598.56 -82097.5 11193 -28792.8 -7.41501 
2039 1 19.2886 8.25845 2.92928 5.98943 -229543 -92608.3 -34288.9 84918.9 4138.46 -21702.1 -7.41355 
2040 1 19.9741 7.01742 2.93027 5.99362 -228910 -93191.4 32470.9 76240.6 18315.6 -38232.4 -7.41745 
2041 1 19.2463 5.79998 2.92607 5.99977 -211099 -112198 -25594.6 94774.9 -1276.95 -24540.4 -7.41392 
2042 1 19.9321 4.55924 2.92769 5.99038 -207596 -115954 22426.5 83483.2 16240.6 -36750.3 -7.41678 
2043 1 19.2029 3.34263 2.9241 5.99942 -191986 -132156 -15249.2 100464 -6448.57 -27095.4 -7.41441 
2044 1 19.8892 2.10228 2.92632 5.98471 -185344 -139197 10994.4 86756.1 13552.6 -34756.2 -7.41607 
2045 1 19.1588 0.886371 2.92338 5.99282 -172206 -152258 -3923.99 102080 -11141.6 -29383.2 -7.41499 
2240 1 22.1178 8.21909 2.9378 5.98732 -242078 -77969.7 41749.9 89137 20175.3 -38914.5 -7.41832 
2241 1 21.3912 7.00072 2.93385 5.99444 -224433 -97886.2 -34719.1 109094 -1321.73 -23679.9 -7.41368 
2242 1 22.0774 5.76016 2.93522 5.98534 -221038 -101148 31262.7 98892.7 18802.4 -37806 -7.41761 
2243 1 21.3493 4.54269 2.93184 5.99697 -204693 -118782 -23625.5 117340 -6409.58 -26390.8 -7.41422 
2244 1 22.0359 3.3025 2.93379 5.98156 -198631 -125106 18956.4 104441 16746.4 -36153.9 -7.41682 
2245 1 21.3065 2.08581 2.931 5.98903 -184138 -140029 -11090.4 121156 -11108.6 -28828.8 -7.41487 
2246 1 21.9937 0.846092 2.93345 5.97495 -175210 -149478 5516.83 105864 14060.8 -34007.1 -7.41602 
2441 1 23.5349 8.20421 2.94033 5.98984 -236618 -83858.4 -44083.4 121331 -1491.92 -22185.4 -7.41339 
2442 1 24.2214 6.96387 2.9414 5.98117 -233216 -86785.5 40447.2 112536 20825.8 -37694.2 -7.41843 
2443 1 23.4945 5.74551 2.93834 5.99367 -217142 -105189 -32682.9 132069 -6420.48 -24908.6 -7.41395 
2444 1 24.1814 4.50552 2.94 5.97767 -211516 -110858 27746.4 120491 19404.4 -36379.6 -7.41761 
2445 1 23.4531 3.28801 2.93753 5.98629 -196457 -127068 -19424.3 138320 -11069.9 -27381.6 -7.41465 
2446 1 24.1406 2.04846 2.93971 5.97188 -188262 -135498 13461.9 124136 17311.6 -34560.4 -7.41672 
2447 1 23.4111 0.831703 2.93778 5.97874 -174880 -149144 -5020.09 140100 -15191.5 -29605.9 -7.41544 
2642 1 26.3642 8.17024 2.94603 5.97795 -243729 -73380.9 49515.3 123984 22334.8 -36695.4 -7.41921 
2643 1 25.6385 6.95102 2.94334 5.9902 -228265 -92025 -41902.6 144279 -6428.1 -22951.7 -7.41364 
2644 1 26.3258 5.71125 2.94468 5.97367 -223214 -96971.3 36843.6 134372 21512.7 -35679.3 -7.41837 
2645 1 25.5986 4.49291 2.94262 5.98456 -208270 -113943 -28387.7 153099 -10987.5 -25350.9 -7.41435 
2646 1 26.2864 3.25355 2.94453 5.97005 -200901 -121525 22215 140365 19989.3 -34180.9 -7.41745 
2647 1 25.5579 2.03601 2.94302 5.97593 -186990 -136371 -13293.3 157206 -15104.4 -27528.8 -7.41518 
2648 1 26.2464 0.797138 2.94538 5.96338 -177220 -146439 6329.81 142019 17779.1 -32236.4 -7.41649 
2843 1 27.7812 8.15902 2.94672 5.98668 -237843 -80113.6 -50873.6 153710 -6388.28 -20777.8 -7.41331 
2844 1 28.469 6.91952 2.94767 5.97074 -233261 -84460.3 45816.2 145553 23107.1 -34321.1 -7.41911 
2845 1 27.7429 5.70036 2.94606 5.98262 -218994 -101616 -37493.2 164859 -10825.7 -23025.5 -7.41401 
2846 1 28.4311 4.46122 2.9477 5.96722 -212540 -108158 31275.5 153988 22106.1 -33113.4 -7.41817 
2847 1 27.7036 3.2429 2.94669 5.97426 -198554 -123588 -22181.4 171467 -14925.8 -25079.1 -7.41485 
2848 1 28.3923 2.00419 2.9489 5.96187 -189958 -132474 15079.7 157934 20412.3 -31480.7 -7.41716 
2849 1 27.6637 0.786619 2.94835 5.96637 -176973 -145875 -5653.59 173361 -18451.6 -26947.4 -7.41578 
15305 2 18.985 8.92817 6.46914 5.98322 -86636 -233500 35998.3 -73053.7 23124.8 -35874.7 -7.41757 
15306 2 19.7175 7.71383 6.46875 5.97348 -88165.4 -233051 -33406.3 -65282.8 2881.71 -23185.9 -7.41368 
15307 2 19.0272 6.47601 6.47218 5.98294 -108140 -213366 28226.4 -85217.6 21288.8 -34686.7 -7.41696 
15308 2 19.7595 5.26149 6.47122 5.97347 -112881 -209829 -24046.3 -75405.5 -1987.05 -26495.7 -7.41414 
15309 2 19.0705 4.02291 6.47459 5.9845 -129942 -192964 18566.1 -94230.4 18623.4 -33191.8 -7.41631 
15310 2 19.8025 2.80806 6.473 5.97542 -137790 -186279 -13043.9 -82468.9 -6423.3 -29555.4 -7.41471 
15311 2 19.1146 1.5688 6.47612 5.98783 -151471 -172573 7609.72 -99907.2 15221 -31416.3 -7.41564 
15312 2 19.8459 0.353481 6.47387 5.97919 -162090 -162611 -1096.79 -86259.1 -10285 -32331.7 -7.41536 
15506 2 21.827 8.9675 6.46026 5.96716 -72327.6 -246308 -42879.1 -76104 2585.74 -21987.6 -7.4134 
15507 2 21.1354 7.73053 6.4632 5.97455 -92906.1 -225932 37416.6 -97093.4 23120.7 -35877.7 -7.41783 
15508 2 21.8676 6.51582 6.46255 5.96613 -98005.5 -222804 -33154.1 -88524.6 -2252.55 -25380.4 -7.41389 
15509 2 21.1773 5.27804 6.46562 5.97537 -116471 -204730 27138.6 -108494 21289 -34541.3 -7.41712 
15510 2 21.9092 4.06303 6.46452 5.96712 -124419 -198584 -21384.9 -97720.7 -6769.14 -28546 -7.41451 
15511 2 21.2201 2.82452 6.46755 5.97811 -139959 -183150 15133.3 -116471 18634.5 -32910.9 -7.41636 
15512 2 21.9514 1.60908 6.46592 5.97007 -150395 -174016 -8222.93 -103582 -10734.9 -31443.4 -7.41523 
15513 2 21.2633 0.369927 6.46873 5.98271 -162657 -161528 2113.34 -120774 15220.2 -31004.2 -7.4156 
15707 2 23.2451 8.98232 6.45492 5.96715 -78166.1 -237266 46799.2 -107089 24134.8 -36000.6 -7.41869 
15708 2 23.9769 7.76738 6.45449 5.96018 -83756.4 -234511 -42549.2 -100116 -2450.49 -23588.4 -7.41358 
15709 2 23.2854 6.53039 6.45719 5.96706 -102722 -215771 36320 -120893 23149.2 -34789.5 -7.41795 
15710 2 24.0171 5.31519 6.4565 5.96013 -110632 -210222 -30456.7 -111532 -7009.43 -26735.8 -7.41422 
15711 2 23.3268 4.07746 6.45934 5.969 -127661 -193717 23722.9 -131180 21297.9 -33313 -7.41713 
15712 2 24.058 2.86187 6.45831 5.96208 -137605 -185393 -16552.1 -119487 -11099.9 -29657.8 -7.41499 
15713 2 23.3688 1.62345 6.4611 5.97292 -151923 -171359 9664.58 -137720 18628.2 -31583.8 -7.41628 
15714 2 24.0993 0.407331 6.45965 5.96602 -163658 -160240 -1610.15 -123761 -14548.8 -32292.1 -7.41583 
15908 2 26.0876 9.01633 6.44699 5.95577 -70647.9 -244044 -51784 -109669 -2522.19 -21417.7 -7.41324 
15909 2 25.3949 7.78011 6.44929 5.95996 -89457.7 -225304 45610.1 -130854 24263.7 -34161.5 -7.41876 
15910 2 26.1263 6.56468 6.44891 5.95469 -97350.3 -220474 -39762.3 -123228 -7053.48 -24438.9 -7.41388 
15911 2 25.4348 5.3277 6.45153 5.96095 -114958 -203461 32871.1 -143381 23204 -32805.5 -7.41792 
15912 2 26.1659 4.11193 6.45104 5.95561 -124814 -196032 -25577.7 -133294 -11249.4 -27289.2 -7.41465 
15913 2 25.4756 2.87424 6.45377 5.96398 -140250 -181158 18262.1 -152131 21297.2 -31247.9 -7.41701 
15914 2 26.2061 1.65801 6.45304 5.95854 -151764 -171235 -9920.68 -139636 -14862.5 -29912.8 -7.41554 
15915 2 25.5167 0.419691 6.45568 5.96904 -164409 -158689 2566.1 -156859 18578.3 -29491.3 -7.41608 
16109 2 27.5057 9.0274 6.4418 5.95428 -77457 -233285 54610.5 -138296 24751.2 -32915.7 -7.41953 
16110 2 28.2368 7.81172 6.44156 5.95069 -85519.2 -229207 -48899.5 -132604 -6884.73 -21923.2 -7.41352 
16111 2 27.5441 6.57544 6.444 5.95424 -102940 -212222 42106.7 -152872 24430.9 -31631.2 -7.41869 
16112 2 28.275 5.35946 6.4439 5.95056 -112684 -205788 -34834.5 -144700 -11123.6 -24624.8 -7.41428 
16113 2 27.5836 4.12249 6.44663 5.95627 -128750 -190471 27408.6 -163809 23258.3 -30208.2 -7.41775 
16114 2 28.3139 2.9061 6.44653 5.95237 -139791 -181613 -18922.5 -153059 -14894.9 -27163.3 -7.41517 
16115 2 27.6235 1.66849 6.4493 5.96035 -153697 -168238 11195.9 -170693 21252.9 -28651.3 -7.41676 
16116 2 28.3532 0.451567 6.44906 5.95616 -165787 -157015 -1969.9 -157489 -18012 -29474.6 -7.41615 
3044 1 30.611 8.13008 2.94895 5.96872 -241070 -73370.1 54363.4 154084 24243.3 -32540.3 -7.41979 
3045 1 29.886 6.91016 2.94777 5.98008 -227901 -90273.8 -46368.7 173695 -10562.4 -20629.6 -7.41366 
3046 1 30.5746 5.67125 2.94911 5.96452 -222287 -95990.1 40238.2 164707 23713.3 -31587.3 -7.41886 
3047 1 29.8482 4.45217 2.94864 5.97361 -209064 -111596 -31231 182626 -14632.1 -22512.9 -7.41448 
3048 1 30.5373 3.21365 2.95071 5.96048 -201562 -119422 24155.6 170975 22487.4 -30241.2 -7.41783 
3049 1 29.8096 1.99535 2.95077 5.96489 -188630 -133377 -14500.6 186910 -18216.1 -24234.3 -7.41541 
3050 1 30.4993 0.757291 2.95338 5.95457 -178920 -143261 6793.86 172846 20568.5 -28533.3 -7.41677 
3245 1 32.028 8.12207 2.94778 5.97828 -234755 -80450.6 -54758.1 179689 -10192.9 -18313.5 -7.41331 
3246 1 32.7171 6.88343 2.94875 5.9628 -230120 -85266.4 48808.6 172662 24869 -29776.2 -7.4195 
3247 1 31.9917 5.66362 2.9488 5.97335 -217656 -100671 -40095 190776 -14214.3 -20011.6 -7.41409 
3248 1 32.6811 4.42532 2.95072 5.95936 -211425 -107421 33168.7 181123 24065.1 -28691.5 -7.41849 
3249 1 31.9544 3.20629 2.95142 5.96441 -199019 -121622 -23550.6 197461 -17856.3 -21561.7 -7.41501 
3250 1 32.6444 1.9684 2.95408 5.95324 -190794 -130299 15905.3 185287 22582.6 -27262 -7.41741 
3251 1 31.9166 0.750089 2.95518 5.95666 -178672 -142762 -5818.2 199431 -20899.2 -22990.9 -7.41602 
3446 1 34.8586 8.09749 2.94676 5.96184 -235952 -76266.8 56793.8 178120 25625.2 -27796.1 -7.4201 
3447 1 34.1342 6.87702 2.94722 5.97177 -224505 -91256.8 -48521 196250 -13675.9 -17676.7 -7.41371 
3448 1 34.824 5.63894 2.94894 5.95784 -219572 -97044.5 41829.8 188552 25202.3 -26946.6 -7.41911 
3449 1 34.0983 4.41925 2.95025 5.96471 -207770 -111027 -32465.9 204977 -17363.2 -19059.1 -7.41459 
3450 1 34.7885 3.18152 2.95295 5.95284 -200945 -118568 24998.2 194824 24114.4 -25776.9 -7.41803 
3451 1 34.0616 1.96255 2.9548 5.95636 -189337 -131279 -14895.8 209279 -20541.1 -20323.6 -7.41558 
3452 1 34.7525 0.725242 2.95823 5.94728 -180261 -140474 6929.64 196865 22365.3 -24313 -7.41693 
3647 1 36.2756 8.09215 2.94413 5.97083 -229359 -83199.8 -56340 199313 -13031.8 -15546.3 -7.41335 
3648 1 36.9659 6.85431 2.94558 5.95702 -225545 -88016.6 49940.2 193542 25952.5 -25082.6 -7.41968 
3649 1 36.2411 5.63399 2.94735 5.96554 -214714 -101634 -40991.4 209959 -16740.4 -16786.7 -7.41418 
3650 1 36.9317 4.39645 2.95005 5.95323 -209223 -108084 33778.8 201772 25225.8 -24152.1 -7.41863 
3651 1 36.2057 3.17684 2.95259 5.9568 -198269 -120757 -23891.4 216437 -20042.3 -17904.6 -7.41513 
3652 1 36.8968 1.93967 2.95627 5.947 -190867 -128800 16092.8 205935 23864.5 -22939.3 -7.41753 
3653 1 36.1697 0.72072 2.9592 5.94955 -179994 -140024 -5684.15 218433 -22740.3 -18936.2 -7.41618 
16310 2 30.3484 9.05653 6.43425 5.94788 -74918.1 -236024 -57591.5 -139602 -6544.78 -19382.6 -7.41316 
16311 2 29.6547 7.82091 6.43652 5.94893 -92118.4 -219210 51064.1 -159816 25092.7 -30032.4 -7.41941 
16312 2 30.3852 6.6047 6.43666 5.94682 -101333 -213767 -43956.4 -153646 -10742.9 -21886.6 -7.41389 
16313 2 29.6927 5.36838 6.43944 5.94988 -117688 -198409 36654.9 -172746 24599.9 -28699.3 -7.41847 
16314 2 30.4229 4.15183 6.43984 5.94758 -128132 -190757 -28184.9 -164003 -14621.8 -24284.8 -7.41475 
16315 2 29.7314 2.91488 6.44283 5.9529 -142836 -176980 20376.4 -181768 23271.6 -27299.1 -7.41746 
16316 2 30.461 1.69785 6.44331 5.95028 -154229 -167015 -10973.5 -170415 -17939.2 -26523.1 -7.41573 
16317 2 29.7705 0.460316 6.44624 5.95795 -166626 -155101 3014.72 -186506 21128.3 -25820.6 -7.41642 
16511 2 31.7664 9.06436 6.42892 5.94501 -82403 -224680 59488.8 -164363 25305.5 -28206.8 -7.42008 
16512 2 32.4965 7.84788 6.4291 5.94439 -91247.2 -220113 -52679.6 -160126 -10165.2 -19224 -7.4135 
16513 2 31.803 6.61217 6.43194 5.94492 -107428 -204956 45648.7 -179025 25430.4 -26927.4 -7.41916 
16514 2 32.5329 5.39541 6.43269 5.94423 -117439 -198517 -37362.2 -172334 -14074.4 -21447.3 -7.41433 
16515 2 31.8405 4.15908 6.43595 5.94682 -132403 -184738 29675.7 -190001 24730.3 -25640.1 -7.41814 
16516 2 32.5699 2.94192 6.43706 5.94572 -143337 -176159 -20275.6 -180700 -17551.6 -23570.3 -7.41528 
16517 2 31.8785 1.70501 6.44043 5.95077 -156366 -163951 12234.2 -196828 23210.9 -24337.2 -7.41708 
16518 2 32.6072 0.48733 6.44166 5.94848 -168046 -153346 -2213.72 -185008 -20410.9 -25532.3 -7.41633 
16712 2 34.6089 9.08925 6.42117 5.94307 -82695.8 -225174 -60822.4 -164320 -9477.23 -16729.4 -7.41315 
16713 2 33.9144 7.85411 6.424 5.94131 -98395.7 -210369 54148.3 -182905 25846.7 -25048.1 -7.4198 
16714 2 34.644 6.63711 6.42492 5.94192 -107843 -205014 -46189.5 -178248 -13328.4 -18754.9 -7.41392 
16715 2 33.9506 5.40136 6.42845 5.94214 -122889 -191312 38760.5 -195671 25720.6 -23837.6 -7.4188 
16716 2 34.6798 4.18403 6.43003 5.94203 -133078 -183933 -29540.2 -188418 -16893.8 -20732.6 -7.41483 
16717 2 33.9874 2.9477 6.4339 5.94494 -146666 -171593 21599.5 -204449 24781.7 -22668 -7.41774 
16718 2 34.7161 1.72993 6.43587 5.94366 -157485 -162357 -11551.1 -194662 -19947.6 -22608.4 -7.41585 
16719 2 34.0246 0.49309 6.4397 5.94971 -168974 -151468 3420.54 -209060 23042.8 -21512.1 -7.41665 
16913 2 36.0268 9.09442 6.41565 5.9389 -90638.2 -214156 61999.5 -184707 25938.2 -23170.2 -7.4204 
16914 2 36.756 7.87716 6.41656 5.94069 -99297.1 -209830 -54478.5 -181971 -12476.9 -16271.5 -7.41353 
16915 2 36.0617 6.64193 6.42024 5.9387 -114249 -196426 47387.5 -199068 26324.4 -22019.9 -7.41942 
16916 2 36.7907 5.42441 6.42214 5.93949 -123678 -190317 -38503.8 -193851 -16049.7 -18080.9 -7.41439 
16917 2 36.0974 4.18862 6.42645 5.94041 -137518 -178012 30787.2 -209675 25918.2 -20945.2 -7.41837 
16918 2 36.8259 2.97072 6.42905 5.94007 -147602 -170098 -20899.9 -201938 -19235.2 -19839.3 -7.41536 
16919 2 36.1335 1.73442 6.43356 5.94403 -159638 -159133 12829 -216226 24716.6 -19932.8 -7.41727 
16920 2 36.8614 0.516041 6.43651 5.94256 -170258 -149490 -2415.82 -206034 -21864.4 -21481.7 -7.41642 
3848 1 39.1069 8.0712 2.94103 5.95683 -229630 -80693.8 57377.4 196382 26364.4 -23143.8 -7.42021 
3849 1 38.383 6.85031 2.94303 5.96527 -219721 -93797.3 -48951.4 212696 -16010.1 -14747.5 -7.41379 
3850 1 39.074 5.61298 2.94566 5.95311 -215653 -99176.9 42041.4 206421 25972.8 -22427.2 -7.4192 
3851 1 38.3488 4.39278 2.94871 5.95777 -205377 -111480 -32548.1 221064 -19411.5 -15753.5 -7.41469 
3852 1 39.0402 3.15576 2.95257 5.94746 -199531 -118310 24987.9 212544 24970 -21450.2 -7.41811 
3853 1 38.314 1.93621 2.95626 5.9501 -189301 -129529 -14758.6 225283 -22295.2 -16660.3 -7.4157 
3854 1 39.0059 0.699553 2.96098 5.94234 -181316 -137809 6786.12 214635 23361.2 -20232.4 -7.417 
4048 1 41.2471 9.28941 2.93589 5.95713 -231964 -74853.7 64095.1 197379 26483.5 -21163 -7.4207 
4049 1 40.524 8.06801 2.93779 5.96507 -222850 -87288.4 -56239.6 213493 -15201 -12910.4 -7.41344 
4050 1 41.2154 6.83089 2.94027 5.95295 -220160 -91680.5 49665.4 209050 26406.3 -20624.1 -7.41972 
4051 1 40.4911 5.61016 2.94353 5.9591 -210640 -103474 -40682.9 223567 -18668.7 -13844.6 -7.41428 
4052 1 41.1828 4.3733 2.94748 5.94837 -206367 -109233 33406.6 216902 25735.8 -19862.1 -7.41866 
4053 1 40.4573 3.15321 2.9517 5.95115 -196781 -120362 -23546.7 229819 -21711.6 -14666.3 -7.41523 
4054 1 41.1494 1.91666 2.95676 5.94277 -190539 -127466 15768.6 221071 24490.7 -18871.6 -7.41757 
4055 1 40.4231 0.697148 2.96148 5.94457 -180984 -137392 -5406.24 231889 -24158.5 -15409.5 -7.41628 
4249 1 42.6642 9.28691 2.93229 5.96531 -224426 -82360.8 -62816.9 212601 -14343.6 -11233.4 -7.41312 
4250 1 43.3561 8.05002 2.93456 5.95327 -222834 -85720.7 56598.6 209932 26573 -18770.7 -7.4202 
4251 1 42.6325 6.8288 2.93765 5.96036 -214197 -97060.9 -48188.8 224406 -17841.3 -12126.8 -7.4139 
4252 1 43.3245 5.59212 2.9416 5.94945 -211424 -101793 41223.1 219515 26216.1 -18187.5 -7.41919 
4253 1 42.5999 4.37152 2.94599 5.95252 -202472 -112486 -31864 232363 -21006.7 -12908.2 -7.41479 
4254 1 43.2922 3.1351 2.95127 5.94364 -197793 -118395 24322.4 225500 25310.6 -17407.8 -7.41812 
4255 1 42.5666 1.91508 2.9565 5.9456 -188902 -128086 -14305.9 236487 -23653.9 -13592.2 -7.41579 
4256 1 43.2594 0.678964 2.96263 5.93912 -182028 -135281 6402.89 227611 23862.1 -16441.5 -7.41703 
4450 1 45.4961 9.27019 2.92927 5.95398 -223813 -81281 62851.8 209233 26520.7 -16899.8 -7.42064 
4451 1 44.7732 8.04854 2.9318 5.96064 -215938 -91982.3 -55022 223539 -16955.3 -10550.4 -7.41355 
4452 1 45.4656 6.81205 2.93567 5.95009 -214426 -95646.1 48392.9 220398 26459.9 -16452.3 -7.41967 
4453 1 44.7416 5.591 2.93979 5.95412 -206328 -105891 -39601.3 233201 -20207 -11322.1 -7.41439 
4454 1 45.4343 4.35472 2.94517 5.94489 -203159 -110858 32325.9 227971 25873.2 -15849.1 -7.41864 
4455 1 44.7094 3.13423 2.9505 5.94698 -194996 -120390 -22793.3 239155 -23020.3 -11989.9 -7.41533 
4456 1 45.4023 1.89821 2.95691 5.93995 -189808 -126359 15059.3 232109 24772.1 -15086.8 -7.41757 
4457 1 44.6766 0.678226 2.96295 5.94114 -181633 -134873 -5096.13 241298 -25251.1 -12571.3 -7.41635 
4651 1 46.9132 9.26921 2.92674 5.96127 -216132 -88332.3 -61206.9 221320 -16032.3 -9072.56 -7.41325 
4653 1 46.8827 6.81148 2.9339 5.95583 -208356 -100773 -46720 232523 -19333.9 -9850.68 -7.41402 