ITEM: TIMESTEP
0
ITEM: NUMBER OF ATOMS
26936
ITEM: BOX BOUNDS pp pp pp
0.0000000000000000e+00 1.4251150300000000e+02
0.0000000000000000e+00 2.4683716400000000e+02
0.0000000000000000e+00 1.5000000000000000e+01
ITEM: ATOMS id type x y z c_csym c_2[1] c_2[2] c_2[3] c_2[4] c_2[5] c_2[6] c_3 
229 1 0.783 8.59 3 6.02406 -137069 -130901 -154828 10800.9 11593.6 -1685 -7.41038 
230 1 0.063 7.368 3 6.01988 -147618 -119335 -154826 790.235 11385.2 -321.38 -7.41051 
231 1 0.762 6.134 3 6.02366 -127549 -115352 -156136 -2062.16 8323.94 -1445.88 -7.41026 
232 1 0.042 4.912 3 6.02516 -147173 -121068 -156524 3890.62 7335.69 -228.894 -7.41018 
233 1 0.741 3.678 3 6.0239 -126166 -116469 -157096 2991.67 5064.31 -1263.3 -7.41022 
234 1 0.021 2.456 3 6.02705 -144590 -119273 -157449 4954.65 3562.54 -111.81 -7.4106 
235 1 0.72 1.222 3 6.02411 -172720 -113615 -157635 3979.73 1746.48 -1082.81 -7.41089 
236 1 0 0 3 6.02774 -153499 -126080 -157732 13429.7 12.089 7.95898 -7.41077 
431 1 2.201 8.577 3 6.02248 -138193 -150686 -153569 1019.64 13402.5 -3026.16 -7.41097 
432 1 2.899 7.343 3 6.02341 -143438 -143696 -155024 -1462.03 10015.2 -5122.94 -7.41111 
433 1 2.18 6.121 3 6.02248 -134793 -152372 -155631 -637.719 9184.78 -3036.68 -7.41096 
434 1 2.878 4.887 3 6.02366 -151525 -176989 -156290 -17224.1 6639.12 -4708.56 -7.41115 
435 1 2.159 3.666 3 6.01953 -136229 -152249 -156896 -33582.4 5307.8 -2984.78 -7.41068 
436 1 2.857 2.431 3 6.01835 -134353 -131810 -157052 -23217.1 3351.31 -4342.37 -7.41029 
437 1 2.137 1.21 3 6.02214 -179316 -143336 -157494 -16755.2 1586.18 -2969.11 -7.41086 
632 1 5.037 8.553 3 6.02603 -129265 -115658 -153101 2008.57 11913.6 -8917.87 -7.41041 
633 1 4.317 7.331 3 6.02603 -121372 -122890 -154338 6383.32 11015.7 -5689.98 -7.41035 
634 1 5.016 6.097 3 6.0241 -127458 -114685 -154539 2238.77 8599.93 -8440.39 -7.41056 
635 1 4.296 4.875 3 6.02691 -130796 -134614 -155919 19717.3 6956.85 -5732.65 -7.41058 
636 1 4.994 3.641 3 6.02246 -140643 -147598 -155717 1568.01 5220.26 -7832.14 -7.41087 
637 1 4.275 2.419 3 6.02329 -138828 -149918 -156715 7076.93 3071.85 -5974.57 -7.41072 
638 1 4.973 1.185 3 6.02446 -147372 -174268 -156445 -15057.9 1848.57 -7318.29 -7.4111 
833 1 6.455 8.541 3 6.02341 -136567 -151985 -152725 3674.95 12867.4 -8444.5 -7.41122 
834 1 7.153 7.307 3 6.02248 -145409 -144158 -152117 -2952.56 10651.2 -12250 -7.41105 
835 1 6.434 6.085 3 6.0222 -138369 -153084 -154544 5626.33 8604.86 -8629.23 -7.41068 
836 1 7.132 4.851 3 6.02475 -136100 -131146 -153600 14228.6 7304.36 -11553.7 -7.41058 
837 1 6.412 3.629 3 6.0241 -122493 -119500 -155613 7632.44 4568.57 -8847.98 -7.4105 
838 1 7.111 2.395 3 6.02498 -124563 -118020 -154704 483.091 3906.58 -10861.1 -7.41048 
839 1 6.391 1.173 3 6.02538 -121510 -113876 -155884 3623.25 901.189 -9122.43 -7.41038 
1034 1 9.291 8.516 3 6.0241 -177798 -113754 -148550 -2185.75 12941.4 -16563.6 -7.41122 
1035 1 8.571 7.294 3 6.02279 -130147 -139270 -152894 16313 10299.4 -11520.4 -7.41047 
1036 1 9.269 6.06 3 6.02197 -150190 -180661 -150730 -20859 9384.71 -15586.5 -7.41144 
1037 1 8.55 4.839 3 6.02097 -138755 -151921 -154088 -28584.1 6220.37 -11779.7 -7.4108 
1038 1 9.248 3.604 3 6.02097 -140057 -148753 -152293 -38941.3 5980.8 -14676.4 -7.41112 
1039 1 8.529 2.383 3 6.02341 -145988 -181800 -154585 -13393 2347.43 -12077.8 -7.41147 
1040 1 9.227 1.149 3 6.02168 -138892 -144291 -153508 -1251.47 2446.96 -13765.4 -7.41084 
13499 2 0.635 8.602 6.4 6.02649 -132523 -137005 -153643 -1394.02 13626.6 -491.383 -7.41033 
13500 2 0.656 6.146 6.4 6.02745 -128907 -135798 -155739 -4907.69 9403.5 -611.256 -7.41068 
13501 2 0.677 3.69 6.4 6.02826 -127222 -135033 -157040 -3165.16 5490.18 -735.935 -7.41083 
13502 2 0.698 1.234 6.4 6.02665 -133118 -141682 -157656 -10605.7 1876.73 -910.445 -7.41074 
13503 2 0 0 6.4 6.02886 -155647 -127082 -157764 -17249.4 -17.667 11.5737 -7.4104 
13697 2 2.053 8.614 6.4 6.02795 -146748 -142622 -154559 -3931.25 11786.6 -3162.88 -7.41092 
13698 2 2.772 7.392 6.4 6.0234 -135567 -152270 -154590 -1863.97 11535.4 -3251.44 -7.41105 
13699 2 2.074 6.158 6.4 6.02794 -135228 -129449 -155914 -17096.2 8524.81 -3095.8 -7.41067 
13700 2 2.794 4.936 6.4 6.0239 -169997 -118210 -156233 -2577.13 7357.72 -3482.47 -7.41084 
13701 2 2.095 3.702 6.4 6.02722 -125480 -117553 -156884 -3776.34 5266.18 -2947.24 -7.4102 
13702 2 2.815 2.48 6.4 6.02364 -122140 -120083 -157148 3156.57 3582.53 -3732.17 -7.41022 
13703 2 2.116 1.246 6.4 6.02504 -121865 -120563 -157411 -1685.37 1836.54 -2941.4 -7.4102 
13704 2 2.836 0.024 6.4 6.02172 -128356 -148398 -157415 -12211.9 30.8996 -3930.91 -7.41039 
13898 2 4.889 8.638 6.4 6.02367 -119454 -124285 -153082 4079.18 13733.9 -5816.12 -7.4105 
13899 2 4.19 7.404 6.4 6.02354 -136003 -148521 -154331 15910.1 10477.8 -6663.9 -7.41067 
13900 2 4.91 6.183 6.4 6.02179 -121148 -123634 -155014 36421.3 9453.87 -6140.78 -7.41018 
13901 2 4.211 4.948 6.4 6.02021 -173944 -115328 -155643 32245.6 7165.8 -6453.34 -7.41073 
13902 2 4.931 3.727 6.4 6.0231 -140007 -166647 -156169 7295.2 5361.89 -6506.08 -7.41076 
13903 2 4.233 2.493 6.4 6.0197 -138176 -150302 -156484 -250.853 3866.7 -6319.07 -7.41071 
13904 2 4.952 1.271 6.4 6.02364 -140777 -147020 -156556 1134.93 1684.86 -6881.29 -7.41084 
13905 2 4.254 0.037 6.4 6.02208 -136639 -140868 -156928 -3274.92 483.044 -6039.28 -7.41113 
14099 2 6.307 8.651 6.4 6.01969 -144134 -145710 -151942 -191.14 12615.7 -10558.1 -7.41105 
14100 2 7.026 7.429 6.4 6.02508 -140464 -151714 -153472 937.077 11448.4 -8772.62 -7.41073 
14101 2 6.328 6.195 6.4 6.02302 -142622 -144867 -153545 -5178.63 9320.86 -10103.7 -7.41119 
14102 2 7.047 4.973 6.4 6.0258 -137016 -150462 -154851 602.518 7316.75 -9156.23 -7.41112 
14103 2 6.349 3.739 6.4 6.02549 -142576 -145008 -154859 -7445.63 5939.09 -9717.4 -7.41104 
14104 2 7.068 2.517 6.4 6.02463 -137661 -151075 -155467 -26.1225 3460.51 -9658.72 -7.41088 
14105 2 6.37 1.283 6.4 6.02795 -134231 -132004 -155655 -20381.8 2571.72 -9383.35 -7.41049 
14106 2 7.09 0.061 6.4 6.02412 -122062 -111713 -155376 2543.48 -314.382 -10256 -7.41062 
14300 2 9.142 8.675 6.4 6.02463 -136480 -155113 -151476 1909.78 13579.1 -11498 -7.41106 
14301 2 8.444 7.441 6.4 6.02795 -138817 -129842 -150576 -19228.3 11618.9 -14129.5 -7.41073 
14302 2 9.164 6.219 6.4 6.02387 -169436 -120269 -153141 927.34 9022.93 -12011.8 -7.4111 
14303 2 8.465 4.985 6.4 6.02531 -128998 -117905 -152332 -6200.92 8312.67 -13451.3 -7.41021 
14304 2 9.185 3.763 6.4 6.02364 -122074 -122504 -153924 6612.2 4988.15 -12566.6 -7.41037 
14305 2 8.486 2.529 6.4 6.0241 -125484 -117121 -153524 -4128.31 4943.52 -12922.5 -7.4106 
14306 2 9.206 1.307 6.4 6.02376 -131319 -136757 -154061 -7603.16 1168.75 -13076.1 -7.41045 
14307 2 8.508 0.073 6.4 6.02288 -144063 -179548 -154339 10470.8 1387.08 -12490.3 -7.41112 
1235 1 10.708 8.504 3 6.0241 -170143 -122303 -150956 11133.9 12102 -14345.9 -7.41108 
1236 1 11.407 7.27 3 6.02603 -129095 -117895 -146688 863.296 11859.1 -19833 -7.41075 
1237 1 10.687 6.048 3 6.02413 -121557 -123883 -152291 9751.4 7709.97 -14681.8 -7.41056 
1238 1 11.386 4.814 3 6.0241 -126812 -119520 -148653 -662.214 8441.15 -18870.4 -7.41064 
1239 1 10.666 3.592 3 6.02392 -123373 -122392 -152798 10122.4 3548.47 -15259.2 -7.41042 
1240 1 11.365 2.358 3 6.02411 -175457 -117394 -150411 -2127.54 4901.18 -17912.2 -7.4109 
1241 1 10.645 1.136 3 6.02385 -131036 -131024 -152619 13290.9 -252.738 -15759.5 -7.41048 
1436 1 13.544 8.48 3 6.02248 -144403 -147129 -141640 -6415.94 14381.3 -24336 -7.4118 
1437 1 12.825 7.258 3 6.02341 -137485 -153906 -150297 7274.27 9249.82 -17689.3 -7.41132 
1438 1 13.523 6.024 3 6.02248 -144890 -147566 -144309 -5252.6 10899.3 -23166.9 -7.41145 
1439 1 12.804 4.802 3 6.0222 -139411 -155022 -150938 8960.93 5044.06 -18240.2 -7.41084 
1440 1 13.502 3.568 3 6.02335 -135779 -133598 -146471 10791.5 7383.74 -22112.5 -7.41105 
1441 1 12.782 2.346 3 6.02409 -172057 -119699 -150733 11022.7 1014.62 -18929.9 -7.41112 
1442 1 13.481 1.112 3 6.02592 -124268 -115921 -148369 1913.35 3647.81 -21044.2 -7.41063 
1637 1 14.962 8.467 3 6.02367 -122154 -127703 -148072 7404.36 10798.8 -20719.1 -7.41063 
1638 1 15.661 7.233 3 6.0241 -129057 -119000 -138635 -4663.12 13517.3 -27854.7 -7.41137 
1639 1 14.941 6.011 3 6.02336 -130638 -142316 -148736 20711.2 6416.96 -21380.2 -7.41066 
1640 1 15.639 4.777 3 6.02197 -148448 -187073 -141709 -23515.8 9922.76 -26545.8 -7.41178 
1641 1 14.92 3.556 3 6.02341 -147116 -187880 -148675 -8412.21 2312.62 -22021 -7.41139 
1642 1 15.618 2.322 3 6.02248 -139316 -153039 -144303 -8432.18 6246.91 -25205.6 -7.41155 
1643 1 14.899 1.1 3 6.02364 -139966 -146480 -147720 5573.96 -1707.3 -22762.4 -7.41121 
1838 1 17.798 8.443 3 6.02795 -147402 -149498 -132036 -283.734 16250.8 -32390.8 -7.41209 
1839 1 17.079 7.221 3 6.02463 -138066 -158361 -146567 13661.5 7763.14 -24207.5 -7.41128 
1840 1 17.777 5.987 3 6.02795 -137853 -136374 -135246 11346.5 12720.8 -31200 -7.41151 
1841 1 17.057 4.765 3 6.02387 -122999 -124844 -146396 13229.3 3334.9 -25156.3 -7.41105 
1842 1 17.756 3.531 3 6.0241 -128390 -124444 -138459 -4966.81 9140.68 -29855.6 -7.4109 
1843 1 17.036 2.309 3 6.02336 -123251 -127387 -145104 8022.11 -759.732 -26185 -7.41069 
1844 1 17.735 1.075 3 6.02256 -180268 -148667 -141342 -21028.8 5414.56 -28646.1 -7.41188 
14501 2 10.56 8.687 6.4 6.0241 -129795 -117377 -146678 -3351.63 13998.5 -18326.6 -7.41074 
14502 2 11.28 7.465 6.4 6.0231 -120558 -127341 -151348 7138.34 10992.8 -14752.8 -7.41036 
14503 2 10.581 6.231 6.4 6.02212 -182330 -150233 -148827 13016.7 10681.5 -17634 -7.41141 
14504 2 11.301 5.01 6.4 6.0231 -138703 -172138 -152136 11148.3 6704.5 -15470.9 -7.41083 
14505 2 10.603 3.776 6.4 6.0197 -139401 -151755 -150496 -2692.4 7300.48 -17011.6 -7.41101 
14506 2 11.322 2.554 6.4 6.02364 -140549 -150396 -152159 4458.18 2723.6 -16188.3 -7.41103 
14507 2 10.624 1.32 6.4 6.02248 -142135 -147559 -151802 -4406.57 3833.73 -16374.6 -7.41108 
14508 2 11.343 0.098 6.4 6.02221 -139605 -146177 -151520 6625.18 -1194.08 -17005.6 -7.41081 
14702 2 13.396 8.712 6.4 6.02364 -139432 -154752 -149225 6725.76 12795.7 -17559.9 -7.41116 
14703 2 12.698 7.478 6.4 6.02248 -143711 -146889 -144238 -2026.15 13303.5 -21960.7 -7.41166 
14704 2 13.417 6.256 6.4 6.02364 -139029 -154477 -150182 6143.61 8356.76 -18292.1 -7.41109 
14705 2 12.719 5.022 6.4 6.02302 -143982 -147073 -146557 -9630.08 9887.84 -21087.5 -7.41146 
14706 2 13.438 3.8 6.4 6.02463 -137909 -154630 -150369 3437.02 4179.36 -19101 -7.41112 
14707 2 12.74 2.566 6.4 6.02795 -135334 -134431 -148534 -22819.4 6312.19 -20280.5 -7.41083 
14708 2 13.46 1.344 6.4 6.0241 -124128 -121103 -149658 2450.87 117.424 -20063.1 -7.41081 
14709 2 12.761 0.11 6.4 6.02411 -124940 -116848 -149862 -11034.3 2748.17 -19616.3 -7.41031 
14903 2 14.814 8.724 6.4 6.02795 -139661 -133152 -138609 -21884.9 15963.6 -26553 -7.41134 
14904 2 15.534 7.502 6.4 6.0241 -121858 -125616 -147952 5107.01 9962.69 -21259.9 -7.41097 
14905 2 14.835 6.268 6.4 6.02531 -128297 -120664 -141394 -8862.44 12564 -25610.3 -7.41101 
14906 2 15.555 5.046 6.4 6.02392 -122869 -126656 -147996 5126.52 5499.14 -22156.8 -7.41064 
14907 2 14.856 3.812 6.4 6.0241 -128483 -120215 -144076 -8167.98 9116.11 -24491.9 -7.41083 
14908 2 15.576 2.59 6.4 6.02336 -132839 -138688 -147542 -4160.56 1454.65 -23039.4 -7.41086 
14909 2 14.878 1.356 6.4 6.02221 -139264 -154670 -146221 -6315.7 5432.89 -23602.8 -7.41124 
14910 2 15.597 0.134 6.4 6.023 -146308 -181757 -146225 -6688.91 -2490.4 -24110.4 -7.41151 
15104 2 17.65 8.748 6.4 6.02336 -130377 -145790 -145736 -1704.57 11529.1 -23956.7 -7.41079 
15105 2 16.952 7.514 6.4 6.02197 -152093 -184205 -135387 12052.4 15337.6 -30061.7 -7.41222 
15106 2 17.671 6.293 6.4 6.02097 -139521 -157923 -145843 43256.1 7010.4 -25019.3 -7.41118 
15107 2 16.973 5.058 6.4 6.02097 -141975 -152231 -138599 28961.4 11779 -29035.7 -7.41182 
15108 2 17.692 3.837 6.4 6.02341 -146370 -188199 -145084 26966.9 2734.04 -26206.3 -7.4119 
15109 2 16.994 2.603 6.4 6.02248 -141990 -153530 -141163 -6759.03 8297.11 -28145.4 -7.41147 
15110 2 17.713 1.381 6.4 6.02197 -139746 -155671 -143421 8501.68 -1313.32 -27358.9 -7.41148 
15111 2 17.015 0.147 6.4 6.02198 -133269 -131275 -143631 -22070 4606.26 -27044 -7.41117 
2039 1 19.216 8.431 3 6.02364 -133579 -143243 -144201 24165.4 9060.45 -27087.3 -7.41099 
2040 1 19.914 7.197 3 6.02109 -144031 -153857 -128212 -8024.85 15486.9 -35748.8 -7.41228 
2041 1 19.195 5.975 3 6.02508 -142736 -157176 -143767 13900.7 4640.79 -28181.6 -7.41118 
2042 1 19.893 4.741 3 6.02302 -145202 -152507 -132148 -2483.42 11846.6 -34394.7 -7.41207 
2043 1 19.174 3.519 3 6.02246 -139292 -157882 -142718 13565.4 448.273 -29227.7 -7.41149 
2044 1 19.872 2.285 3 6.02691 -136213 -138064 -135578 8246.51 8166.25 -33059.9 -7.41162 
2045 1 19.152 1.063 3 6.02409 -171654 -117216 -140782 10233.6 -3608.41 -30337.7 -7.41171 
2240 1 22.052 8.406 3 6.02387 -131085 -124641 -119612 -5102.45 18266.4 -40361.7 -7.41215 
2241 1 21.332 7.184 3 6.02367 -122110 -133767 -141225 10553 5752.44 -30980.1 -7.41083 
2242 1 22.031 5.95 3 6.02354 -136651 -156903 -124381 -24076.1 14802.3 -38969.6 -7.41243 
2243 1 21.311 4.729 3 6.02066 -133096 -145097 -140078 -9719.87 1469.01 -32095 -7.41108 
2244 1 22.009 3.494 3 6.01953 -141596 -158802 -128841 -42960.1 11135.1 -37427 -7.4121 
2245 1 21.29 2.273 3 6.02367 -150476 -188730 -138075 -5768.44 -2777.61 -33265.9 -7.41206 
2246 1 21.988 1.039 3 6.02168 -138396 -152869 -132685 -7954.52 7294.48 -35924 -7.4121 
2441 1 23.47 8.394 3 6.02796 -139345 -161410 -138941 16733.7 6794.83 -33226.1 -7.41185 
2442 1 24.168 7.16 3 6.02795 -147402 -154954 -115571 -2067.13 17613.9 -43142.3 -7.41294 
2443 1 23.449 5.938 3 6.02217 -139008 -161770 -137570 16060.1 2319.88 -34593.3 -7.41184 
2444 1 24.147 4.704 3 6.02723 -138127 -141848 -120202 9266.13 14108.6 -41861.1 -7.41228 
2445 1 23.427 3.482 3 6.0239 -125383 -129142 -135316 15346.9 -2007.09 -36059.3 -7.41149 
2446 1 24.126 2.248 3 6.02531 -129140 -129502 -124846 -7292.97 10505.5 -40385.9 -7.41161 
2447 1 23.406 1.026 3 6.02431 -123190 -126479 -131834 5951.85 -6029.41 -37551.2 -7.41132 
2642 1 26.306 8.37 3 6.02364 -130902 -126748 -105264 -8214.65 20354.9 -47237.6 -7.41311 
2643 1 25.586 7.148 3 6.02652 -136129 -148187 -134880 29472.5 3149.79 -36895.8 -7.41121 
2644 1 26.284 5.914 3 6.02023 -144589 -159566 -111323 -4807.23 16938 -45861.8 -7.41316 
2645 1 25.565 4.692 3 6.02723 -142887 -160713 -132311 17924.5 -1116.24 -38459.8 -7.412 
2646 1 26.263 3.458 3 6.02549 -142764 -158244 -116741 -6104.57 13431.5 -44409.1 -7.4132 
2647 1 25.544 2.236 3 6.02796 -141513 -159725 -129122 15101 -5178.41 -39916.9 -7.41242 
2648 1 26.242 1.002 3 6.02714 -143450 -153364 -121800 -2169.07 9776.31 -42813.2 -7.41256 
2843 1 27.724 8.357 3 6.0183 -138451 -168586 -132469 13447.8 3915.34 -38515 -7.41184 
2844 1 28.422 7.123 3 6.02331 -147986 -177010 -100819 -11388.5 19817.7 -49498.1 -7.41363 
2845 1 27.702 5.902 3 6.02161 -124933 -134991 -129711 -20195.1 -537.549 -40327.5 -7.41161 
2846 1 28.401 4.667 3 6.0204 -128521 -133595 -107107 -43635.9 16446.3 -48048.6 -7.41265 
2847 1 27.681 3.446 3 6.02331 -134554 -166256 -126186 -3305.89 -4680.73 -41968.1 -7.41205 
2848 1 28.38 2.212 3 6.02223 -174958 -131560 -113230 -10876.8 12855.8 -46530.4 -7.41292 
2849 1 27.66 0.99 3 6.02507 -137886 -140495 -121949 23298.3 -8601.31 -43478.4 -7.4119 
15305 2 19.068 8.761 6.4 6.02248 -147609 -150047 -127887 -5034.66 18127.2 -34739.3 -7.4123 
15306 2 19.787 7.539 6.4 6.0222 -139783 -161168 -143450 9401.02 8354.41 -27817.9 -7.41118 
15307 2 19.089 6.305 6.4 6.02335 -139066 -136363 -131805 -22349.7 14729.9 -33557 -7.41169 
15308 2 19.809 5.083 6.4 6.0241 -171954 -126310 -142643 5981.24 3883.47 -29096.1 -7.41148 
15309 2 19.11 3.849 6.4 6.02498 -127307 -123592 -135202 -11814.9 11209.2 -32480.7 -7.41145 
15310 2 19.83 2.627 6.4 6.0241 -124366 -128350 -141050 5973.88 -322.943 -30358.4 -7.41099 
15311 2 19.131 1.393 6.4 6.0241 -126396 -125224 -138300 -11927.9 7445.13 -31393.5 -7.41117 
15312 2 19.851 0.171 6.4 6.02429 -124115 -120272 -138534 7403.28 -4331.63 -31728.6 -7.41125 
15506 2 21.904 8.785 6.4 6.0241 -123407 -132927 -141031 8882.12 9521.02 -30413.5 -7.41096 
15507 2 21.205 7.551 6.4 6.0241 -129998 -124705 -123742 -10110.4 17571.7 -38186 -7.41193 
15508 2 21.925 6.329 6.4 6.02498 -123707 -130780 -139980 7279.58 5073.56 -31791.6 -7.41114 
15509 2 21.226 5.095 6.4 6.0241 -176796 -122359 -128237 -11880.5 14098.6 -36920.7 -7.41227 
15510 2 21.946 3.873 6.4 6.02335 -134604 -143353 -138014 -5018.51 716.044 -33247.2 -7.41132 
15511 2 21.248 2.639 6.4 6.0222 -143805 -157028 -132064 -10235.4 10482 -35585.8 -7.41181 
15512 2 21.967 1.417 6.4 6.02289 -141090 -158857 -135924 10336.8 -3363.23 -34506.6 -7.41174 
15513 2 21.269 0.183 6.4 6.02446 -146218 -185160 -135322 5506.49 6713.64 -34480.1 -7.41228 
15707 2 23.322 8.797 6.4 6.02197 -146204 -155789 -114906 -6280.12 20351.4 -42317.8 -7.41298 
15708 2 24.041 7.575 6.4 6.02248 -139649 -163791 -137779 13361.7 6063.9 -34061 -7.41158 
15709 2 23.343 6.341 6.4 6.02341 -152385 -187596 -119791 10429.4 17041.7 -41188.6 -7.41324 
15710 2 24.062 5.12 6.4 6.02097 -138798 -162479 -135725 47423.4 1654.52 -35676.4 -7.4119 
15711 2 23.364 3.885 6.4 6.02097 -144750 -157002 -124347 24937.4 13469.2 -40011.3 -7.41233 
15712 2 24.083 2.664 6.4 6.02197 -147971 -194256 -132879 28766.3 -2525.25 -37328 -7.4123 
15713 2 23.385 1.43 6.4 6.02336 -135081 -144302 -128331 -21752.9 9865.68 -38827.1 -7.41174 
15714 2 24.105 0.208 6.4 6.02409 -126850 -123116 -129049 11099.9 -6582.02 -38905.6 -7.41156 
15908 2 26.157 8.822 6.4 6.02197 -139375 -165749 -135388 14399.4 6969.9 -36056.8 -7.41182 
15909 2 25.459 7.588 6.4 6.02336 -139934 -141444 -110110 -19159.9 19846.7 -45264.7 -7.41283 
15910 2 26.179 6.366 6.4 6.0241 -126498 -133374 -133118 11153.3 2367.46 -37893.9 -7.41133 
15911 2 25.48 5.132 6.4 6.02392 -129306 -129044 -115482 -11689.4 16500.8 -44038.6 -7.41235 
15912 2 26.2 3.91 6.4 6.02531 -125406 -133763 -130086 8778.47 -1835.91 -39579.1 -7.41153 
15913 2 25.501 2.676 6.4 6.0241 -127574 -127707 -120452 -13466.4 12975.5 -42749.3 -7.41241 
15914 2 26.221 1.454 6.4 6.02795 -136040 -145699 -126170 -5941.7 -5909.2 -41243.9 -7.41195 
15915 2 25.523 0.22 6.4 6.02423 -140898 -155186 -125056 -17522.1 9194.33 -41342.3 -7.41239 
16109 2 27.575 8.834 6.4 6.0241 -131992 -127504 -99287.2 -11015.8 22575.5 -48900.3 -7.41342 
16110 2 28.295 7.612 6.4 6.02795 -134588 -150265 -130712 -2803.94 3039.83 -39439.8 -7.41165 
16111 2 27.597 6.378 6.4 6.02463 -145435 -160156 -106027 -11826.7 19299.3 -47657.5 -7.41344 
16112 2 28.316 5.156 6.4 6.02549 -142325 -162949 -127195 8800.64 -1109.27 -41410.5 -7.41238 
16113 2 27.618 3.922 6.4 6.0258 -144306 -159182 -111668 -12704.4 15930.5 -46376.4 -7.41334 
16114 2 28.337 2.7 6.4 6.02302 -141401 -162787 -123377 9700.21 -5175.48 -43156.3 -7.41269 
16115 2 27.639 1.466 6.4 6.02508 -147366 -159693 -116942 -13870.5 12311 -45019.7 -7.41261 
16116 2 28.358 0.244 6.4 6.02091 -139336 -160153 -118631 16152.6 -9113.81 -44877.3 -7.4126 
3044 1 30.559 8.333 3 6.02463 -146833 -162070 -89631.7 -3714.54 22295 -52481.4 -7.41431 
3045 1 29.84 7.111 3 6.02549 -142741 -164211 -127440 19993.1 52.6289 -41530.6 -7.41235 
3046 1 30.538 5.877 3 6.02723 -147948 -160533 -96525.5 -3615.73 19229.5 -51243.2 -7.41393 
3047 1 29.819 4.655 3 6.02163 -141587 -166030 -123500 17352.8 -4128.19 -43411.7 -7.41245 
3048 1 30.517 3.421 3 6.02508 -141151 -147239 -102856 4612.87 15839.7 -49899.1 -7.41293 
3049 1 29.797 2.199 3 6.02248 -174046 -133946 -118772 12179.1 -8202.73 -45308.6 -7.4126 
3050 1 30.496 0.965 3 6.02395 -133845 -163643 -109411 -24607.3 12428.3 -48247.7 -7.41282 
3245 1 31.977 8.321 3 6.0241 -126329 -138630 -125143 16157.2 307.204 -42286.7 -7.41175 
3246 1 32.676 7.087 3 6.02364 -131391 -132123 -84892.5 -9512.64 21776.3 -53899 -7.41418 
3247 1 31.956 5.865 3 6.02652 -138029 -151760 -120938 30692.2 -3793.39 -44343 -7.41193 
3248 1 32.654 4.631 3 6.02023 -144755 -164523 -92505.5 -6076.33 18754.2 -52537.4 -7.41426 
3249 1 31.935 3.409 3 6.02795 -144957 -164531 -115825 18975.8 -7741.89 -46225.9 -7.41285 
3250 1 32.633 2.175 3 6.02796 -144683 -163503 -99785.7 -7546.91 15570.2 -50963.2 -7.41397 
3251 1 31.914 0.953 3 6.02383 -141689 -157849 -110170 12669.6 -11543.6 -47968 -7.41349 
3446 1 34.813 8.296 3 6.02364 -150175 -162616 -72552.4 -6273.6 24199.3 -55691.1 -7.41521 
3447 1 34.094 7.074 3 6.0183 -140278 -171675 -118854 14280 -3666.53 -44463 -7.41254 
3448 1 34.792 5.84 3 6.0231 -147312 -184514 -80699.7 -12851.2 21468.9 -54524.8 -7.41456 
3449 1 34.072 4.619 3 6.02352 -134057 -171773 -113531 -2393.48 -7559.37 -46598.7 -7.41279 
3450 1 34.771 3.385 3 6.02367 -128610 -139211 -88979.6 -11897.9 18417.3 -53126.8 -7.41361 
3451 1 34.051 2.163 3 6.02531 -128796 -137351 -107446 13602.1 -11246.1 -48476.7 -7.41274 
3452 1 34.75 0.929 3 6.02325 -128029 -129815 -96529.2 -9888.83 15252 -51552.1 -7.41351 
3647 1 36.231 8.284 3 6.02795 -137468 -153269 -117515 32901.3 -3583.89 -43942 -7.41233 
3648 1 36.929 7.05 3 6.02463 -147580 -166677 -68516.2 -4681.3 23784.5 -55818.3 -7.41543 
3649 1 36.21 5.828 3 6.02302 -144700 -166988 -111508 20335.4 -7382.1 -46257.3 -7.41319 
3650 1 36.908 4.594 3 6.02364 -148224 -166027 -77283.5 -8288.36 21077.6 -54619.4 -7.41491 
3651 1 36.189 3.372 3 6.02248 -143491 -167131 -105067 12172.1 -11147.8 -48328.7 -7.41363 
3652 1 36.887 2.138 3 6.02404 -148234 -165390 -85491.2 -9735.14 18251.7 -53108.7 -7.41451 
3653 1 36.168 0.916 3 6.01951 -141683 -164922 -97640.9 8344.51 -14600.8 -50189.4 -7.41369 
16310 2 30.411 8.858 6.4 6.02248 -142313 -165988 -128798 16056.5 3459.06 -40494.7 -7.41214 
16311 2 29.713 7.624 6.4 6.02364 -149032 -158954 -94796.9 -9136.14 22030.4 -50818.8 -7.41403 
16312 2 30.432 6.402 6.4 6.01969 -138998 -170005 -125254 16293.5 -730.092 -42583.3 -7.41222 
16313 2 29.734 5.168 6.4 6.0231 -148163 -177812 -101282 -4430.6 18926.5 -49631.8 -7.41359 
16314 2 30.454 3.947 6.4 6.02021 -173893 -135246 -120660 47476.5 -4928.55 -44664.3 -7.41246 
16315 2 29.755 2.712 6.4 6.02179 -128832 -134431 -107429 23196.3 15440.3 -48374.3 -7.41261 
16316 2 30.475 1.491 6.4 6.02354 -135205 -168067 -115248 29802.2 -8765.08 -46537.4 -7.41266 
16317 2 29.776 0.257 6.4 6.02327 -125215 -130893 -113299 -13286.4 11949 -46865.3 -7.41228 
16511 2 31.829 8.871 6.4 6.02336 -141830 -146023 -82754.9 -19256.5 24467.8 -53462.3 -7.41428 
16512 2 32.549 7.649 6.4 6.0241 -126190 -137309 -123079 15110.2 -501.858 -43328.3 -7.41208 
16513 2 31.85 6.415 6.4 6.02364 -131034 -133423 -89847.2 -6896.08 21565.6 -52398.2 -7.4137 
16514 2 32.57 5.193 6.4 6.02531 -128843 -138378 -118225 11598.9 -4596.06 -45467 -7.41188 
16515 2 31.871 3.959 6.4 6.0239 -178537 -131136 -97108.9 -14091.2 18442.9 -51073.9 -7.41389 
16516 2 32.591 2.737 6.4 6.02723 -137671 -150453 -112599 -2984.71 -8444.31 -47447.3 -7.41262 
16517 2 31.893 1.503 6.4 6.02217 -143815 -164386 -103941 -14890.3 15087.3 -49569.6 -7.41366 
16518 2 32.612 0.281 6.4 6.02578 -144016 -157968 -106413 10441.8 -12101.6 -49257.7 -7.41348 
16712 2 34.665 8.895 6.4 6.02795 -135781 -154042 -121432 -1122.3 -574.592 -43235.9 -7.41212 
16713 2 33.967 7.661 6.4 6.02463 -147489 -164479 -77939.6 -11764.7 24047.2 -54309.6 -7.41492 
16714 2 34.686 6.439 6.4 6.02795 -144277 -167470 -116349 10309 -4472.63 -45494 -7.4128 
16715 2 33.988 5.205 6.4 6.02796 -146463 -163355 -86130.8 -12805.6 21150.3 -53134.6 -7.41469 
16716 2 34.707 3.983 6.4 6.02302 -142042 -166824 -110495 11139.9 -8139.67 -47741.3 -7.41347 
16717 2 34.009 2.749 6.4 6.02508 -149351 -164122 -93514.2 -14098.2 18016.6 -51817.6 -7.41383 
16718 2 34.728 1.527 6.4 6.01911 -141894 -170317 -104050 14677.9 -11698 -49713.4 -7.41339 
16719 2 34.03 0.293 6.4 6.02412 -145429 -177250 -100628 -11807.1 14722.8 -50257.5 -7.41359 
16913 2 36.083 8.907 6.4 6.02364 -150958 -162890 -65282.9 -8795.22 26119.1 -55615.5 -7.41561 
16914 2 36.802 7.685 6.4 6.01969 -141658 -170865 -114987 17745.7 -4518.45 -45014.6 -7.41287 
16915 2 36.104 6.451 6.4 6.02508 -142051 -149598 -73812.3 -22629.9 23670.3 -54531.8 -7.41474 
16916 2 36.824 5.229 6.4 6.02367 -126072 -140973 -108639 16031.7 -8281.67 -47377.3 -7.41272 
16917 2 36.125 3.995 6.4 6.02354 -137596 -172142 -81940 7290.35 20915.8 -53353.8 -7.4143 
16918 2 36.845 2.774 6.4 6.02354 -134806 -174969 -101444 31298.9 -11879.3 -49469.9 -7.41322 
16919 2 36.146 1.54 6.4 6.02367 -129021 -137900 -89687.9 -10570.3 17983.5 -51902.4 -7.41378 
16920 2 36.866 0.318 6.4 6.02651 -139647 -147077 -93639.3 -32.3006 -15182.8 -51370.8 -7.41338 
3848 1 39.067 8.26 3 6.0231 -133797 -136738 -55418.2 -8317.23 25780.3 -56395.3 -7.41555 
3849 1 38.347 7.038 3 6.0241 -129712 -141266 -110012 17904 -7545.64 -45261.7 -7.41231 
3850 1 39.046 5.804 3 6.0239 -132551 -138175 -64825.6 -5691.99 23600 -55288.9 -7.41503 
3851 1 38.326 4.582 3 6.02531 -129452 -139729 -103013 19643.7 -11220.7 -47461.3 -7.41293 
3852 1 39.025 3.348 3 6.0241 -179208 -135281 -74073.6 -6092.18 21007.4 -53975.8 -7.41523 
3853 1 38.305 2.126 3 6.02795 -140169 -152131 -95547.8 30041.4 -14571 -49414.1 -7.41355 
3854 1 39.003 0.892 3 6.02423 -144444 -163732 -83203.9 -4975.47 18199.9 -52346.3 -7.41459 
4048 1 41.204 9.469 3 6.02341 -149710 -165819 -42176.5 -7243.39 27613.9 -56043 -7.41707 
4049 1 40.485 8.247 3 6.02248 -141500 -171784 -109157 14292.1 -7850.5 -43523.8 -7.41326 
4050 1 41.183 7.013 3 6.02367 -158701 -198836 -52083.1 -24264.8 25665.8 -55141.3 -7.41662 
4051 1 40.464 5.792 3 6.01953 -143113 -172615 -102046 -19478.2 -11231.8 -45843.4 -7.41343 
4052 1 41.162 4.557 3 6.02066 -141937 -153696 -61869.3 -31585.8 23431 -54067.1 -7.41524 
4053 1 40.442 3.336 3 6.02215 -185800 -169974 -93699.5 -2384.98 -14552.4 -48066.6 -7.41434 
4054 1 41.141 2.102 3 6.0231 -130654 -141387 -71889.9 -11458.5 20844.9 -52713.9 -7.41454 
4055 1 40.421 0.88 3 6.02409 -131271 -134601 -85204 11708.8 -17671.3 -49975.2 -7.41365 
4249 1 42.622 9.457 3 6.02603 -128159 -141528 -109113 20027.1 -8132.36 -41312.5 -7.4126 
4250 1 43.321 8.223 3 6.0241 -134655 -136852 -38833.6 -3211.99 27397.9 -54413.1 -7.41666 
4251 1 42.601 7.001 3 6.02691 -137963 -154397 -101266 32686.6 -11519.8 -43732.2 -7.41334 
4252 1 43.299 5.767 3 6.02246 -148628 -169375 -49590 -5067.11 25493.1 -53463.7 -7.41644 
4253 1 42.58 4.545 3 6.02302 -147364 -168569 -93059.8 19065.7 -14805.8 -45943.9 -7.41406 
4254 1 43.278 3.311 3 6.02364 -149442 -168583 -59585.8 -8613.06 23371.6 -52175.4 -7.41586 
4255 1 42.559 2.089 3 6.02289 -144446 -170726 -83901.9 11281.1 -17866.9 -47903.2 -7.41466 
4256 1 43.257 0.855 3 6.02446 -154265 -197575 -70186.5 -24521 21120 -50600.9 -7.41549 
4450 1 45.458 9.433 3 6.02248 -152446 -166205 -25814.3 -6915.95 28772.3 -52825.8 -7.41775 
4451 1 44.739 8.211 3 6.0222 -145621 -171680 -101350 17210 -11901 -40976.4 -7.41336 
4452 1 45.437 6.977 3 6.02475 -144154 -152871 -36637.7 9240.13 27393.5 -52032.5 -7.41675 
4453 1 44.717 5.755 3 6.0241 -130088 -139320 -92385.9 18574.3 -15180.7 -43273.7 -7.41372 
4454 1 45.416 4.521 3 6.02498 -133062 -139682 -47577.5 -5563.86 25615.9 -50982.6 -7.41608 
4455 1 44.696 3.299 3 6.02603 -130923 -141033 -82975.6 17135.3 -18113.8 -45298.5 -7.41402 
4456 1 45.395 2.065 3 6.02411 -133179 -138265 -58432.4 -6205.75 23601.7 -49688.7 -7.41559 
4457 1 44.675 0.843 3 6.02555 -139713 -147811 -73207.8 26381 -20768 -47086.6 -7.41486 
4651 1 46.876 9.42 3 6.02279 -137230 -156165 -102010 26135.9 -12454.6 -37852.5 -7.41304 
4653 1 46.855 6.965 3 6.02097 -146387 -170239 -93095.4 -19108.2 -15419.1 -40119.5 -7.41392 
4655 1 46.834 4.509 3 6.02341 -153690 -201730 -83055.5 -4414.81 -18257.8 -42197.4 -7.41512 
4657 1 46.813 2.053 3 6.02197 -147219 -170227 -72895.7 12289.4 -20909.6 -44083.2 -7.41518 
17114 2 38.919 8.932 6.4 6.0241 -127157 -141725 -113910 16259.5 -4796.37 -43925.5 -7.41234 
17115 2 38.22 7.698 6.4 6.02367 -133202 -134924 -60715.1 -6790.49 25806.3 -55306.6 -7.41547 
17116 2 38.94 6.476 6.4 6.02508 -137522 -154727 -107242 1619.11 -8364.59 -46344.6 -7.41289 
17117 2 38.242 5.242 6.4 6.01969 -147107 -167491 -69924 -7779.02 23354.6 -54167.7 -7.41534 
17118 2 38.961 4.02 6.4 6.02508 -147795 -168815 -99805.6 11111 -11826.3 -48541.4 -7.41345 
17119 2 38.263 2.786 6.4 6.02302 -145951 -166027 -78724.9 -14095.5 20612.1 -52813.7 -7.4152 
17120 2 38.982 1.564 6.4 6.02796 -145004 -167869 -91709.4 9818.64 -15176.6 -50565.2 -7.41437 
17121 2 38.284 0.33 6.4 6.02714 -146855 -160823 -87363.6 -20567.4 17729.3 -51192.3 -7.41437 
17315 2 40.337 8.944 6.4 6.02463 -149417 -167384 -47669.8 -11026.6 27656.6 -55082 -7.41655 
17316 2 41.056 7.722 6.4 6.02795 -145356 -169400 -106607 10607.3 -8802.09 -44530.7 -7.41331 
17317 2 40.358 6.488 6.4 6.02795 -150923 -165663 -57506.8 -13798.2 25612.6 -54190.7 -7.41601 
17318 2 41.077 5.266 6.4 6.02217 -143138 -171093 -98752.3 11202.2 -12077.5 -46890 -7.41387 
17319 2 40.379 4.032 6.4 6.02723 -142796 -151638 -67106.3 -26581.7 23195.4 -52986.7 -7.41509 
17320 2 41.099 2.81 6.4 6.0239 -178019 -137834 -90264.6 9431.4 -15228.6 -49193.7 -7.41421 
17321 2 40.4 1.576 6.4 6.02531 -134045 -138952 -76178 -14560.8 20506.7 -51631.9 -7.41418 
17322 2 41.12 0.354 6.4 6.02417 -127808 -137054 -81321.2 16947.6 -18134.1 -51055.5 -7.41399 
17516 2 43.172 8.968 6.4 6.01969 -142555 -171819 -106702 17505.8 -9092.38 -42314.1 -7.41331 
17517 2 42.474 7.734 6.4 6.02508 -144052 -151828 -44198.9 -21654.7 27359 -53503.8 -7.41634 
17518 2 43.194 6.512 6.4 6.02367 -127140 -142357 -98435.8 15935.7 -12491.2 -44790.8 -7.41326 
17519 2 42.495 5.278 6.4 6.02354 -141211 -171778 -54228.2 8033.79 25454 -52434.7 -7.41591 
17520 2 43.215 4.057 6.4 6.02179 -129466 -142706 -89471.8 47367.3 -15627.8 -46929.4 -7.41353 
17521 2 42.516 2.822 6.4 6.02021 -180099 -138181 -64260.8 23198.8 23157.5 -51203.6 -7.41549 
17522 2 43.236 1.601 6.4 6.0231 -148907 -186190 -79957.7 17301.8 -18470.3 -48881.2 -7.4147 
17523 2 42.538 0.367 6.4 6.01889 -143849 -166797 -74358.8 -13545.5 20704.3 -49617.7 -7.41494 
17717 2 44.59 8.981 6.4 6.02367 -133614 -139078 -30675.5 -5828.73 28930.1 -52042.8 -7.41697 
17718 2 45.31 7.759 6.4 6.02508 -138381 -155142 -98873.4 946.21 -12867.2 -42001.6 -7.41334 