ITEM: TIMESTEP
188
ITEM: NUMBER OF ATOMS
7352
ITEM: BOX BOUNDS pp pp pp
0.0000000000000000e+00 7.4560136700000001e+01
0.0000000000000000e+00 1.2914194499999999e+02
0.0000000000000000e+00 1.8399999600000001e+01
ITEM: ATOMS id type x y z c_csym c_2[1] c_2[2] c_2[3] c_2[4] c_2[5] c_2[6] c_3 
1 1 3.46293e-06 5.37465e-07 7.43624 6.04618 -8854.94 -8863.32 -8227.47 7.75843 -0.0661111 -0.117975 -7.41275 
2 1 2.1593 1.17649 7.44362 6.0349 -19830 1081.52 -4996.35 867.206 13383.7 -24306.5 -7.41308 
3 1 3.57857 1.14263 7.45208 6.02104 -18907 -2672.2 -3642.22 24142.1 10670 -29474.7 -7.41321 
4 1 6.41614 1.0774 7.47262 6.01722 -24780.6 5234.28 4032.01 33232.5 11256.9 -41836.9 -7.41448 
5 1 7.83541 1.04828 7.48122 6.02576 -22622.2 -2241.78 -2015.53 65853.5 -4014.17 -21841.8 -7.41397 
36 1 0.0607706 2.45849 7.44361 6.02756 -15969.2 -3627.31 -5762.15 -9072.92 24929.1 1486.38 -7.41298 
37 1 1.48009 2.42331 7.44587 6.02716 -15574.8 -4082.83 -4795.6 -2421.11 27714.3 -13417.2 -7.41312 
38 1 2.21844 3.63592 7.45581 6.02148 -40534.3 19753 -1218.98 -15051.4 28070 -20360.4 -7.41347 
39 1 3.63763 3.60207 7.46237 6.01582 -37447.3 13581.3 -3047.96 6811.2 30774.3 -22024.6 -7.41349 
40 1 4.3171 2.35533 7.46088 6.02684 -39114.5 20464 2466.22 9154.22 18824.6 -39175 -7.414 
41 1 5.73628 2.32373 7.47034 6.01959 -35988.4 9178.23 -4110.25 40933.5 12357.8 -26906.8 -7.41346 
42 1 6.47311 3.53758 7.47844 6.02405 -51212.7 37167.4 10721.9 15956.9 15717.6 -37930.2 -7.41525 
43 1 7.89228 3.50789 7.48507 6.0283 -44019.8 15292.5 -10573.5 46477.2 6034.36 -13392.2 -7.41337 
44 1 8.5729 2.26192 7.48615 6.02043 -31785.1 18820.3 11433.2 39108.8 12517.2 -30099.4 -7.4156 
106 1 0.118747 4.91715 7.46083 6.01781 -24140.6 -140.438 -3597.62 -29958.1 33601.8 2848.36 -7.41334 
107 1 1.53807 4.88225 7.4624 6.02119 -20835.6 1037.67 1497.98 -23846.3 43016.8 -10988.9 -7.41398 
108 1 2.27424 6.09604 7.47256 6.02185 -54833.1 29698 -1492.61 -36715.1 25692.7 -13725.8 -7.41374 
109 1 3.69342 6.06239 7.4765 6.01362 -46866.4 24173.1 566.947 -18215.2 35618.7 -12748.1 -7.41425 
110 1 4.37392 4.816 7.47262 6.0213 -62017.9 43346.1 5547.38 -12951.5 21527.9 -30915.9 -7.41447 
111 1 5.79304 4.78406 7.47909 6.0168 -54212 26484.9 -6870.64 15337.2 21998 -16070.1 -7.41356 
112 1 6.52783 5.99897 7.48626 6.01812 -66440.1 54472.4 12791.1 -10957.6 10103.6 -28177.2 -7.41565 
113 1 7.94698 5.9684 7.49033 6.02493 -53151.2 26809.5 -14942.3 15599.4 8482.5 -4149.46 -7.41329 
114 1 8.62806 4.72242 7.49031 6.02371 -46756.9 40131.1 18666.5 13976.2 10014.9 -26069.3 -7.41641 
176 1 0.172856 7.37584 7.47828 6.02141 -29198.5 613.292 -7379.53 -46498.9 24137 2633.77 -7.41342 
177 1 1.59223 7.34163 7.47919 6.02137 -20314.9 4944.73 9162.38 -41491.2 40114.6 -7361.26 -7.41516 
178 1 2.32674 8.55634 7.48596 6.03189 -57538.8 30782.3 -7717.28 -47496.2 11319.1 -8020.85 -7.41365 
179 1 3.74599 8.52324 7.48772 6.01749 -44125.9 28129.3 6659.94 -34173.4 27082.6 -2509.86 -7.4152 
180 1 4.42772 7.27737 7.48433 6.02196 -72229.5 51707.4 2951.88 -34827.3 11688.6 -20177.2 -7.41457 
181 1 5.84686 7.24519 7.48773 6.01789 -58679.4 35123.3 -5343.32 -12177.6 19798.7 -4460.24 -7.41407 
182 1 6.58033 8.46072 7.49204 6.01902 -69707.1 57659.5 9355.04 -32672.4 -911.012 -19004.5 -7.41552 
183 1 7.99953 8.42937 7.49413 6.02546 -51763.3 32692.5 -14028 -12001.6 5655.3 3478.89 -7.41362 
184 1 8.68133 7.18358 7.49429 6.02092 -53119.1 48917.6 20321.3 -14721.8 2037.42 -20947 -7.41663 
6 1 10.6736 0.988677 7.49178 6.02029 -15697.3 2334.32 7001.74 50454.6 12515.7 -14256.3 -7.41536 
7 1 12.093 0.961579 7.49385 6.02423 -13031.9 -2761.79 -5177.86 72047.5 -13384.3 381.986 -7.41436 
8 1 14.9322 0.903114 7.49611 6.01824 -7193.05 -20.0975 4995.21 55855.8 19270.2 -4177.7 -7.41537 
9 1 16.3516 0.876637 7.49781 6.01589 -4058.39 -675.987 -7288.76 84394.7 -15232.6 -9014.36 -7.41458 
45 1 9.99216 2.23404 7.49071 6.03175 -26308.4 2217.62 -9823.98 65425.9 -6316.78 -5884.51 -7.41371 
46 1 10.729 3.44807 7.4938 6.02372 -25234.1 19265.1 18876.3 32526.6 13051.4 -15923.8 -7.41651 
47 1 12.1483 3.42027 7.49552 6.03273 -15741.3 -2358.08 -18893 54688.6 -8051.16 1839.69 -7.41335 
48 1 12.8306 2.17525 7.49534 6.02063 -11378.2 4107.19 13683.4 44485.7 17277.9 -6154.78 -7.41604 
49 1 14.2499 2.14805 7.49623 6.02437 -4974.85 -5648.9 -14227.1 67175.5 -11403.4 -167.748 -7.41391 
50 1 14.9876 3.36164 7.49912 6.01633 -5980.07 -1781.39 19985.7 41510.2 25540 -10716.7 -7.41659 
51 1 16.407 3.33487 7.50155 6.01992 3691.08 -9031.56 -23170 72233.7 -5488.4 -11354.4 -7.41371 
52 1 17.0896 2.09017 7.50099 6.00752 -6629.3 -2355.01 11811.1 67789.6 29708.2 -15884.1 -7.41603 
53 1 18.509 2.06525 7.50532 6.00576 -157.427 -2385.69 -16327.3 106637 -9411.91 -22188.1 -7.41433 
115 1 10.0473 4.69351 7.49356 6.03591 -34813.1 10661.6 -19570.8 39013 -1730.29 -974.636 -7.41306 
116 1 10.7829 5.90807 7.49685 6.02861 -30649.6 28893.2 26006.6 4311.1 8634.06 -17130.9 -7.4172 
117 1 12.2023 5.87908 7.49864 6.04018 -15018.7 497.898 -28432.8 27437.8 -4224.7 520.288 -7.41284 
118 1 12.8852 4.63423 7.49837 6.02474 -13291.9 9065.32 25521.3 22012.4 17560.4 -11894.3 -7.4171 
119 1 14.3046 4.60627 7.49995 6.03199 -450.081 -9271.35 -27645.7 47204 -4885.9 -3455.46 -7.41316 
120 1 15.0413 5.82019 7.50488 6.0207 -9779.35 256.184 32311.6 18467.6 26448.5 -21530.6 -7.4176 
121 1 16.4608 5.79293 7.50874 6.02497 5149.86 -7892.64 -36271.2 52636.4 2806.06 -17133.1 -7.41327 
122 1 17.1444 4.54864 7.50777 6.00751 -10472.7 -3269.4 27942.5 49790.8 36521 -25304.7 -7.41728 
123 1 18.5638 4.52356 7.51324 6.01192 1570.77 -3589.28 -32305.6 90927.1 2429.41 -25574.4 -7.41374 
185 1 10.1006 7.1534 7.49653 6.0343 -35660.5 17331.1 -24022.8 8120.95 -771.167 2018.61 -7.41295 
186 1 10.8352 8.36836 7.49939 6.02723 -35555.5 34454.4 27686.9 -22559.4 2496.74 -20821.5 -7.41728 
187 1 12.2546 8.33815 7.50189 6.03826 -16195.3 9073.72 -32595.2 989.843 -1010.77 -3427.14 -7.41285 
188 1 12.9381 7.09344 7.50238 6.03111 -18114.1 14364.8 32789.8 -4776.69 14101.2 -20693.9 -7.41769 
189 1 14.3575 7.06454 7.5053 6.03551 -604.261 -3904.26 -36730.7 23461.1 586.127 -9658.02 -7.41291 
190 1 15.0929 8.27912 7.51138 6.02756 -22081.7 10768.2 40837.5 -4934.1 23176.4 -35292 -7.41826 
191 1 16.5123 8.25146 7.51679 6.01992 -3887.21 6694.93 -45964.4 32797.5 8825.51 -23498.7 -7.41321 
192 1 17.1967 7.0074 7.51681 6.01415 -23015.4 5353.26 42138.9 27167.6 35838.8 -38118.8 -7.4184 
193 1 18.6161 6.9822 7.52347 6.01252 -6824.42 8224.27 -46667.6 71007.6 10282.8 -29673.3 -7.41347 
10 1 19.1911 0.820395 7.50601 5.99458 -8055.49 1881.36 3112.47 103479 28903.2 -25506.1 -7.41565 
11 1 20.6105 0.798184 7.51237 5.98995 -4562.6 5064.1 -7699.33 149743 -18267.4 -33009.9 -7.415 
12 1 23.45 0.749103 7.52772 5.96013 -13022.7 9741.65 4863.52 193117 38860.9 -42954.2 -7.41638 
13 1 24.8693 0.734032 7.53511 5.95944 -10170.6 12619.6 -7506.01 242476 -24991.7 -39931.3 -7.4154 
14 1 27.7091 0.694056 7.54735 5.93734 -17376.3 17433.8 5837.49 280894 44943.2 -40201.4 -7.41683 
54 1 19.2468 3.27911 7.5124 5.99329 -14890.8 1290.89 21444.3 91074.9 42433.5 -31691.7 -7.41697 
55 1 20.6661 3.25688 7.51953 5.9952 -5749.85 4023.42 -25746.2 138548 -2658.33 -33428.4 -7.41422 
56 1 21.3485 2.01232 7.51932 5.97814 -16786.2 7586.99 13710.2 140882 43261.7 -38464.2 -7.4167 
57 1 22.7678 1.99354 7.52723 5.97736 -10701.6 10304.1 -17299.8 191629 -12342 -38656.5 -7.41474 
58 1 23.5049 3.20858 7.53695 5.96297 -32966.6 22762.1 27125.4 177438 55973.2 -45643.2 -7.41804 
59 1 24.9241 3.19331 7.5445 5.97042 -24823.8 21822.6 -28901.9 226956 -6851.09 -38172.2 -7.41439 
60 1 25.6069 1.94932 7.54297 5.94809 -26959 23032.2 17129.2 233591 53014.8 -44340.1 -7.41755 
61 1 27.0261 1.93762 7.54889 5.95249 -21962.9 20435.7 -18936.5 277797 -17756.6 -34704 -7.4149 
62 1 27.7625 3.15396 7.55755 5.93847 -40948 39938 30967.3 259314 62748.2 -39653.2 -7.41893 
124 1 19.3001 5.73812 7.52294 5.99755 -28752.3 9201.67 40064.5 69119.9 46319.3 -41285.3 -7.41839 
125 1 20.7194 5.71585 7.53078 6.00352 -15003.5 14161.6 -43577.5 117769 8125.57 -34920.6 -7.41375 
126 1 21.4028 4.47167 7.52989 5.98013 -33520.1 16892.1 34972 120417 53437.4 -44256 -7.41829 
127 1 22.822 4.45277 7.53817 5.98862 -22413.4 19673.1 -37367.1 171293 2081.07 -38154.3 -7.41404 
128 1 23.5569 5.66899 7.54969 5.97227 -57268.5 42331.3 51492.1 147280 58929 -49092.2 -7.41995 
129 1 24.976 5.65337 7.55695 5.98735 -44503.8 40681.9 -52359.9 195716 3132.54 -36084 -7.41366 
130 1 25.6597 4.40963 7.55507 5.95401 -51498.7 44121 42513.6 204509 63350.2 -45280.2 -7.41962 
131 1 27.0788 4.39741 7.56061 5.96957 -41602.3 35833.7 -42976.3 247993 -3356.05 -32911.4 -7.41392 
132 1 27.8125 5.61513 7.57034 5.95192 -65581.3 64736.4 59166.2 217375 64165.7 -38865.9 -7.4213 
194 1 19.3502 8.19797 7.53363 6.00878 -50880.7 27958.8 56813.3 46060.4 41103.5 -51865.6 -7.41971 
195 1 20.7694 8.17582 7.54163 6.00486 -33543.6 37151.2 -61181 95526.7 12969.1 -34531.5 -7.41342 
196 1 21.4538 6.93187 7.54212 5.991 -56542.1 35578.5 56470.8 93302.7 50990.8 -51089.3 -7.41995 
197 1 22.8729 6.91289 7.55024 6.00129 -41212.9 41073.5 -58808.1 143699 8823.23 -36303 -7.4135 
198 1 23.6049 8.1307 7.56083 5.98965 -84941.5 68215.8 75527.2 115105 49281.2 -52132.4 -7.42175 
199 1 25.0239 8.11477 7.56732 6.00459 -67974.7 69064.1 -77442 161514 4619.7 -31400.9 -7.41293 
200 1 25.7087 6.87123 7.56749 5.97074 -78487.8 69683.4 69659.7 165317 57764 -46092.8 -7.42174 
201 1 27.1277 6.85833 7.5723 5.99025 -63986.3 60601.8 -69902.6 206879 341.1 -29560.7 -7.41307 
202 1 27.8583 8.07766 7.5806 5.97397 -90266.1 90943 88260.5 172136 51438 -38028.2 -7.42349 
15 1 29.1284 0.685472 7.5515 5.93705 -15487.1 17698.9 -7840.49 316503 -30067.5 -28706.8 -7.41563 
16 1 31.9686 0.652679 7.55683 5.92416 -19014.5 21524 5743.66 337194 46529.8 -25351.1 -7.41691 
17 1 33.3879 0.64808 7.55803 5.92584 -17782.5 18661.1 -7589.61 354715 -32505.1 -11304.4 -7.41574 
18 1 36.2285 0.619019 7.559 5.9209 -17433.2 21656.7 5465.46 360590 45892.4 -8053.89 -7.41684 
63 1 29.1816 3.1449 7.56109 5.95199 -34092.4 28477.8 -31872.6 295266 -11048.6 -26940.9 -7.41434 
64 1 29.8654 1.90182 7.55762 5.92804 -28993.8 31348.7 18374.4 305311 56745.4 -32815 -7.41798 
65 1 31.2846 1.89537 7.5596 5.93671 -25029.1 21974.5 -19933.4 332171 -20777.2 -19318.7 -7.41493 
66 1 32.0205 3.11252 7.56574 5.9241 -34791.7 42131.7 32159.3 310471 64135.9 -23061.8 -7.41931 
67 1 33.4397 3.10729 7.56554 5.93996 -28805.7 22168.7 -32633.9 328832 -12977.4 -10281.8 -7.41429 
68 1 34.1245 1.86502 7.56165 5.91906 -23612.5 30316.7 18527.4 342676 56782.5 -15490.8 -7.41805 
69 1 35.5437 1.86119 7.56112 5.92871 -20061.9 16376 -19641.4 352543 -22211.6 -1950.71 -7.41497 
70 1 36.2798 3.07849 7.56457 5.91844 -19467.2 32753.7 31969.5 330659 63268.6 -4975.85 -7.41937 
133 1 29.2316 5.60517 7.57308 5.97295 -53965.2 47340.1 -58826.8 252133 -2984.22 -25090.5 -7.41335 
134 1 29.9165 4.36234 7.56932 5.9356 -49772.1 54521.7 46060 267303 66649.3 -30954.4 -7.42046 
135 1 31.3356 4.35502 7.57024 5.95567 -41003 33369.4 -45937.4 294060 -6833.3 -18319.9 -7.41376 
136 1 32.069 5.5734 7.57718 5.93811 -49787.6 62009.2 61891.5 259501 65097.5 -20676.9 -7.42203 
137 1 33.4881 5.56693 7.57561 5.95902 -38995.3 32472.2 -60760.2 277418 -6145.98 -9812.98 -7.41317 
138 1 34.1745 4.32509 7.571 5.92535 -32113.7 46054.9 46708 298892 66589.4 -12509.5 -7.42077 
139 1 35.5937 4.32025 7.56882 5.94343 -23812.2 17174.9 -45932.8 309288 -8285.44 -1893.17 -7.41371 
140 1 36.3276 5.53845 7.57309 5.9302 -19904.5 40970.5 61492.7 275271 64495.8 -2055.56 -7.42223 
203 1 29.2772 8.06667 7.58247 5.99182 -73915.5 73658.4 -88165.4 204725 -5430.98 -21226.4 -7.41234 
204 1 29.9635 6.8241 7.58095 5.95508 -70498.6 78128.1 76392.5 216144 59526.2 -29360.7 -7.42297 
205 1 31.3825 6.81552 7.58082 5.977 -56946.4 52505.7 -75403 241587 -5930.34 -16540.2 -7.41271 
206 1 32.1131 8.03528 7.5864 5.96119 -63720.9 80556.9 93372.3 204265 51398.7 -19102.8 -7.42454 
207 1 33.5321 8.02727 7.5837 5.98042 -48010.3 48772.6 -91896.5 220879 -11245.5 -8482.92 -7.41201 
208 1 34.2203 6.78592 7.58077 5.94395 -39499.3 59488.8 77805.2 240501 59386 -10371.2 -7.42355 
209 1 35.6395 6.77956 7.57709 5.96331 -26362.4 24088.4 -75998.2 250267 -8577.46 -1988.34 -7.41257 
210 1 36.3711 7.99874 7.58039 5.95097 -18810 45880.2 93110 215479 51177.2 -677.743 -7.4249 
19 1 37.6477 0.615817 7.55865 5.92321 -16257.4 16450.3 -7014.68 362180 -33891.1 6125.23 -7.41582 
20 1 40.4886 0.58702 7.55709 5.92154 -12750.2 18781 4846.23 356694 44309.3 9552.99 -7.41674 
21 1 41.9079 0.582842 7.55548 5.92561 -11517.4 12045.5 -6479.09 342719 -34407 23155.7 -7.41593 
22 1 44.7489 0.550879 7.55065 5.93062 -6966.29 14346.8 3996.1 323780 41698.7 27436 -7.41654 
23 1 46.1682 0.543182 7.54679 5.93429 -6081.67 7423.27 -5714.3 291826 -33076.5 38311.8 -7.416 
71 1 37.699 3.07464 7.56243 5.93193 -13503.6 8583.88 -31907.4 333351 -13791 6511.51 -7.41433 
72 1 38.3845 1.83277 7.55964 5.91831 -13127.5 23431.6 18037.5 350966 55420.7 2227.54 -7.41798 
73 1 39.8038 1.82916 7.55785 5.92575 -9473.52 7251.31 -18878.9 345660 -22854.7 14955 -7.41506 
74 1 40.5404 3.04603 7.55885 5.92006 -1032.43 18055.8 30770.4 325989 61575.5 13156.8 -7.41921 
75 1 41.9598 3.04127 7.55581 5.93117 5163.25 -6497.78 -30533.1 313299 -13362.9 22949.7 -7.41447 
76 1 42.6452 1.79928 7.55412 5.92381 -1732.17 14149.1 16871.8 333465 53254.8 20397.5 -7.41778 
77 1 44.0646 1.79352 7.55106 5.9312 1955.83 -1314.28 -17742.3 311475 -22129.9 31253.9 -7.41522 
78 1 44.802 3.00953 7.55028 5.93093 12113.5 4066.9 28610.7 295939 59031.4 31400.3 -7.41878 
79 1 46.2215 3.00143 7.54595 5.9386 18468.4 -15064.6 -28181.4 265633 -10761.5 37422.1 -7.4147 
141 1 37.7469 5.53326 7.56926 5.94842 -9128.5 5638.29 -59808.2 277991 -6982.64 5785.57 -7.41316 
142 1 38.4344 4.2921 7.56533 5.92178 -6949.57 26923 45662.9 305121 65424.6 5741.06 -7.42074 
143 1 39.8538 4.2875 7.56186 5.93727 1566.78 -4708.06 -44502.5 300501 -8261.52 14258 -7.41379 
144 1 40.5889 5.50487 7.56408 5.92855 12087.1 11767.2 59194.5 270997 63730.7 16252 -7.42202 
145 1 42.0084 5.49889 7.55974 5.94388 23391.8 -23110 -57323.7 258932 -5377.48 21108 -7.41333 
146 1 42.6962 4.25789 7.55681 5.92629 15537.8 4930.66 43326.7 289803 63949.4 24202.8 -7.42038 
147 1 44.1158 4.25131 7.55283 5.93913 24492.4 -22981.8 -41993.8 269122 -6036.49 29798.7 -7.41402 
148 1 44.8522 5.46755 7.55405 5.93663 33155.5 -13994.5 55288.7 247217 63309.7 34357.1 -7.42134 
149 1 46.2718 5.45855 7.54946 5.9476 44936.6 -39516.1 -52925.8 218312 -431.396 34701.2 -7.41368 
211 1 37.7904 7.99183 7.57518 5.96728 -3077.06 6908.67 -91093.5 217637 -12618.5 4628.81 -7.41195 
212 1 38.4803 6.75151 7.57221 5.93734 574.885 25628.5 75983.3 244811 59050.9 7888.08 -7.42356 
213 1 39.8998 6.74536 7.56727 5.95372 14157.1 -13098.4 -73920.4 240168 -8048.51 12475.7 -7.41264 
214 1 40.6331 7.96331 7.56926 5.94543 27041 221.203 89488 212524 52114.9 16948.9 -7.42463 
215 1 42.0528 7.95573 7.56394 5.95872 43512.6 -37870 -87461.8 200667 -9593.99 17534 -7.41216 
216 1 42.7434 6.71593 7.56155 5.93781 34557.2 -11501.6 72019.5 233383 59675.1 25946.1 -7.42305 
217 1 44.1631 6.70806 7.55687 5.95134 48810 -44528.6 -69779.6 213547 -3782.29 26369.9 -7.41294 
218 1 44.8982 7.9246 7.5589 5.94878 56564.5 -39558.8 83362.9 196005 55200.4 34002.3 -7.42372 
219 1 46.3181 7.91444 7.55432 5.95793 73426.4 -65631.2 -80670.3 168368 -1672.55 29244 -7.41265 
282 1 38.522 9.21077 7.57708 5.9578 10231 21098.2 107027 188771 42373 8056.58 -7.42599 
283 1 39.9416 9.20281 7.57116 5.97026 28704.1 -19003.8 -105158 184022 -16221.8 9380.82 -7.41137 
286 1 42.7865 9.17312 7.5658 5.95371 55758.9 -32408.6 101140 181823 45799.7 24566.5 -7.42532 
287 1 44.2063 9.16375 7.56084 5.96366 74877.4 -65536.8 -99195.8 162910 -9515.6 20270.8 -7.41177 
24 1 49.0088 0.504556 7.53617 5.95225 -3806.84 10042.6 3215.83 255863 36409.1 40536.9 -7.41617 
25 1 50.4282 0.490704 7.52929 5.95429 -3648.68 4612.37 -5182.82 208439 -28352.5 43170.7 -7.4158 
26 1 53.268 0.443056 7.51477 5.98414 -4667.35 7500.17 1901.39 164539 28000 36895.6 -7.41563 
27 1 54.6874 0.421899 7.50808 5.98909 -5056.05 3673.1 -5582.51 116779 -21139.6 28236.1 -7.41521 
80 1 46.9062 1.75873 7.54368 5.93879 4277.63 6978.29 15210.6 285073 49325.5 37201.9 -7.41734 
81 1 48.3256 1.74816 7.53823 5.94284 7629.22 -4064.7 -15915.8 245225 -18966.9 42386.8 -7.41531 
82 1 49.0636 2.96319 7.53661 5.95301 11839.4 -719.695 25611.8 234990 53747.3 44645.1 -7.418 
83 1 50.4832 2.94913 7.53015 5.95631 17771.3 -10605.2 -24862 189177 -6009.43 42216.6 -7.41478 
84 1 51.1664 1.70529 7.52574 5.96762 716.449 6090.77 13034.8 205100 41534.6 43500.6 -7.41666 
85 1 52.5859 1.68767 7.51852 5.97112 3523.13 629.792 -14480 155519 -13725.2 37785.8 -7.41504 
86 1 53.3239 2.90195 7.51758 5.98708 -2175.56 6111.28 21603.4 151970 43277.2 41581.4 -7.41703 
87 1 54.7433 2.88065 7.5111 5.99154 3631.97 2814.03 -22104.1 104890 -2482.45 28381.8 -7.41439 
88 1 55.4255 1.6358 7.50632 6.00137 -8864.13 9843.35 10488.1 119775 30640.8 28892.4 -7.41598 
150 1 46.959 4.21701 7.54603 5.94297 24329.3 -9118.7 39723.9 249003 61488.8 41085.9 -7.41961 
151 1 48.3786 4.20592 7.54074 5.94815 33350.4 -26122 -37710.5 210864 -1035.92 40717.7 -7.41432 
152 1 49.1158 5.42113 7.54195 5.95895 31165.8 -22062.2 49538.2 198111 61261.5 47870.2 -7.42013 
153 1 50.5355 5.40663 7.53605 5.96129 42696.9 -31926 -45804.7 153972 6826.74 40496 -7.41403 
154 1 51.2209 4.16384 7.53034 5.97199 12423.6 -6186.73 34638 180463 54778 48121.6 -7.41844 
155 1 52.6405 4.14601 7.52357 5.97401 21157.7 -10645.9 -32392.7 132153 4156.27 37835.2 -7.41432 
156 1 53.3777 5.36062 7.52537 5.9929 6438.06 -7120.31 41408 128232 52075.6 47569 -7.41864 
157 1 54.7972 5.33913 7.51874 5.99423 17829.2 -6443.43 -38062.6 81200.1 10562.4 30413.8 -7.4139 
158 1 55.4807 4.09492 7.51231 6.00657 -9949.21 9302.28 28640.2 104446 40833.1 35985.8 -7.41733 
220 1 47.0082 6.67436 7.5513 5.95032 47370.9 -35091.5 65966.6 202643 61082.6 42408.8 -7.42195 
221 1 48.428 6.6625 7.54638 5.95593 61675.8 -52861.4 -62380.2 166085 4470.67 36820.7 -7.41344 
222 1 49.1642 7.87794 7.5492 5.96665 55296.2 -53304.8 74142.6 159135 58166.6 47760.4 -7.42217 
223 1 50.5841 7.86293 7.54396 5.96713 71645 -59730.5 -68846 116689 9440.35 36119.8 -7.41331 
224 1 51.2723 6.62162 7.53844 5.97795 30478.3 -30831.7 56832.8 148049 58608.6 51205.5 -7.42033 
225 1 52.6921 6.60353 7.53209 5.9776 44236.6 -31296.2 -51476.5 100767 12766.7 37089.3 -7.4138 
226 1 53.4283 7.81849 7.53523 5.99821 23900.9 -33622.5 60265 102241 52823 52095.5 -7.42022 
227 1 54.848 7.7969 7.52831 5.99587 39541.3 -26884.1 -53700.8 54874 16478.3 31845.1 -7.41358 
228 1 55.5336 6.55384 7.52129 6.01205 -2260.15 -4922.39 45092.1 82741 44948.1 44586.8 -7.41868 
290 1 47.0534 9.13046 7.55727 5.96116 73897.9 -66719.8 92160.2 160670 51660.2 39925.2 -7.42397 
291 1 48.4735 9.11773 7.55293 5.9642 92741.6 -81888.1 -88294 126078 2241.6 29613.5 -7.41251 
294 1 51.3201 9.07816 7.5477 5.98472 55589.2 -64335.6 78233.4 118476 54064.6 51160.5 -7.42202 
295 1 52.74 9.05988 7.54176 5.9811 73082.9 -60036.2 -70777.8 72269.1 14366.9 33752.5 -7.41328 
298 1 55.5835 9.01192 7.53123 6.01764 16313.7 -32471.2 59002.3 61934.2 43030.5 52158.5 -7.41986 
28 1 57.5268 0.366462 7.49902 6.0126 -7994.29 5440.24 1164.07 92551.4 20745.6 13888.1 -7.41518 
29 1 58.9461 0.340363 7.49669 6.01862 -7800.23 1957.23 -3582.42 61421.9 -15381.1 4729.27 -7.41479 
30 1 61.7854 0.281988 7.49453 6.02197 -10101 -984.875 2173.11 73597.9 16606.1 6.98841 -7.41503 
31 1 63.2047 0.25497 7.4929 6.0214 -9334.66 -6079.73 -234.321 52760.6 -11247.8 8027.73 -7.41475 
89 1 56.8449 1.61157 7.50161 6.00853 -5803.35 5713.17 -13083 79321.6 -10069.7 15263 -7.41446 
90 1 57.5825 2.8255 7.50235 6.01612 -14949.4 13728.3 18399.4 84540.5 29381.6 19572.7 -7.41641 
91 1 59.0018 2.79911 7.49929 6.02346 -8045.87 4980.72 -19020.9 52904.4 -4113.4 4606.35 -7.41382 
92 1 59.6839 1.55404 7.49696 6.0204 -12046.7 7601.09 9849.73 74587.7 21341.7 5340.98 -7.41572 
93 1 61.1033 1.52699 7.49561 6.02479 -7897.86 -2922.63 -9471.13 51193.8 -9546.91 -45.2734 -7.41417 
94 1 61.8409 2.74065 7.49633 6.02111 -6427.85 1823.12 16856.9 64027.8 19188.9 4893.71 -7.41631 
95 1 63.2603 2.71311 7.49413 6.02546 1164.11 -20340.5 -14027.9 42546.8 -5840.29 3158.22 -7.41362 
96 1 63.9428 1.46837 7.49204 6.01902 -2509.44 -9617.59 9355.04 71524 16913.9 8713 -7.41552 
159 1 56.9001 4.07043 7.50695 6.0122 -722.917 6271.27 -28060 63339.9 3800.92 17527.9 -7.41379 
160 1 57.6368 5.28484 7.50902 6.0214 -15610.4 11913 33524.8 66539 33699.4 29542.3 -7.4176 
161 1 59.0562 5.25793 7.50446 6.02948 -2942.97 3344.33 -31968.6 32673.3 5191.44 7867.42 -7.41324 
162 1 59.739 4.01315 7.50086 6.02358 -14713.3 12612 24665.3 60011.5 24120.1 13311.5 -7.41691 
163 1 61.1583 3.98543 7.49833 6.03121 -4001.16 -6192.58 -23232.6 34921.2 -2219.69 -922.137 -7.41326 
164 1 61.8953 5.19937 7.49939 6.02723 -2627.88 1480.75 27686.9 41623.4 16783.7 12572.8 -7.41728 
165 1 63.3148 5.17068 7.49653 6.0343 11115.5 -29410.6 -24022.9 18870.3 -1362.46 -1677.21 -7.41295 
166 1 63.9983 3.92646 7.49429 6.02091 10631.7 -14848.9 20321 51553.1 17122 12238.2 -7.41663 
229 1 56.9531 6.52911 7.51483 6.01426 11892.7 -3057.77 -41237.1 39955.7 12855.6 21800.6 -7.41346 
230 1 57.6888 7.74393 7.51695 6.02631 -6836.72 -4001.99 45061.9 45705.6 33339.9 41069 -7.41857 
231 1 59.1083 7.71652 7.51053 6.02844 9879.69 -7169.25 -41088 8903.62 11458 13362.1 -7.41308 
232 1 59.7924 6.47239 7.50605 6.02973 -12336 7896.21 35256 38139.8 22773.8 24830.3 -7.41779 
233 1 61.2118 6.44372 7.50189 6.03827 3666.18 -10764.1 -32595.2 10422.2 3473.19 838.2 -7.41285 
234 1 61.948 7.65797 7.50238 6.03111 2067.61 -5846.34 32789.6 16487.6 10870.8 22558.9 -7.41769 
235 1 63.3676 7.62795 7.49864 6.04017 20353.7 -34955.5 -28432.6 -7035.07 1661.86 -3918.8 -7.41284 
236 1 64.0521 6.38425 7.49685 6.0286 17765.1 -19453.6 26006.7 23675.7 10518.8 16042.7 -7.4172 
299 1 57.0032 8.9871 7.5235 6.01111 33442.7 -24509.8 -51876.7 17277.1 17481.6 25998.5 -7.41336 
302 1 59.8438 8.93125 7.51138 6.02756 -1716.49 -9573.37 40837.5 16720.7 18975.5 37717.4 -7.41826 
303 1 61.2633 8.90171 7.5053 6.03551 17259.3 -21782.9 -36730.7 -13188.2 8070.79 5336.58 -7.41291 
306 1 64.1042 8.84175 7.49837 6.02475 22511.3 -26785.1 25521 -1323.75 1520.62 21154.8 -7.4171 
32 1 66.0439 0.195832 7.48433 6.02197 -9422.1 -11023.4 2952 71116.8 11629.4 20211.3 -7.41457 
33 1 67.4632 0.167397 7.4765 6.01362 -9303.64 -13351.9 566.966 39817.9 -6769.32 37220.8 -7.41425 
34 1 70.3021 0.103258 7.45581 6.02147 -8383.35 -12416.4 -1219.04 33695.1 3597.42 34489.3 -7.41347 
35 1 71.7215 0.0701353 7.44587 6.02715 -9046.55 -10620.8 -4795.55 6190.62 -2237.58 30709.9 -7.41312 
97 1 65.3622 1.44093 7.48773 6.01789 1185.07 -24667.9 -5343.43 46647.1 -6036.85 19376.3 -7.41407 
98 1 66.101 2.65378 7.48626 6.01812 14745 -26674.7 12791.1 57909.1 19350.4 22838.4 -7.41565 
99 1 67.5205 2.62489 7.47909 6.0168 19656.7 -47337.6 -6870.66 27191 2917.98 27086 -7.41356 
100 1 68.2024 1.37993 7.47262 6.02129 5749.79 -24375.6 5547.43 52164.9 16010 34101.9 -7.41447 
101 1 69.6218 1.34924 7.46237 6.01582 6735.83 -30637.4 -3048.01 18648.8 3686.82 37663.7 -7.41349 
102 1 70.3618 2.56105 7.46088 6.02684 13472.6 -32110.9 2466.17 21233.1 24514.1 35890.3 -7.414 
103 1 71.7813 2.52781 7.45208 6.02104 14137.4 -35790.7 -3642.19 -5022.38 20191 23977.6 -7.41321 
104 1 72.4616 1.28176 7.44362 6.0349 -3434.39 -15369.8 -4996.37 8659.02 14358.4 23743.6 -7.41308 
105 1 73.881 1.24681 7.43881 6.0364 -3825.58 -14468.8 -7154.77 -3585.6 13813.4 7857.31 -7.41285 
167 1 65.4179 3.89808 7.49033 6.02493 20346.5 -46719.6 -14942.1 26767 -647.78 9420.99 -7.41329 
168 1 66.1564 5.1109 7.49031 6.02372 30491.5 -37132.5 18666.3 30654.8 17569.3 21707.9 -7.41641 
169 1 67.5761 5.08096 7.48507 6.0283 40753 -69439.5 -10573.8 2438.54 8580.79 11922.2 -7.41337 
170 1 68.26 3.83709 7.47844 6.02406 28870.5 -42929.4 10722.2 30325.7 24989.7 32576.8 -7.41525 
171 1 69.6796 3.8059 7.47034 6.01959 33340.8 -60115.5 -4110.16 -932.391 17123 24155.8 -7.41346 
172 1 70.419 5.01784 7.47262 6.01722 26535.8 -46090.9 4032.01 -3635.15 30603.5 30667.1 -7.41448 
173 1 71.8387 4.98443 7.46661 6.02076 30685.2 -52481.5 1267.27 -26681 33076.4 11740.6 -7.41388 
174 1 72.5211 3.73953 7.45582 6.0196 3010.61 -24248 -2198.8 -9670.49 32361.2 23043.7 -7.41349 
175 1 73.9406 3.70466 7.4521 6.02725 3993.15 -23169.3 -1335.29 -20611.7 36471.8 3811.66 -7.41347 
237 1 65.4718 6.35446 7.49356 6.03591 33127.1 -57238.7 -19570.8 155.024 1709.13 -1011.21 -7.41306 
238 1 66.2095 7.56756 7.4938 6.02372 36296.3 -42268.6 18876.6 3023.36 7264.71 19264.6 -7.41651 
239 1 67.6293 7.53644 7.49071 6.03174 51752.5 -75823.7 -9823.86 -20391.7 8254.43 -2528.15 -7.41371 
240 1 68.3148 6.29338 7.48615 6.02042 40043.6 -52947.7 11432.9 2366.98 19808.3 25890.1 -7.4156 
241 1 69.7346 6.26152 7.48122 6.02575 49631.6 -74612.6 -2015.26 -24085.2 20922.7 7444.27 -7.41397 
242 1 70.4728 7.47404 7.48434 6.01492 29992.3 -51422.6 713.691 -25013.9 20252.7 21241 -7.41452 
243 1 71.8926 7.44071 7.48134 6.01968 39581.7 -56771.9 7535.75 -42899.7 31256.2 -740.674 -7.41493 
244 1 72.577 6.19685 7.47257 6.01408 4184.02 -29569 -3130.65 -31937.8 31167.6 18072.5 -7.41375 
245 1 73.9966 6.16234 7.47043 6.02385 9557.22 -26512.2 6690.84 -40913.6 42826.4 -1890.06 -7.41459 
307 1 65.5239 8.81062 7.49551 6.03272 41658.7 -59761.6 -18893.1 -21557.4 2432.37 -7892.33 -7.41335 
310 1 68.3671 8.74931 7.49178 6.02029 41522.9 -54905.1 7002.15 -17437.5 6088.67 17967.1 -7.41536 
311 1 69.787 8.71701 7.48972 6.02124 56089.3 -74103.3 2821.38 -36523.4 16193.1 -6406.9 -7.41481 
314 1 72.6294 8.65393 7.48608 6.01937 3442.66 -30185.1 -9401.03 -42111.6 15941.1 10830 -7.41361 
315 1 74.0491 8.62023 7.48534 6.02085 14446.6 -24840.6 14688.4 -48350 33576.7 -5320.52 -7.41584 
246 1 0.224171 9.83446 7.49001 6.02944 -27867.3 401.128 -15589.1 -45498.1 7242.55 834.026 -7.41318 
247 1 1.64363 9.80138 7.49042 6.0238 -14357 6361.53 16966 -42362.6 26965.7 -1760.91 -7.41626 
248 1 2.37758 11.0165 7.49347 6.03488 -50970.5 28048.4 -16610.2 -40173.3 -2125.66 -5218.85 -7.41332 
249 1 3.79692 10.9843 7.49379 6.02149 -35560.1 27095.2 13677.9 -33373.1 17026.2 6850.07 -7.41602 
250 1 4.47932 9.73873 7.49166 6.02544 -69663.4 49710.7 -4191.5 -42595.3 -1621.65 -12164.5 -7.41428 
251 1 5.89853 9.70661 7.4929 6.0214 -52599.2 37225.7 -234.378 -27807.5 12576.2 5726.99 -7.41475 
252 1 6.6316 10.9223 7.49453 6.02197 -66966.2 55914.9 2173 -40723.6 -8296.89 -14384.8 -7.41503 
253 1 8.05086 10.8905 7.49561 6.02479 -48487 37671.8 -9471.29 -27764.3 4734.14 8290.5 -7.41417 
254 1 8.73308 9.64483 7.49633 6.02112 -55753 51068.4 16856.8 -35551 -5356.72 -19064.9 -7.41631 
316 1 0.27474 12.293 7.49639 6.03769 -21664 2225.13 -24685.2 -28899.7 -2649.22 -1649.01 -7.41288 
317 1 1.69427 12.2613 7.49644 6.02729 -8244.01 5014.51 24144.9 -28066.7 18624.9 4203.35 -7.41702 
318 1 2.42842 13.4764 7.4979 6.03611 -42949.4 28469.6 -25553.9 -23565.2 -3645.32 -4912.52 -7.41305 
319 1 3.84783 13.4452 7.49736 6.02047 -30846.3 24950.8 20160.5 -23362.5 17379 13427.9 -7.41661 
320 1 4.53024 12.1998 7.49509 6.0272 -62317.9 47065.4 -13084.3 -35769.5 -7276.33 -8733.91 -7.41383 
321 1 5.94953 12.1681 7.4951 6.02066 -46679.4 37939.3 6053.6 -29942.9 10838.8 12912.5 -7.4154 
322 1 6.68251 13.3838 7.49601 6.0206 -67901.6 60096.5 -6719.47 -39565.9 -5515.96 -14098.8 -7.41449 
323 1 8.10178 13.352 7.49669 6.01861 -53665.6 47829.1 -3582.38 -34965.3 11786.2 10955.7 -7.41479 
324 1 8.78395 12.1062 7.49696 6.0204 -61935.7 57460.7 9849.82 -45790.6 -6045.57 -21152.9 -7.41572 
386 1 0.325714 14.7517 7.50178 6.03988 -15994 7213.59 -33177.5 -12152 2023.61 -3550.6 -7.4128 
387 1 1.74529 14.7213 7.50164 6.02637 -7482.42 2066.64 30669.3 -13530 24469.6 8268.59 -7.41751 
388 1 2.47938 15.9365 7.50427 6.03326 -40411.4 34710.3 -33998.3 -14637.2 8110.66 -5307.87 -7.41307 
389 1 3.89882 15.9062 7.50339 6.01474 -35018.6 24603.7 26903 -19498.5 30925.3 16733.8 -7.41716 
390 1 4.58123 14.6608 7.49874 6.02552 -59988.4 51324.7 -22056.9 -26556.1 -101.696 -8407.41 -7.41355 
391 1 6.00054 14.6296 7.4981 6.01404 -50228.7 42417.5 12342.2 -28922.4 20551.8 17210.7 -7.41599 
392 1 6.73288 15.8458 7.50075 6.01386 -78932 74755.8 -15832.4 -41148.7 6933.28 -15429 -7.41417 
393 1 8.15209 15.8141 7.50111 6.00546 -71842.5 65335.6 3249.35 -43905 27510.4 13535.7 -7.41548 
394 1 8.83405 14.5681 7.49902 6.0126 -78113.7 75473 1163.95 -52081.9 1654.57 -24910.3 -7.41518 
456 1 0.376263 17.2106 7.51062 6.02808 -14153.1 14634.8 -41625.5 -11722.3 17028.9 -4009.51 -7.41303 
457 1 1.79587 17.1811 7.51069 6.02145 -12231.3 -922.645 38618.9 -14526.3 41649.3 9280.65 -7.41809 
458 1 2.52882 18.3969 7.51604 6.019 -43783.4 44427.9 -43201.3 -25539.4 24514.6 -5200.12 -7.4133 
459 1 3.94827 18.3673 7.51542 6.00606 -44662.9 27262.3 36764 -32913.5 50419.8 17454 -7.41801 
460 1 4.63146 17.1222 7.50724 6.01971 -66553 63146.9 -30855.6 -29523.8 15696 -8736.32 -7.41354 
461 1 6.05074 17.0916 7.50631 6.00254 -64130.7 51821.4 20308.6 -37374.6 39163.3 20004.4 -7.41674 
462 1 6.78136 18.3087 7.512 6.00397 -98208.9 96091.5 -24922.6 -55167 22296.8 -15983 -7.41407 
463 1 8.20048 18.2774 7.51179 5.98904 -98066.8 88112.2 12554.4 -62701.2 47104.7 17755.6 -7.41641 
464 1 8.88265 17.0313 7.50594 5.99995 -105007 104052 -7772.86 -63936.3 14103.1 -27402.1 -7.41485 
255 1 10.1524 9.61361 7.49833 6.03121 -35988.4 25704.1 -23232.5 -16560.4 311.085 2383.22 -7.41327 
256 1 10.8861 10.829 7.50086 6.02357 -46126.6 44050.6 24665.4 -41810.9 -531.647 -27544.4 -7.41691 
257 1 12.3055 10.7979 7.50446 6.02947 -26496.1 26940.4 -31968.7 -19108.7 4217.85 -8429.69 -7.41324 
258 1 12.9892 9.55307 7.50605 6.02973 -30202.7 25711.1 35255.8 -27818.5 10116.7 -32138 -7.41779 
259 1 14.4086 9.52342 7.51053 6.02845 -10653.2 13355.9 -41088.2 2889.03 5842.94 -16604 -7.41308 
260 1 15.1421 10.739 7.51695 6.02631 -44192.2 33445.8 45062.1 -24034.9 18897.3 -49407.8 -7.41857 
261 1 16.5615 10.7112 7.5235 6.0111 -24963.7 33974.3 -51876.5 16381.1 13775 -28138.8 -7.41336 
262 1 17.2462 9.46706 7.52517 6.02285 -44804 25888.3 52835.4 6749.64 30183.7 -51619.5 -7.41927 
263 1 18.6655 9.44195 7.53247 6.00711 -26135.9 32912.7 -58830.7 52972.1 14561.3 -31829.7 -7.41337 