ITEM: TIMESTEP
0
ITEM: NUMBER OF ATOMS
7352
ITEM: BOX BOUNDS pp pp pp
0.0000000000000000e+00 7.4560136700000001e+01
0.0000000000000000e+00 1.2914194499999999e+02
0.0000000000000000e+00 1.8399999600000001e+01
ITEM: ATOMS id type x y z c_csym c_2[1] c_2[2] c_2[3] c_2[4] c_2[5] c_2[6] c_3 
1 1 0 0 7.5 6.0491 10671.5 10556.9 -64866.7 -24.5351 0.104879 0.0862836 -7.41189 
2 1 2.14999 1.19446 7.5 6.04915 9242.33 11261.5 -60566.8 -2088.45 13592.8 -24747.9 -7.41211 
3 1 3.5698 1.17104 7.5 6.04919 11555.9 7613.09 -56015.5 4641.86 12492.9 -35896.8 -7.41236 
4 1 6.40941 1.1242 7.5 6.04919 8888.99 6448.02 -39097.5 -5975.03 10701.7 -53056.1 -7.41322 
5 1 7.82922 1.10077 7.5 6.04919 10647.7 3439.73 -33917.1 8868.56 4375.45 -45259.7 -7.41351 
36 1 0.0405659 2.45918 7.5 6.04911 6913.76 13273.2 -60882.5 -137.475 27464.3 270.766 -7.4121 
37 1 1.46037 2.43576 7.5 6.04914 12446.8 7743.44 -59402.9 2241.67 27952 -15775.2 -7.41217 
38 1 2.19056 3.65364 7.5 6.04915 4727.21 13836.7 -53102.7 -1473.55 35259.4 -22035.9 -7.4125 
39 1 3.61037 3.63021 7.5 6.0492 12503.5 5031.22 -49489.5 5697.09 35508 -31581.4 -7.4127 
40 1 4.29999 2.38892 7.5 6.04919 7122.54 10451.9 -48460.6 -3423.72 22337.9 -42442.9 -7.41273 
41 1 5.71979 2.36549 7.5 6.04919 11919.5 4319.59 -44481.1 7719.66 19561.1 -43426.7 -7.41297 
42 1 6.44998 3.58337 7.5 6.0492 4846.97 9161.7 -31415.6 -4494.9 24180.1 -48288.5 -7.4136 
43 1 7.86979 3.55995 7.5 6.0492 12183.6 1838.91 -33246.1 10180.7 19203.8 -38137.4 -7.41356 
44 1 8.55941 2.31865 7.5 6.04919 6809.82 5595.53 -22098.6 -6932.33 14705 -49669.3 -7.41407 
106 1 0.0811318 4.91835 7.5 6.04911 1846.34 15574 -50866.3 -265.411 44961 1120.31 -7.41263 
107 1 1.50094 4.89493 7.5 6.04915 12485.4 4819.22 -47695 2691.29 47600.3 -13976.2 -7.41277 
108 1 2.23113 6.11281 7.5 6.04915 -312.424 16038 -41784.2 -1117.4 44436.7 -16958 -7.4131 
109 1 3.65093 6.08939 7.5 6.0492 12328.9 2516.38 -37005.6 6230.91 47455.9 -24563.9 -7.41334 
110 1 4.34055 4.84809 7.5 6.0492 2389.21 12995.6 -38916.3 -2452.26 35387.3 -35923.6 -7.41323 
111 1 5.76036 4.82467 7.5 6.0492 12514.5 2282.67 -37762.9 8737.59 34708.9 -35033.2 -7.41332 
112 1 6.49055 6.04255 7.5 6.0492 489.649 11851 -21751.7 -3555.34 28485.4 -38738.4 -7.41409 
113 1 7.91035 6.01913 7.5 6.0492 12893.6 718.18 -28383.8 10646.8 26474.6 -27250.8 -7.41382 
114 1 8.59997 4.77783 7.5 6.0492 2853.09 8338.87 -13316.5 -5696.68 20266.6 -42813.5 -7.4145 
176 1 0.121698 7.37753 7.5 6.04911 -2898.93 17476.9 -38919.8 -374.402 47559.3 1941.68 -7.41327 
177 1 1.5415 7.35411 7.5 6.04915 11931.3 1959.35 -31131.4 2860 53554.9 -11232.4 -7.41361 
178 1 2.27169 8.57199 7.5 6.04915 -4182.3 17860 -30897.1 -1039.13 39492 -11280.2 -7.41368 
179 1 3.6915 8.54857 7.5 6.0492 12140.2 217.648 -21704 6108.83 46389.8 -15978 -7.4141 
180 1 4.38112 7.30727 7.5 6.0492 -2008.1 15296.1 -28259 -1980.74 36022.3 -26701.1 -7.41379 
181 1 5.80093 7.28385 7.5 6.0492 12597.8 578.203 -27068.2 8877.95 38824.9 -23832.3 -7.41386 
182 1 6.53111 8.50173 7.5 6.0492 -2850.97 14330 -13542 -3238.46 22811.6 -27584.4 -7.41451 
183 1 7.95092 8.47831 7.5 6.0492 13470.6 15.4837 -21105 10131.8 25053.9 -14806.3 -7.41417 
184 1 8.64054 7.23701 7.5 6.0492 -722.136 11125.6 -5204.38 -5048.26 18069.9 -32884.1 -7.41491 
6 1 10.6688 1.05393 7.5 6.04919 8274.23 3292.02 -14354.1 -9175.48 9270.32 -40118.1 -7.41447 
7 1 12.0886 1.03051 7.5 6.04919 9840.81 2879.76 -15321.5 10888.5 -5405.14 -21435.5 -7.41445 
8 1 14.9283 0.983671 7.5 6.04919 7962.26 4767.85 -1785.36 -10668.1 12076.2 -11494.6 -7.41508 
9 1 16.3481 0.96025 7.5 6.04919 9762.13 6057.76 -8973.28 10654.5 -12377.2 -189.405 -7.41472 
45 1 9.97921 2.29523 7.5 6.04919 11258.3 1910.35 -24995.7 10755.7 4992.05 -32685.5 -7.41398 
46 1 10.7094 3.51311 7.5 6.0492 4808.89 5684.95 -5751.29 -7975.25 14306.5 -37480.4 -7.41488 
47 1 12.1292 3.48969 7.5 6.0492 12094.3 2366.56 -20946.8 11407.7 1213.47 -16069.5 -7.41419 
48 1 12.8188 2.24839 7.5 6.04919 6440.76 4515.63 -1543.37 -9786.98 11838.8 -25252.9 -7.4151 
49 1 14.2386 2.22497 7.5 6.04919 11043.1 4194.22 -15012.8 11065.6 -7051.61 -6483.56 -7.41445 
50 1 14.9688 3.44285 7.5 6.0492 4763.74 6122.82 8657.61 -10361.9 14089.4 -13136.3 -7.41559 
51 1 16.3886 3.41943 7.5 6.0492 12569.3 6255.73 -18328.6 10231.8 -8516.98 1681.01 -7.41425 
52 1 17.0782 2.17813 7.5 6.04919 6472.08 6423.08 5752.63 -10609.9 16660.3 -5011.47 -7.41544 
53 1 18.4981 2.15471 7.5 6.04919 11646.4 7462.72 -13719.3 9589.01 -11970.3 1243.7 -7.41444 
115 1 10.0198 4.75441 7.5 6.0492 12755.1 1179.14 -25905.8 11394 12887.5 -24271.2 -7.41395 
116 1 10.75 5.97229 7.5 6.0492 1326.95 8359.93 2609.68 -7164.05 14147.3 -31228.7 -7.41529 
117 1 12.1698 5.94887 7.5 6.0492 13766.2 2502.08 -23851.4 11229.9 4439.48 -9115.23 -7.41404 
118 1 12.8594 4.70757 7.5 6.0492 3137.54 6644.47 7671.98 -9107.58 12782.8 -23448.6 -7.41554 
119 1 14.2792 4.68415 7.5 6.0492 13327.9 4379.82 -21753.4 10831.9 -3401.46 -2762.04 -7.41412 
120 1 15.0094 5.90203 7.5 6.0492 1777 7747.3 17924.6 -10045.5 13326.5 -14401 -7.41606 
121 1 16.4292 5.87861 7.5 6.0492 14791.3 6822.13 -25238.2 9545.74 -5473.03 2184.65 -7.4139 
122 1 17.1188 4.63731 7.5 6.0492 3320.25 7243.52 16989.2 -10606.1 18286.3 -8851 -7.41601 
123 1 18.5386 4.61389 7.5 6.0492 14278.1 7892.88 -22489.3 8925.82 -7356.78 664.378 -7.414 
185 1 10.0603 7.21359 7.5 6.0492 13804.9 1032.3 -23908 11105.3 14589.1 -13892.2 -7.41405 
186 1 10.7905 8.43147 7.5 6.0492 -1346.7 10968.5 8437.99 -6798.83 8810.32 -24223.8 -7.41558 
187 1 12.2103 8.40804 7.5 6.0492 15071.1 3068.45 -24379.3 10350.9 3913.12 -2228.71 -7.414 
188 1 12.9 7.16675 7.5 6.0492 265.722 8934.51 14987.6 -8655.62 9880.96 -20639.4 -7.41591 
189 1 14.3198 7.14332 7.5 6.0492 15084.4 5044.84 -25934.5 10092.9 -1892.5 471.021 -7.4139 
190 1 15.05 8.3612 7.5 6.0492 -556.029 9312.38 24529.4 -9699.26 10054.8 -16622.2 -7.4164 
191 1 16.4698 8.33778 7.5 6.0492 16322.7 7534.21 -29314.8 8736.3 -3422.32 1042.26 -7.41368 
192 1 17.1594 7.09648 7.5 6.0492 636.995 8133.26 26531 -10381.4 17395 -14001.4 -7.41651 
193 1 18.5792 7.07306 7.5 6.0492 16131 8402.8 -28325.9 8299.18 -3450.96 -2014.22 -7.4137 
10 1 19.1877 0.913409 7.5 6.04919 8424.14 6760.25 613.694 -9905.93 18412.7 -2750.8 -7.41516 
11 1 20.6075 0.889988 7.5 6.04919 10622.8 7394.73 -7434.9 8913.65 -15497.7 -5048.21 -7.41474 
12 1 23.4471 0.843147 7.5 6.04919 9638 4687.8 5139.96 -7495.36 24895.5 -18564.2 -7.41538 
13 1 24.8669 0.819726 7.5 6.04919 11986.3 3815.88 486.896 6646.67 -16839.7 -24852 -7.41513 
14 1 27.7065 0.772884 7.5 6.04919 11063.8 -668.599 18266.9 -4661.65 28751.4 -35615.1 -7.41608 
54 1 19.2282 3.37259 7.5 6.0492 5076.66 6919.51 13218.7 -10212.8 22979.4 -7135.77 -7.41581 
55 1 20.648 3.34917 7.5 6.0492 13615.1 7817.37 -17535.4 8286.38 -8974.16 -5163.46 -7.41422 
56 1 21.3377 2.10787 7.5 6.04919 7216.87 6211.84 8567.88 -9035.9 25546.8 -10694.8 -7.41557 
57 1 22.7575 2.08445 7.5 6.04919 12865.3 6401.6 -9983.03 7548.88 -11854.9 -14499.7 -7.41459 
58 1 23.4877 3.30232 7.5 6.0492 5974.63 4240.13 19401.8 -7773.4 33503.1 -22434.5 -7.41614 
59 1 24.9075 3.2789 7.5 6.0492 14710.9 4211.3 -9088.18 6568.55 -6359.53 -24602.4 -7.41464 
60 1 25.5971 2.0376 7.5 6.04919 8519.95 1980.54 17809.9 -6119.06 32670.5 -29826.2 -7.41605 
61 1 27.0169 2.01418 7.5 6.04919 14024 1118.15 2700.93 5588.86 -11547.8 -31544.7 -7.41526 
62 1 27.7471 3.23206 7.5 6.0492 7244.35 -999.536 33397.9 -4587.79 39256.3 -36944.7 -7.41688 
124 1 19.2688 5.83176 7.5 6.0492 2017.32 7138.92 25371.2 -10219.7 24892.1 -13425.2 -7.41646 
125 1 20.6886 5.80834 7.5 6.0492 15766.6 8163.94 -24681 7837.08 -3027.62 -7754.85 -7.41385 
126 1 21.3782 4.56704 7.5 6.0492 3779.25 5944.01 22411.5 -9263.77 30736.6 -16319.8 -7.4163 
127 1 22.798 4.54362 7.5 6.0492 15291.4 6701.81 -18287 7296.67 -3621.99 -15842.1 -7.41417 
128 1 23.5282 5.7615 7.5 6.0492 2512.01 3734.83 34740 -7755.62 38097.9 -28040.3 -7.41697 
129 1 24.948 5.73808 7.5 6.0492 16234.2 4350.18 -15515.1 6938.61 2225.54 -25753.8 -7.41431 
130 1 25.6377 4.49678 7.5 6.0492 4710.83 1479.68 33655.2 -6160.63 40398.5 -33096.2 -7.4169 
131 1 27.0575 4.47336 7.5 6.0492 15784.9 1400.05 -5188.1 6097.79 -934.135 -31067.7 -7.41486 
132 1 27.7876 5.69124 7.5 6.0492 3410.32 -1287.78 50891.2 -4410.77 44249.1 -38418.4 -7.41782 
194 1 19.3094 8.29094 7.5 6.0492 -431.195 7259.02 35831.2 -9835.39 24078.9 -21459.9 -7.41702 
195 1 20.7292 8.26752 7.5 6.0492 16916.4 8302.64 -28653 7732.43 1771.61 -11991.3 -7.41365 
196 1 21.4188 7.02622 7.5 6.0492 814.929 5645.44 35879.6 -9074.8 32377.4 -23798.9 -7.41703 
197 1 22.8386 7.0028 7.5 6.0492 16626 6768.05 -23438.2 7449.85 2935.61 -18813.1 -7.4139 
198 1 23.5688 8.22068 7.5 6.0492 -308.039 3177.9 49827.5 -7304.22 38071.5 -34602 -7.41781 
199 1 24.9886 8.19726 7.5 6.0492 16585.9 4194.22 -19347.3 7818.93 7797.54 -27131.2 -7.41412 
200 1 25.6782 6.95596 7.5 6.0492 1316.23 998.523 50619.9 -5886.49 42667 -37011.9 -7.41783 
201 1 27.098 6.93254 7.5 6.0492 16223.9 1517.27 -10629.2 7109.84 6085.44 -30642.7 -7.41459 
202 1 27.8282 8.15042 7.5 6.0492 238.255 -1478.34 69329.6 -3974.42 42723.3 -39483.7 -7.41883 
15 1 29.1263 0.749464 7.5 6.04919 13146.6 -2044.95 16445.4 4436.26 -18582.1 -34280.9 -7.41599 
16 1 31.9659 0.702622 7.5 6.04919 12111.3 -5499.73 34735.2 -2205.37 29715.7 -33081 -7.41696 
17 1 33.3857 0.679201 7.5 6.04919 13752 -6320.41 32200.1 2326.98 -20948.1 -21477.8 -7.41684 
18 1 36.2254 0.63236 7.5 6.04919 12559.6 -7625.14 44176.6 -168.604 29019 -10232.3 -7.41746 
63 1 29.1669 3.20864 7.5 6.0492 15262.6 -1620.41 6900.58 4943.05 -6388.81 -32829.9 -7.4155 
64 1 29.8565 1.96734 7.5 6.04919 9844.65 -3418.28 33993.3 -3245.04 35347.4 -37415.8 -7.41691 
65 1 31.2763 1.94392 7.5 6.04919 14630.9 -4290.73 19757.9 3610.83 -13396.2 -29693.1 -7.41619 
66 1 32.0065 3.1618 7.5 6.0492 8381.76 -5435.35 50171.8 -1958.2 39821.7 -32175.4 -7.41776 
67 1 33.4263 3.13838 7.5 6.0492 15273.9 -5752.49 21951.2 2804.68 -9295.66 -19783.1 -7.41633 
68 1 34.1159 1.89708 7.5 6.04919 10707.4 -6853.33 48196.8 -1029.46 34968 -22878.6 -7.41766 
69 1 35.5357 1.87366 7.5 6.04919 14796.1 -7079.7 31235.7 1353.98 -16043.3 -7891.96 -7.41682 
70 1 36.2659 3.09154 7.5 6.0492 8970.2 -7331.03 59565.7 -109.243 38689.3 -8571.62 -7.41824 
133 1 29.2075 5.66782 7.5 6.0492 15874.7 -1221.86 -173.052 5927.15 2344.89 -31291.4 -7.41515 
134 1 29.8971 4.42652 7.5 6.0492 5860.04 -3503.08 50845.1 -3072.04 43111.6 -37236.2 -7.4178 
135 1 31.3169 4.4031 7.5 6.0492 15584 -3736.31 11087.3 4409.14 -2984.65 -27824.7 -7.41576 
136 1 32.0471 5.62098 7.5 6.0492 4384.87 -5112.53 68589.3 -1764.81 43641.9 -30427.8 -7.41873 
137 1 33.4669 5.59756 7.5 6.0492 15125.6 -4827.2 13167 3560.35 -2002.82 -17840.2 -7.4159 
138 1 34.1565 4.35626 7.5 6.0492 6739.75 -6480.28 65307.6 -904.017 41898.8 -21003.3 -7.41854 
139 1 35.5763 4.33284 7.5 6.0492 15259.1 -6247.83 21504.7 1652.67 -6604.98 -6734.8 -7.41634 
140 1 36.3065 5.55071 7.5 6.0492 4949.18 -6638.04 78093.9 -112.186 42140.7 -6551.19 -7.41921 
203 1 29.248 8.127 7.5 6.0492 15335.6 -832.71 -6236.69 7327.37 6142.43 -28733.4 -7.41485 
204 1 29.9376 6.8857 7.5 6.0492 2160.33 -3391.46 69808.1 -2785.42 43973.4 -36402.3 -7.41882 
205 1 31.3574 6.86228 7.5 6.0492 15124.8 -2965.25 3463.96 5571.26 2305.38 -25234.1 -7.41538 
206 1 32.0876 8.08015 7.5 6.0492 1010.93 -4525.03 88611.3 -1490.28 39939.6 -27836.2 -7.41981 
207 1 33.5074 8.05673 7.5 6.0492 13937.2 -3499.66 3731.97 4504.6 -720.641 -15148.7 -7.41543 
208 1 34.1971 6.81543 7.5 6.0492 2914.82 -5741.46 84946.9 -778.532 41439 -18495.1 -7.41959 
209 1 35.6169 6.79201 7.5 6.0492 14301 -4880.88 11806.3 2029.78 -2873.83 -5670.02 -7.41586 
210 1 36.3471 8.00989 7.5 6.0492 1497.89 -5591.68 98466.8 -109.919 37945.9 -4619.78 -7.4203 
19 1 37.6452 0.608939 7.5 6.04919 13903.6 -7628.08 38115.2 207.768 -22833.6 5991.52 -7.41716 
20 1 40.4848 0.562098 7.5 6.04919 12446 -6825.23 40308.1 1749.88 27554.8 18321.1 -7.41725 
21 1 41.9046 0.538677 7.5 6.04919 13684.5 -5963.23 30638.6 -1945.53 -23420.6 30617.6 -7.41676 
22 1 44.7442 0.491835 7.5 6.04919 11756.7 -3065.8 25402.7 3839.73 25450.9 34571.1 -7.41646 
23 1 46.164 0.468415 7.5 6.04919 12928.3 -1412.94 14672.1 -4235.06 -22564.3 36433.9 -7.4159 
71 1 37.6857 3.06812 7.5 6.0492 15259.6 -6997.65 27359.9 100.567 -11618.7 6670.65 -7.41663 
72 1 38.3754 1.82682 7.5 6.04919 10917.8 -7478.06 51168.1 749.772 33887.5 5310.95 -7.41781 
73 1 39.7952 1.8034 7.5 6.04919 14826.8 -6911.06 30276.5 -1055.49 -17238.9 19996 -7.41676 
74 1 40.5253 3.02128 7.5 6.0492 8837.18 -6606.04 55373.1 1521.72 38114.8 19876 -7.41803 
75 1 41.9452 2.99785 7.5 6.0492 15431.1 -5419.97 20093 -2538.97 -11195.6 30134.8 -7.41623 
76 1 42.6348 1.75656 7.5 6.04919 10454 -5277.63 40753.2 2623.19 32622.7 29774.3 -7.41726 
77 1 44.0546 1.73313 7.5 6.04919 14624.9 -3747.51 17581 -3331.3 -16541.7 36221.2 -7.41607 
78 1 44.7848 2.95101 7.5 6.0492 8011.86 -3145.98 40003 3615.87 36881.2 36452.2 -7.41722 
79 1 46.2046 2.92759 7.5 6.0492 15344.9 -925.711 4452.13 -4670.53 -9355.87 35615.8 -7.41537 
141 1 37.7263 5.52729 7.5 6.0492 14910.7 -5865.58 17732.1 -56.5042 -4772.23 6525.15 -7.41616 
142 1 38.4159 4.28599 7.5 6.0492 6980.82 -6999.52 68097.2 621.098 41254.4 6932.05 -7.41869 
143 1 39.8357 4.26257 7.5 6.0492 15431.5 -6129.14 20495 -1549.32 -7300.99 19393.3 -7.41628 
144 1 40.5659 5.48045 7.5 6.0492 4816.29 -6047.35 73554.2 1281.48 43080.3 20853.1 -7.41898 
145 1 41.9857 5.45703 7.5 6.0492 15559.9 -4616.89 11359.4 -3467.29 -2659.53 28184.6 -7.4158 
146 1 42.6753 4.21573 7.5 6.0492 6483.79 -5089.7 57220.9 2338.45 41557.1 31134.3 -7.41813 
147 1 44.0951 4.19231 7.5 6.0492 15915.9 -3237.15 8595.4 -4115.05 -4838.29 34937.6 -7.41562 
148 1 44.8253 5.41019 7.5 6.0492 4045.77 -3104.9 57418 3332.8 43654.1 37948.7 -7.41816 
149 1 46.2451 5.38677 7.5 6.0492 16367.3 -560.164 -2937.21 -5538.49 1254.49 34368.5 -7.415 
211 1 37.7669 7.98647 7.5 6.0492 13566 -4185.17 6939.39 -288.053 -4117.81 5641.45 -7.41562 
212 1 38.4565 6.74517 7.5 6.0492 3127.25 -6121.39 87641 482.702 41529.3 8088.84 -7.41972 
213 1 39.8763 6.72175 7.5 6.0492 14618.1 -4875.5 10996.1 -2280.19 -2789.88 17400.6 -7.41581 
214 1 40.6065 7.93963 7.5 6.0492 1358.38 -5183.29 93556.4 1008.97 40874.1 20513.2 -7.42006 
215 1 42.0263 7.91621 7.5 6.0492 14617.6 -3530.73 2495.89 -4713.29 176.976 24445.3 -7.41536 
216 1 42.7159 6.67491 7.5 6.0492 2666.32 -4636.32 76134.8 2010.23 44233.9 31386.7 -7.41914 
217 1 44.1357 6.65149 7.5 6.0492 15825.2 -2638.93 1190.92 -5358.27 2368.54 32225.4 -7.41525 
218 1 44.8659 7.86937 7.5 6.0492 679.007 -2918.44 76277 2902.69 44277.8 38074.3 -7.41919 
219 1 46.2857 7.84595 7.5 6.0492 16231.7 -333.311 -8675.7 -6890.41 7291 31989.3 -7.41472 
282 1 38.4971 9.20435 7.5 6.0492 222.322 -4961.71 108159 337.669 34735 8208.09 -7.42083 
283 1 39.9169 9.18093 7.5 6.0492 13276.9 -3185.53 -284.113 -3147.36 -4100.8 13985.7 -7.41524 
286 1 42.7565 9.13409 7.5 6.0492 -229.874 -3989.93 95878.3 1595.04 40354.2 29696.6 -7.42022 
287 1 44.1763 9.11067 7.5 6.0492 14962.1 -1990.94 -6246.61 -6912.78 4287.4 27610.4 -7.41488 
24 1 49.0036 0.421573 7.5 6.04919 10519.3 2690.21 8695.06 6255.24 22675 28597.4 -7.41557 
25 1 50.4234 0.398152 7.5 6.04919 11623.1 4179.29 386.495 -6784.52 -20181.5 21023.1 -7.41513 
26 1 53.263 0.351311 7.5 6.04919 9128.08 6976.45 -789.769 8752.07 19241.2 8973.74 -7.41508 
27 1 54.6828 0.32789 7.5 6.04919 10265.9 6840.25 -5212.36 -9239.66 -16206.9 2655.28 -7.41486 
80 1 46.8942 1.68629 7.5 6.04919 9374.87 -375.761 23389.5 4986.67 30034.9 35446.5 -7.41634 
81 1 48.314 1.66287 7.5 6.04919 13836.1 1775.29 1136.25 -5525.36 -15080.3 30223.3 -7.41518 
82 1 49.0442 2.88075 7.5 6.0492 6751.87 2343.62 22754.6 6390.08 32531.6 31643.7 -7.41631 
83 1 50.464 2.85733 7.5 6.0492 14557.5 4710.18 -10073.2 -6567.86 -8568.34 20341.3 -7.41459 
84 1 51.1536 1.61603 7.5 6.04919 7990.54 5143.67 9370.02 7732.71 25315.1 20671.7 -7.4156 
85 1 52.5734 1.59261 7.5 6.04919 12529.9 6390.42 -9230.88 -7831.24 -13561.1 9742.44 -7.41464 
86 1 53.3036 2.81049 7.5 6.0492 5575.57 6792.27 12365.7 9171.16 24956.2 13049.7 -7.41577 
87 1 54.7234 2.78707 7.5 6.0492 13329 7255.36 -15956.7 -8615.46 -8889.41 1356.78 -7.41431 
88 1 55.413 1.54577 7.5 6.04919 6904.36 7479.38 3756.34 10012.8 19346.1 3440.83 -7.41532 
150 1 46.9348 4.14547 7.5 6.0492 5438.37 -635.697 39110.4 4858.06 39293.7 38101 -7.41719 
151 1 48.3546 4.12205 7.5 6.0492 15944.9 2151.36 -7504.67 -5814 -2915.68 29851.9 -7.41474 
152 1 49.0848 5.33993 7.5 6.0492 3016.8 1939.94 38723.9 6298.09 38836.5 35856 -7.41718 
153 1 50.5046 5.31651 7.5 6.0492 16442 4990.53 -17342.8 -6654.2 1684.83 21173.4 -7.41422 
154 1 51.1942 4.07521 7.5 6.0492 4294.68 4750.89 23834.3 7911.78 31917.7 25440.9 -7.41638 
155 1 52.614 4.05179 7.5 6.0492 15172.2 6821.28 -18455.1 -7365.7 -4116.13 10026.8 -7.41417 
156 1 53.3442 5.26967 7.5 6.0492 2229.56 6610.7 25987.5 9233.82 28058.2 19541.8 -7.4165 
157 1 54.764 5.24625 7.5 6.0492 15684.6 7709.16 -24001.5 -7991.25 -1990.01 2126.97 -7.4139 
158 1 55.4536 4.00495 7.5 6.0492 3564.32 7678.91 16263.1 10178.3 21940.8 8714 -7.41597 
220 1 46.9753 6.60465 7.5 6.0492 1796.55 -834.278 56629.5 4540.44 43568 40530.7 -7.41814 
221 1 48.3951 6.58123 7.5 6.0492 16819.8 2291.71 -13318.2 -6600.37 6174.4 29661.3 -7.41444 
222 1 49.1253 7.79911 7.5 6.0492 -94.2721 1515.56 55193.4 5873.87 40560.2 40095 -7.41809 
223 1 50.5451 7.77568 7.5 6.0492 17219.2 4951.03 -21690 -7225.58 9055.83 22721.9 -7.414 
224 1 51.2347 6.53439 7.5 6.0492 1010.28 4323.69 38819.6 7734.55 34999.7 31685 -7.4172 
225 1 52.6546 6.51096 7.5 6.0492 16854 7077.33 -24538.8 -7211.24 3808.05 12148.9 -7.41385 
226 1 53.3847 7.72884 7.5 6.0492 -510.378 6365.01 38693 8881.39 28138.3 27556.4 -7.41719 
227 1 54.8045 7.70542 7.5 6.0492 17151.4 8067.69 -28930.3 -7596.73 3631.43 4734.94 -7.41365 
228 1 55.4942 6.46412 7.5 6.0492 652.355 7962.72 27823.3 10005.8 21883.6 16006.5 -7.41659 
290 1 47.0159 9.06383 7.5 6.0492 -981.84 -994.632 74412.9 3968.14 42448.7 41602.7 -7.41913 
291 1 48.4357 9.0404 7.5 6.0492 16697.6 2128.23 -17177.3 -7850.19 11225.7 28781.4 -7.41425 
294 1 51.2753 8.99356 7.5 6.0492 -1502.79 3797.66 52975.5 7140.31 34426.8 38188.4 -7.41798 
295 1 52.6951 8.97014 7.5 6.0492 17525.8 7008 -27572.7 -7493.9 9522.95 15364.9 -7.4137 
298 1 55.5347 8.9233 7.5 6.0492 -1561.09 8113.69 37228.9 9463.76 19474.4 24679.5 -7.4171 
28 1 57.5225 0.281049 7.5 6.04919 8264.81 6659.87 -3242.18 10508.1 15025.9 361.635 -7.41499 
29 1 58.9423 0.257628 7.5 6.04919 9541.52 4882.69 -6296.95 -10629.6 -11183.2 6684.04 -7.41485 
30 1 61.7819 0.210787 7.5 6.04919 8364.22 3796.62 -9377.56 10544.2 10064.9 18341.1 -7.41473 
31 1 63.2017 0.187366 7.5 6.04919 9697.66 2387.59 -15177.8 -10037.5 -6258.67 34516.3 -7.41444 
89 1 56.8328 1.52235 7.5 6.04919 11357.3 6381.1 -11055.4 -9920.85 -11184.5 -323.03 -7.41459 
90 1 57.563 2.74023 7.5 6.0492 5015.89 7258.97 8232.76 10582.7 17642.9 4003.51 -7.41557 
91 1 58.9828 2.71681 7.5 6.0492 12387.7 4750.57 -15853.7 -10444.3 -7128.12 3450.02 -7.41438 
92 1 59.6725 1.47551 7.5 6.04919 6644.43 5710.95 110.493 10639.6 14402.2 7708.53 -7.41518 
93 1 61.0923 1.45209 7.5 6.04919 10938.5 2942.63 -13360.9 -10839.1 -6408.44 17228.6 -7.41453 
94 1 61.8224 2.66996 7.5 6.0492 5233.52 5465.16 -327.161 9626.98 15274.5 19955.4 -7.41516 
95 1 63.2423 2.64654 7.5 6.0492 12153 1333.78 -21105 -10892.9 295.697 29100.5 -7.41417 
96 1 63.9319 1.40524 7.5 6.04919 7239.19 4247.66 -13542.2 9057.99 12483.1 33547.8 -7.41451 
159 1 56.8734 3.98153 7.5 6.0492 14065.8 6715.04 -20385.1 -9275.86 -5967.86 -1858.36 -7.41412 
160 1 57.6036 5.1994 7.5 6.0492 1949.42 8140.74 19047.8 10387 17734.1 9047.06 -7.41612 
161 1 59.0234 5.17598 7.5 6.0492 14667.6 5131.25 -23120.6 -9885.22 -3554.45 -26.7896 -7.41402 
162 1 59.713 3.93468 7.5 6.0492 3465.9 7071.4 10298 10159.3 16069.6 10389.7 -7.41568 
163 1 61.1328 3.91126 7.5 6.0492 13280 2705.59 -20218.3 -10883.5 -2357.13 11547.8 -7.4142 
164 1 61.863 5.12914 7.5 6.0492 2001.41 7619.94 8437.97 8732.23 16573.3 19741.9 -7.41558 
165 1 63.2828 5.10572 7.5 6.0492 13843.2 993.506 -23908 -11081.2 4736.45 19580.6 -7.41405 
166 1 63.9724 3.86442 7.5 6.0492 3794.29 6608.96 -5204.42 7655.87 19443.5 32091.1 -7.41491 
229 1 56.914 6.4407 7.5 6.0492 16090.8 7289.48 -26977.2 -8548.4 -1454.19 -1962.88 -7.41378 
230 1 57.6442 7.65858 7.5 6.0492 -559.915 9068.03 27733.4 9982.49 15074.5 15472.7 -7.41657 
231 1 59.064 7.63516 7.5 6.0492 16315.9 5844.18 -27618.4 -9058.55 -1084.41 -2691.86 -7.41379 
232 1 59.7536 6.39386 7.5 6.0492 596.907 8732.06 18913.5 9644.09 14258.1 13275.4 -7.41611 
233 1 61.1734 6.37044 7.5 6.0492 15036 3104.28 -24379.3 -10373.1 -26.4455 4503.27 -7.414 
234 1 61.9036 7.58832 7.5 6.0492 -732.557 9923.32 14987.5 8083.28 12933.8 18876.9 -7.41591 
235 1 63.3234 7.5649 7.5 6.0492 15042.4 1226.32 -23851.4 -10492.9 5674.29 8402.36 -7.41404 
236 1 64.013 6.3236 7.5 6.0492 403.705 9292.43 2609.65 6627.32 19971.2 27866.3 -7.41529 
299 1 56.9545 8.89988 7.5 6.0492 17316.7 7842.62 -30524.7 -7917.92 2154.28 -322.706 -7.41359 
302 1 59.7942 8.85304 7.5 6.0492 -1548.1 10313.7 24529.4 9122.56 9367.85 17018.9 -7.4164 
303 1 61.214 8.82962 7.5 6.0492 16299.2 3830 -25934.5 -9391.4 538.318 -1874.43 -7.4139 
306 1 64.0536 8.78278 7.5 6.0492 -2116.86 11898.9 7671.93 6074.23 13915.7 22794.6 -7.41554 
32 1 66.0413 0.140524 7.5 6.04919 9240.7 3972.09 -28259.5 8455.85 5112.62 44546.9 -7.41379 
33 1 67.4611 0.117104 7.5 6.04919 10352.3 4414.67 -37006.1 -7329.01 -2455.08 53380 -7.41334 
34 1 70.3007 0.0702621 7.5 6.04919 10272.6 8224.9 -53102.9 4652.18 1453.96 41553.1 -7.4125 
35 1 71.7205 0.0468413 7.5 6.04915 10853.9 9292.3 -59405.4 -3138.19 -314.612 32095 -7.41218 
97 1 65.3517 1.38182 7.5 6.04919 11278.1 1895.45 -27068.3 -9641.42 1226.92 45539.6 -7.41386 
98 1 66.0819 2.5997 7.5 6.0492 5931.21 6409.23 -21751.8 6696.79 19305.7 44038.4 -7.41409 
99 1 67.5017 2.57628 7.5 6.0492 12407.7 2388.85 -37762.9 -8797.4 12985.2 47575.4 -7.41332 
100 1 68.1913 1.33498 7.5 6.04919 8225.68 7158.21 -38916.4 5819.8 13417 48608.1 -7.41323 
101 1 69.6111 1.31156 7.5 6.04919 11838.2 5695.31 -49489.3 -6084.29 9596.36 46541.4 -7.4127 
102 1 70.3413 2.52944 7.5 6.0492 6653.45 10913.6 -48460.7 3157.84 25587.7 40566.6 -7.41273 
103 1 71.7611 2.50602 7.5 6.04915 12639.2 6608.09 -56015.3 -3987.75 24841.2 28767.6 -7.41236 
104 1 72.4507 1.26472 7.5 6.04914 8980.66 11561.2 -60566 1926.15 14636 24145.4 -7.41211 
105 1 73.8705 1.2413 7.5 6.04911 11847.4 9076.43 -63459.1 -865.808 14464.9 8096.99 -7.41197 
167 1 65.3922 3.841 7.5 6.0492 12984.7 628.176 -28383.8 -10596.3 10362.6 36553.1 -7.41382 
168 1 66.1224 5.05888 7.5 6.0492 2029.99 9152.75 -13316.6 5225.42 26944.3 38958.2 -7.4145 
169 1 67.5422 5.03546 7.5 6.0492 13240.6 782.302 -33246.1 -9570.37 23426.1 35699.6 -7.41356 
170 1 68.2319 3.79416 7.5 6.0492 4196.83 9821.36 -31415.6 4115.39 29729 45084.9 -7.4136 
171 1 69.6517 3.77074 7.5 6.0492 12911.5 3329.98 -44481.1 -7145.2 27828.1 38653.7 -7.41297 
172 1 70.3819 4.98862 7.5 6.0492 1952.72 13450 -39097.5 1935.81 40597.1 35795.9 -7.41322 
173 1 71.8017 4.9652 7.5 6.04915 12784.7 3873.35 -45283.1 -4463.28 42293.6 21581.8 -7.41291 
174 1 72.4913 3.7239 7.5 6.04915 4465.57 14083.9 -53164.6 1072.37 37645.7 22681.9 -7.4125 
175 1 73.9111 3.70048 7.5 6.04911 12605.6 6134.76 -55091.2 -953.276 39069.8 5935.81 -7.4124 
237 1 65.4328 6.30018 7.5 6.0492 13944.3 -10.0267 -25905.8 -10707.5 14575.8 23296.6 -7.41395 
238 1 66.163 7.51806 7.5 6.0492 -1441.16 11935 -5751.36 4366.88 25305.8 31130.1 -7.41488 
239 1 67.5828 7.49464 7.5 6.0492 13564.7 -394.619 -24995.7 -9420.1 25810.5 20666 -7.41398 
240 1 68.2724 6.25334 7.5 6.0492 -98.9934 12506 -22098.7 2944.51 35662.3 37569.6 -7.41407 
241 1 69.6922 6.22992 7.5 6.0492 12946.1 1220.25 -33917.2 -7514.75 37008.3 26419 -7.41351 
242 1 70.4224 7.44779 7.5 6.0492 -2386.07 15742.9 -28716.6 1248.01 42085.5 28405.7 -7.41376 
243 1 71.8422 7.42437 7.5 6.04915 12345 1266.96 -29832 -4443.81 47354 12427.2 -7.41369 
244 1 72.5319 6.18307 7.5 6.04915 -552.642 16282.4 -41962.9 477.539 47663 19472.8 -7.41309 
245 1 73.9517 6.15965 7.5 6.04911 12148.9 3161.33 -40135.4 -930.565 51981.8 2675.69 -7.41316 
307 1 65.4734 8.75936 7.5 6.0492 14680.2 -218.69 -20946.8 -9916.88 13309.9 9085.66 -7.41419 
310 1 68.313 8.71251 7.5 6.0492 -3332.67 14974.1 -14354.5 2435.62 30108.1 28087.4 -7.41447 
311 1 69.7328 8.68909 7.5 6.0492 12923.5 -617.175 -20574.6 -7089.94 35656.1 12867 -7.41418 
314 1 72.5724 8.64225 7.5 6.04915 -4383.27 18099.1 -31229.4 208.099 42906.9 15018.2 -7.41366 
315 1 73.9922 8.61883 7.5 6.04911 11700.8 315.938 -22162.3 -787.127 51083.2 -564.336 -7.41407 
246 1 0.162264 9.83671 7.5 6.04911 -5674.12 18970.7 -29270.2 -453.435 36692.9 2150.98 -7.41378 
247 1 1.58207 9.81329 7.5 6.04915 11892.9 -688.169 -13517.3 2745.84 46852.8 -7658.5 -7.41449 
248 1 2.31226 11.0312 7.5 6.04915 -5583.24 19282.2 -23926.7 -1144.68 24744.5 -6619.94 -7.41404 
249 1 3.73206 11.0077 7.5 6.0492 12689.6 -1803.95 -6887.46 5446.9 36153.2 -7088.98 -7.41483 
250 1 4.42168 9.76645 7.5 6.0492 -4617.63 17236 -20220.3 -1965.36 25764.7 -17515.4 -7.41421 
251 1 5.84149 9.74303 7.5 6.0492 12994.4 -829.461 -15177.5 8179.14 33021.1 -11837.9 -7.41444 
252 1 6.57168 10.9609 7.5 6.0492 -4174.2 16400.7 -9377.26 -3328.29 10851.1 -17886.9 -7.41473 
253 1 7.99148 10.9375 7.5 6.0492 14331.4 -449.217 -13360.7 8876.83 18124.5 -3064.41 -7.41453 
254 1 8.68111 9.69619 7.5 6.0492 -2923.15 13631 -327.147 -4913.79 9644.6 -23205.8 -7.41516 
316 1 0.20283 12.2959 7.5 6.04911 -5621.67 20081.1 -24538.3 -491.645 19163.3 1489.9 -7.41402 
317 1 1.62264 12.2725 7.5 6.04915 12816.2 -2998.24 1990.37 2429.73 33779.3 -3521.16 -7.41526 
318 1 2.35282 13.4903 7.5 6.04915 -4265.63 20323 -22186.8 -1256.23 8159.27 -3860.07 -7.41412 
319 1 3.77263 13.4669 7.5 6.0492 13937.4 -3499.51 5370.83 4504.48 24135.3 981.258 -7.41543 
320 1 4.46225 12.2256 7.5 6.0492 -4692.17 18746.6 -16991.4 -2144.79 10679.9 -10493 -7.41437 
321 1 5.88206 12.2022 7.5 6.0492 13980.3 -1997.8 -4379.82 6941.06 22806.3 -889.217 -7.41496 
322 1 6.61224 13.4201 7.5 6.0492 -3307.07 17959.3 -9940.78 -3407.43 -1085.51 -11514.8 -7.41469 
323 1 8.03205 13.3967 7.5 6.0492 15335.8 -833.296 -6296.81 7327.2 11380 6343 -7.41485 
324 1 8.72167 12.1554 7.5 6.0492 -3265.3 15622 110.634 -4920.18 -525.397 -16326.8 -7.41518 
386 1 0.243395 14.7551 7.5 6.04911 -3113.84 20855.1 -24812 -483.311 3707.9 135.974 -7.41398 
387 1 1.6632 14.7316 7.5 6.04915 14258.7 -4870.98 14057.4 2030.2 22509.2 718.133 -7.41586 
388 1 2.39339 15.9495 7.5 6.04915 -1154.77 21026.2 -24499.8 -1203.42 -2502.6 -2968.53 -7.41397 
389 1 3.8132 15.9261 7.5 6.0492 15126.1 -4827.34 14899 3560.47 17523.4 7433.39 -7.4159 
390 1 4.50282 14.6848 7.5 6.0492 -2567.85 19824.7 -18422.4 -2180.28 -1652.55 -6506.58 -7.41427 
391 1 5.92262 14.6614 7.5 6.0492 15125.1 -2965.56 4469.18 5571.57 15146.2 7786.08 -7.41538 
392 1 6.65281 15.8793 7.5 6.0492 -993.041 19008.8 -13829.2 -3074.92 -7119.81 -8715.6 -7.41446 
393 1 8.07262 15.8558 7.5 6.0492 15874.7 -1221.87 204.229 5927.13 10088.4 12761.9 -7.41515 
394 1 8.76224 14.6145 7.5 6.0492 -2013.55 17013.2 -3242.04 -4593.54 -7199.87 -13193.6 -7.41499 
456 1 0.283961 17.2142 7.5 6.04911 425.979 21347.2 -27927.3 -432.058 -3060.78 -1417.73 -7.41378 
457 1 1.70377 17.1908 7.5 6.04915 15217.2 -6237.92 23403.8 1653.44 19156.4 4453.49 -7.41634 
458 1 2.43395 18.4087 7.5 6.04915 2089.41 21446.6 -28034.6 -910.109 -3136.83 -3247.06 -7.41374 
459 1 3.85376 18.3853 7.5 6.0492 15274 -5752.16 23175.5 2804.84 19982 11845.4 -7.41633 
460 1 4.54338 17.144 7.5 6.0492 495.222 20516.7 -22318.6 -1829 -5681.4 -5160.06 -7.41404 
461 1 5.96319 17.1206 7.5 6.0492 15584 -3736.27 12110.2 4408.82 15046.8 13721.3 -7.41576 
462 1 6.69338 18.3384 7.5 6.0492 1465.85 19622.5 -18319.2 -2145.84 -4478.14 -8429.01 -7.4142 
463 1 8.11318 18.315 7.5 6.0492 15262.3 -1620.12 7308.36 4943.07 16547.2 16448.2 -7.4155 
464 1 8.8028 17.0737 7.5 6.0492 -57.0664 17860.8 -8217.79 -3603.12 -6875.19 -13111 -7.41471 
255 1 10.1009 9.67276 7.5 6.0492 14778.8 1207.27 -20218.4 10018.4 11179.2 -3732.55 -7.4142 
256 1 10.8311 10.8906 7.5 6.0492 -2632.08 13159.9 10297.9 -6642.41 962.902 -19111.5 -7.41568 
257 1 12.2509 10.8672 7.5 6.0492 16075.1 3723.99 -23120.6 9072.8 1753.99 3091.64 -7.41402 
258 1 12.9405 9.62592 7.5 6.0492 -1650.95 10979.7 18913.6 -8346.53 4367.78 -18985.5 -7.41611 
259 1 14.3603 9.6025 7.5 6.0492 16309.7 5851.18 -27618.5 9064.15 -1789.04 2285.04 -7.41379 
260 1 15.0905 10.8204 7.5 6.0492 -1984.1 10492.2 27733.4 -9160.28 5862.5 -20791.3 -7.41657 
261 1 16.5103 10.797 7.5 6.0492 17068.5 8090.17 -30524.7 8059.13 -1356.62 -1704.34 -7.41359 
262 1 17.1999 9.55566 7.5 6.0492 -1320.59 8796.54 33359.3 -9865.73 14681.9 -20846.2 -7.41688 
263 1 18.6198 9.53224 7.5 6.0492 17078.8 8743.05 -31045.1 7916.76 -105.094 -6268.7 -7.41354 
325 1 10.1415 12.1319 7.5 6.0492 15707.4 1431.59 -15853.7 8529.92 6551.83 4448.13 -7.41438 
326 1 10.8717 13.3498 7.5 6.0492 -2466.89 14741.7 8232.73 -6262.38 -5354.34 -17281 -7.41557 
327 1 12.2915 13.3264 7.5 6.0492 16585.9 4194.2 -20385.1 7818.94 1374.53 6097.49 -7.41412 
328 1 12.9811 12.0851 7.5 6.0492 -2396.1 12495.5 19047.8 -7874.14 -1032.08 -19881.7 -7.41612 
329 1 14.4009 12.0617 7.5 6.0492 16896.6 6483.89 -26977.2 8083.06 -972.831 2240.78 -7.41378 
330 1 15.1311 13.2796 7.5 6.0492 -2534.02 11139.9 27823.3 -8169.85 2920.23 -26955 -7.41659 
331 1 16.5509 13.2561 7.5 6.0492 16916.4 8302.65 -28930.3 7732.43 2284.86 -5512.42 -7.41365 
332 1 17.2405 12.0148 7.5 6.0492 -2498 9050.59 37229 -8922.89 11635.9 -29205.1 -7.4171 
395 1 10.182 14.5911 7.5 6.0492 16223.8 1516.92 -11055.4 7110.01 5312.42 9847.54 -7.41459 
396 1 10.9122 15.809 7.5 6.0492 -1337.61 15713.7 3756.23 -5259.9 -6693.15 -18474.6 -7.41533 
397 1 12.332 15.7856 7.5 6.0492 16233.8 4350.37 -15956.8 6938.51 5619.72 7020.03 -7.41431 
398 1 13.0217 14.5443 7.5 6.0492 -2161.63 13404.9 16263.1 -6872.27 -3423.85 -23358.3 -7.41597 
399 1 14.4415 14.5209 7.5 6.0492 16626.1 6768.19 -24001.5 7449.74 2837.02 659.881 -7.4139 
400 1 15.1717 15.7387 7.5 6.0492 -2481.2 11321.4 25987.5 -6513.77 2894.57 -34070 -7.4165 
401 1 16.5915 15.7153 7.5 6.0492 15766.9 8163.63 -24538.8 7837.05 8617.2 -9372.33 -7.41385 