ITEM: TIMESTEP
0
ITEM: NUMBER OF ATOMS
9128
ITEM: BOX BOUNDS pp pp pp
0.0000000000000000e+00 8.3079096800000002e+01
0.0000000000000000e+00 1.4389721700000001e+02
0.0000000000000000e+00 1.8399999600000001e+01
ITEM: ATOMS id type x y z c_csym c_2[1] c_2[2] c_2[3] c_2[4] c_2[5] c_2[6] c_3 
1 1 0 0 7.5 6.0491 10679.1 10604.1 -64825 -3.04979 0.0854869 0.060846 -7.41189 
2 1 2.14797 1.19809 7.5 6.04915 9434.9 11349.5 -61355.8 -1882.18 12429.6 -22429.8 -7.41207 
3 1 3.56781 1.17707 7.5 6.0492 11551.9 8119.84 -57540.8 4108.82 11558.8 -33365.2 -7.41227 
4 1 6.4075 1.13504 7.5 6.0492 9131.67 7199.53 -43395.6 -5445 10331.2 -51423.3 -7.413 
5 1 7.82735 1.11402 7.5 6.0492 10771.2 4221.19 -38187.2 8104.99 5223.73 -47320.3 -7.41328 
40 1 0.0364063 2.45924 7.5 6.04911 7378.03 13012.2 -61575.8 -111.135 25025.8 189.169 -7.41206 
41 1 1.45625 2.43822 7.5 6.04915 12378.8 8092.12 -60383.7 1961.47 25423.4 -14383.9 -7.41212 
42 1 2.18438 3.65734 7.5 6.04915 5477.86 13636.2 -55183.6 -1389.92 33142.2 -20473.9 -7.41239 
43 1 3.60422 3.63632 7.5 6.0492 12511.1 5697.45 -52007.3 5037.14 33363.4 -30071.9 -7.41256 
44 1 4.29594 2.39619 7.5 6.0492 7561.36 10722.7 -51444.1 -3172.69 21264.7 -39682.8 -7.41258 
45 1 5.71578 2.37517 7.5 6.0492 11920.4 5099.32 -47537 6938.22 19046.3 -42709.7 -7.4128 
46 1 6.44391 3.59428 7.5 6.0492 5500.22 9576.32 -36989.1 -4150.75 24626.3 -47754.4 -7.41332 
47 1 7.86375 3.57326 7.5 6.0492 12134.7 2502.57 -36843.8 9401.6 20579.7 -41391.8 -7.41336 
48 1 8.55547 2.33313 7.5 6.0492 7244.94 6175.39 -28447.6 -6366.6 15168.7 -51875.5 -7.41375 
118 1 0.0728125 4.91849 7.5 6.04911 2913.76 15129.3 -53136.5 -215.856 42604.8 837.651 -7.41251 
119 1 1.49266 4.89747 7.5 6.04915 12581.2 5454.41 -50742.9 2355.43 44746.4 -13047.4 -7.41261 
120 1 2.22078 6.11658 7.5 6.04915 900.524 15662.7 -45316 -1054.39 44240.4 -16613.7 -7.41291 
121 1 3.64063 6.09556 7.5 6.0492 12424.5 3332.64 -41283.7 5587.59 46710.4 -24654.6 -7.41311 
122 1 4.33235 4.85543 7.5 6.0492 3330.24 12996 -43276.8 -2309.17 35317.3 -34764.4 -7.413 
123 1 5.75219 4.83441 7.5 6.0492 12505.3 3078.64 -41381.5 7920.19 34777.2 -36037.2 -7.41312 
124 1 6.48032 6.05352 7.5 6.0492 1424.74 11950.1 -28218.4 -3225.93 31388.1 -40038.2 -7.41377 
125 1 7.90016 6.0325 7.5 6.0492 12698.3 1157.97 -31682.6 10050.2 29686 -32079.7 -7.41363 
126 1 8.59188 4.79237 7.5 6.0492 3581.99 8620.65 -20757.2 -5150.21 22724.1 -46035.6 -7.41414 
196 1 0.109219 7.37773 7.5 6.04911 -1587.47 16931.5 -42365.2 -308.415 48486.7 1562.8 -7.41308 
197 1 1.52906 7.35671 7.5 6.04915 12095 2843.11 -36624.5 2553.74 53392.2 -11013.6 -7.41333 
198 1 2.25719 8.57582 7.5 6.04915 -3076.34 17386.7 -34862.4 -924.291 43573.4 -11975.7 -7.41346 
199 1 3.67703 8.5548 7.5 6.0492 12105.5 1110.72 -27570.2 5655.89 49250.8 -17830.1 -7.41381 
200 1 4.36875 7.31467 7.5 6.0492 -901.51 15074.2 -33372.9 -1804.09 39234.4 -27416.1 -7.41352 
201 1 5.7886 7.29365 7.5 6.0492 12498.5 1290.51 -31488.4 8260.06 41507.2 -26874.9 -7.41363 
202 1 6.51672 8.51276 7.5 6.0492 -2089.53 14172 -19701.5 -2794.73 29154.9 -30382.9 -7.41421 
203 1 7.93657 8.49174 7.5 6.0492 13025.9 148.385 -24099.3 9911.39 30883.2 -20910.7 -7.41401 
204 1 8.62829 7.25161 7.5 6.0492 19.5929 11111.5 -12738 -4407.79 23268.5 -37051.4 -7.41454 
274 1 0.145625 9.83697 7.5 6.04911 -4860.6 18403.4 -32475 -381.788 42509.8 1953.14 -7.4136 
275 1 1.56547 9.81595 7.5 6.04915 11794.8 365.772 -20748.6 2538.96 50943.2 -8339.84 -7.41414 
278 1 4.40516 9.77391 7.5 6.0492 -3990.82 16875.7 -24654.3 -1673.67 33050 -19477.2 -7.41398 
279 1 5.825 9.75289 7.5 6.0492 12596.1 -265.23 -19971 7925.68 39014.2 -16583.8 -7.4142 
282 1 8.66469 9.71086 7.5 6.0492 -2597.05 13430.8 -6586.22 -4156.77 17154.8 -27342.5 -7.41486 
6 1 10.667 1.07198 7.5 6.0492 8556.01 3620.74 -20245.2 -8518.42 8964.85 -46304 -7.41418 
7 1 12.0869 1.05096 7.5 6.0492 9961.62 2573.59 -19131.3 10457.1 -3131.8 -30425.1 -7.41425 
8 1 14.9266 1.00892 7.5 6.0492 8110.68 3886.45 -5118.87 -10388.5 10453.5 -20579.9 -7.41493 
9 1 16.3464 0.987901 7.5 6.0492 9606.36 4718.34 -9747.27 10937.7 -10220.9 -6270.26 -7.4147 
49 1 9.97532 2.31211 7.5 6.0492 11261.9 2180.71 -28820 10152.2 7224.04 -39116.9 -7.41377 
50 1 10.7034 3.53122 7.5 6.0492 5364.69 5820.48 -13102.7 -7280.66 15689.3 -43670.4 -7.41452 
51 1 12.1233 3.5102 7.5 6.0492 11861.4 1731.64 -22827.4 11269.2 4787.87 -25051.7 -7.41408 
52 1 12.815 2.27007 7.5 6.0492 6823.28 4170.95 -7410.07 -9169.02 11632 -34014.6 -7.41481 
53 1 14.2349 2.24905 7.5 6.0492 10847.8 2995.05 -16251.4 11170.9 -4185.18 -15441.4 -7.4144 
54 1 14.963 3.46816 7.5 6.0492 5200.28 5397.45 3437.06 -9831.47 12851.8 -20932.1 -7.41535 
55 1 16.3828 3.44714 7.5 6.0492 11995.5 4591.17 -17224.9 10904.1 -6423.96 -3342.85 -7.41433 
56 1 17.0745 2.20701 7.5 6.0492 6641.28 5534.65 2896.76 -10597.3 13706.5 -10223.6 -7.41531 
127 1 10.0117 4.77135 7.5 6.0492 12509.7 1162.03 -28428.4 10990.5 16584.9 -31403.8 -7.4138 
128 1 10.7398 5.99046 7.5 6.0492 1996.16 8291.37 -5383.17 -6361.4 17629 -37320.1 -7.41491 
129 1 12.1597 5.96944 7.5 6.0492 13216.1 1474.67 -24078.2 11453.7 9346.22 -17446.8 -7.41402 
130 1 12.8514 4.72931 7.5 6.0492 3717.7 6289.9 497.665 -8309.34 13955.6 -31194.4 -7.4152 
131 1 14.2713 4.70829 7.5 6.0492 12763.7 2848.55 -21094 11312.2 202.273 -10530.2 -7.41416 
132 1 14.9994 5.92741 7.5 6.0492 2349.22 7249.26 11425.4 -9343.54 12570.5 -19817.6 -7.41575 
133 1 16.4192 5.90639 7.5 6.0492 13951.2 4956.38 -22863.2 10487 -3750.32 -535.261 -7.41404 
134 1 17.1109 4.66626 7.5 6.0492 3789.52 6735.91 12135.5 -10376.6 14750.4 -11928.8 -7.41578 
205 1 10.0481 7.23059 7.5 6.0492 13294.9 617.283 -25353 11064.2 20202 -21362.3 -7.41396 
206 1 10.7763 8.44971 7.5 6.0492 -865.079 10766.1 1014.89 -5886.99 14157.5 -29395.2 -7.41523 
207 1 12.1961 8.42869 7.5 6.0492 14274.5 1649.53 -23332.8 10942.3 9694.7 -9017.24 -7.41405 
208 1 12.8878 7.18856 7.5 6.0492 826.996 8603.21 7478.31 -7732.79 12331.9 -26505.8 -7.41555 
209 1 14.3077 7.16754 7.5 6.0492 14266.4 3204.76 -23898.1 10896.8 2029.88 -5045.69 -7.41401 
210 1 15.0358 8.38665 7.5 6.0492 -39.5321 9146.35 17553 -8990.29 9510.23 -18591.8 -7.41606 
211 1 16.4556 8.36563 7.5 6.0492 15460.6 5620.27 -26458.5 9739.98 -2563.64 1511.26 -7.41385 
212 1 17.1474 7.1255 7.5 6.0492 1237.38 8100.32 20089.3 -10111.4 13541.4 -13846.5 -7.41618 
283 1 10.0845 9.68984 7.5 6.0492 14008.8 399.787 -20704.2 10384.3 18155.4 -10703 -7.41418 
286 1 12.9242 9.6478 7.5 6.0492 -1336.79 10808.4 12103.8 -7436.87 7293.1 -21878.5 -7.41578 
287 1 14.3441 9.62678 7.5 6.0492 15450.8 3830.42 -24882.9 10016.7 1524.36 -101.714 -7.41394 
290 1 17.1838 9.58474 7.5 6.0492 -739.901 9355.33 25812 -9776.23 10515.6 -16806.7 -7.41648 
10 1 19.1861 0.945862 7.5 6.0492 8205.13 6235.16 -527.506 -10490.5 15086.7 -2818.71 -7.41512 
11 1 20.6059 0.924843 7.5 6.0492 10011.2 7316.3 -7989.69 9888.48 -14429.3 615.323 -7.41473 
12 1 23.4456 0.882805 7.5 6.0492 8993.17 6538.18 1128.14 -8943.38 21065.3 -7553.48 -7.41518 
13 1 24.8655 0.861786 7.5 6.0492 11068.1 6515.46 -5044.55 8002.19 -16392.3 -12633.2 -7.41485 
57 1 18.4944 2.18599 7.5 6.0492 11047.5 6259.97 -12901.5 10411.6 -10908.3 1086.64 -7.41451 
58 1 19.2225 3.40511 7.5 6.0492 5281.24 6766.65 9825.52 -10619.8 17842.7 -5919.24 -7.41565 
59 1 20.6424 3.38409 7.5 6.0492 12698 7571.33 -17093.1 9345.26 -10128.4 1340.46 -7.41427 
60 1 21.3341 2.14396 7.5 6.0492 7007.27 6869.06 5607.34 -10072.4 20379.5 -4185.24 -7.41542 
61 1 22.7539 2.12294 7.5 6.0492 11916 7608.83 -12075.9 8724.77 -12721.3 -3887.11 -7.4145 
62 1 23.482 3.34205 7.5 6.0492 5846.02 6305.13 13082.8 -9319.37 26985.9 -11467.2 -7.41581 
63 1 24.9019 3.32103 7.5 6.0492 13760.9 6855.49 -14165.6 7592.5 -8907.24 -12594.4 -7.41438 
64 1 25.5936 2.0809 7.5 6.0492 7964.32 5047.11 9774.29 -7964.89 27869.3 -17607.2 -7.41563 
65 1 27.0135 2.05988 7.5 6.0492 13090.7 4800.71 -5764.23 6848.1 -12446.6 -21652.8 -7.41481 
135 1 18.5308 4.64524 7.5 6.0492 13404.4 6556.26 -20584.6 9931.29 -7543.08 2224.33 -7.41412 
136 1 19.2589 5.86435 7.5 6.0492 2543.16 7504.42 19622.5 -10565 18662.3 -9886.97 -7.41616 
137 1 20.6788 5.84333 7.5 6.0492 14862.4 8002.62 -24148.2 8737.85 -6092.15 247.713 -7.41391 
138 1 21.3705 4.6032 7.5 6.0492 4049.67 7035.96 16856.5 -10268.2 23597.2 -8753.58 -7.41601 
139 1 22.7903 4.58218 7.5 6.0492 14357.9 7954.07 -20223.2 8196.08 -7041.33 -4790.01 -7.41408 
140 1 23.5184 5.80129 7.5 6.0492 2878.65 6114.61 25374 -9416.67 30485 -17149.4 -7.41647 
141 1 24.9383 5.78027 7.5 6.0492 15696.6 7096.11 -20801.3 7388.15 -2097.36 -14450.2 -7.41404 
142 1 25.63 4.54014 7.5 6.0492 4714.08 4630.78 22888.8 -8174.12 34107.4 -21956.1 -7.41633 
143 1 27.0499 4.51912 7.5 6.0492 15239 5059.89 -13385.2 6814.08 -3766.12 -22205.2 -7.41442 
213 1 18.5672 7.10448 7.5 6.0492 15254 7121 -26187.9 9265.35 -4941.17 2108.47 -7.41383 
214 1 19.2953 8.32359 7.5 6.0492 250.471 8235.09 27873.7 -10315.1 17485.8 -15051.2 -7.41659 
215 1 20.7152 8.30257 7.5 6.0492 16362.7 8448.08 -28807.9 8204.69 -2690.69 -2459.58 -7.41366 
216 1 21.4069 7.06244 7.5 6.0492 1425.28 7247.84 27431.1 -10184.9 24576.7 -14838.4 -7.41657 
217 1 22.8267 7.04142 7.5 6.0492 16082.9 8256.1 -25926.7 7824.2 -2032.13 -7531.21 -7.41379 
218 1 23.5549 8.26053 7.5 6.0492 363.595 5874.9 37057.9 -9163.82 31189.4 -24226.5 -7.4171 
219 1 24.9747 8.23951 7.5 6.0492 16756.6 7130.71 -24924.1 7524.68 3322.49 -17493.5 -7.41383 
220 1 25.6664 6.99938 7.5 6.0492 1769.93 4201.56 36423.7 -8072.69 37028.8 -27654 -7.41706 
221 1 27.0863 6.97836 7.5 6.0492 16434.8 5131.71 -18511.2 7139.8 3196.77 -23824.6 -7.41416 
291 1 18.6036 9.56372 7.5 6.0492 16515.8 7736.29 -29513.8 8563.76 -3013.31 609.316 -7.41365 
294 1 21.4433 9.52168 7.5 6.0492 -667.661 7344.75 36501.4 -9781.03 23463 -22269.9 -7.41707 
295 1 22.8631 9.50066 7.5 6.0492 17001.3 8368.46 -29105 7744.09 2069.59 -11478.2 -7.41362 
298 1 25.7028 9.45863 7.5 6.0492 -606.84 3708.25 49441.7 -7607.76 36488.5 -34078.7 -7.41778 
299 1 27.1227 9.43761 7.5 6.0492 16726.6 4938.75 -21531.3 7873.16 7906.04 -25610.1 -7.41401 
14 1 27.7052 0.819747 7.5 6.0492 10235.9 3179.44 8114.21 -6516.14 26009.6 -25431.6 -7.41554 
15 1 29.125 0.798728 7.5 6.0492 12306 2120.26 4972.17 5924.77 -17765 -29789.8 -7.41538 
16 1 31.9647 0.75669 7.5 6.0492 11462.2 -1877.11 21681 -4047.99 28658.5 -37057.9 -7.41626 
17 1 33.3845 0.735671 7.5 6.0492 13248.9 -3061.39 20195.1 3950.49 -19573.3 -33785.3 -7.41619 
18 1 36.2242 0.693632 7.5 6.0492 12300.9 -5874.71 36083.4 -1936.43 29259 -30904 -7.41703 
66 1 27.7416 3.27899 7.5 6.0492 6872.69 2712.83 21087.3 -6706.4 34862.1 -28145.7 -7.41623 
67 1 29.1614 3.25797 7.5 6.0492 14693.3 2434.95 -3787.56 6037.4 -7442 -29150.1 -7.41492 
68 1 29.8531 2.01784 7.5 6.0492 9219.04 468.088 20662.9 -5271.05 32826.5 -33851.3 -7.4162 
69 1 31.273 1.99682 7.5 6.0492 14051.3 -407.398 7621.96 5056.68 -12939.2 -33479.7 -7.41553 
70 1 32.0011 3.21593 7.5 6.0492 8056.86 -2148.06 35112.6 -3941.47 38498.2 -37762.7 -7.41697 
71 1 33.421 3.19491 7.5 6.0492 15136.9 -2713.66 11331.8 4447.85 -8399.75 -32383.4 -7.41574 
72 1 34.1127 1.95478 7.5 6.0492 10340.3 -4205.75 35694.9 -2838.82 34449.6 -36336.3 -7.417 
73 1 35.5325 1.93376 7.5 6.0492 14540.2 -4923.51 22773.5 3222.83 -14905.3 -28013.9 -7.41635 
74 1 36.2606 3.15287 7.5 6.0492 9013.02 -5847.67 49635.8 -1734.87 38625.2 -30104.6 -7.41773 
144 1 27.778 5.73823 7.5 6.0492 3568.42 2248.64 35498.7 -6699.36 40250.6 -31956 -7.41701 
145 1 29.1978 5.71721 7.5 6.0492 16050.1 2619.38 -10036.1 6501.35 1165.89 -29330.2 -7.41461 
146 1 29.8895 4.47708 7.5 6.0492 5728.17 81.6213 34972.2 -5261.1 40643.9 -35851.2 -7.41697 
147 1 31.3094 4.45606 7.5 6.0492 15627.6 -108.456 121.192 5583.39 -2825.53 -32599.8 -7.41515 
148 1 32.0375 5.67518 7.5 6.0492 4516.49 -2309.75 50763.9 -3786 43962.3 -38355.4 -7.41781 
149 1 33.4574 5.65416 7.5 6.0492 15772.1 -2281.57 4450.65 5286.35 73.3544 -30827 -7.4154 
150 1 34.1491 4.41403 7.5 6.0492 6781.57 -4226.15 50521.7 -2669.03 42066.2 -35920.1 -7.41778 
151 1 35.5689 4.39301 7.5 6.0492 15504.3 -4418.42 14643.3 3876.27 -5169.13 -26393.1 -7.41595 
152 1 36.2971 5.61212 7.5 6.0492 5394.18 -5546.18 65749.3 -1573.77 43196.3 -28617.3 -7.41858 
222 1 27.8144 8.19748 7.5 6.0492 714.742 1781 50365.1 -6390.11 41396.1 -36319.7 -7.41782 
223 1 29.2342 8.17646 7.5 6.0492 16401.1 2616.16 -14323.1 7380.97 6936.61 -29545.4 -7.41439 
224 1 29.926 6.93633 7.5 6.0492 2452.27 -254.013 50703 -5061.92 43857.6 -38116.1 -7.41782 
225 1 31.3458 6.91531 7.5 6.0492 16073.4 129.266 -5472.1 6503.3 4250.47 -31635.7 -7.41487 
226 1 32.0739 8.13442 7.5 6.0492 1388.45 -2356.53 67665.6 -3472.88 43951.4 -38514.1 -7.41872 
227 1 33.4938 8.1134 7.5 6.0492 15377.8 -1786.57 -1592.6 6459.14 4430.57 -28524.9 -7.4151 
228 1 34.1855 6.87327 7.5 6.0492 3304.81 -4054.51 67376.5 -2449.33 44211.1 -34911.5 -7.41868 
229 1 35.6053 6.85225 7.5 6.0492 15246.8 -3684.76 7477.63 4805.97 578.811 -24270.8 -7.41559 
230 1 36.3335 8.07136 7.5 6.0492 2120.16 -5003.72 83537.6 -1370.59 41665.3 -26459.1 -7.41954 
302 1 29.9624 9.39557 7.5 6.0492 -205.757 -547.149 66785 -4610.27 42168 -40117.4 -7.4187 
303 1 31.3822 9.37455 7.5 6.0492 15662.4 271.33 -10114.7 7769.89 7622.83 -29816.3 -7.41464 
306 1 34.2219 9.33251 7.5 6.0492 462.913 -3719 85138.4 -2116.82 40544.4 -33136.5 -7.41965 
307 1 35.6417 9.31149 7.5 6.0492 14260.4 -2743.37 -137.029 5934.07 1676.57 -21160.3 -7.41521 
19 1 37.6441 0.672613 7.5 6.0492 13732.4 -6531.92 33569.2 2056.94 -21623.9 -19668 -7.41692 
20 1 40.4838 0.630575 7.5 6.0492 12653.7 -7587.04 43805.8 -126.261 28685.1 -9242.99 -7.41745 
21 1 41.9036 0.609556 7.5 6.0492 13855.9 -7582.53 38381.9 162.882 -23147.9 5362.71 -7.41718 
22 1 44.7433 0.567517 7.5 6.0492 12562.7 -6943.73 40684.7 1601.66 27492.1 16603.8 -7.41728 
75 1 37.6805 3.13186 7.5 6.0492 15182.4 -6090.02 24196.8 2461.39 -11018.5 -18268.8 -7.41645 
76 1 38.3722 1.89172 7.5 6.0492 11030.1 -7005.88 47575.1 -925.925 34058.5 -20929.8 -7.41763 
77 1 39.7921 1.87071 7.5 6.0492 14690.1 -7173.35 32289.4 1198.15 -17099.3 -7199.41 -7.41687 
78 1 40.5202 3.08982 7.5 6.0492 9485.28 -7402.45 57284.3 -98.6091 37703.9 -7933.09 -7.41813 
79 1 41.94 3.0688 7.5 6.0492 15189.2 -7103.17 28669.2 102.558 -12888 5961.22 -7.4167 
80 1 42.6317 1.82867 7.5 6.0492 11194.9 -7512.85 49984.7 681.841 33170.8 4659.11 -7.41776 
81 1 44.0516 1.80765 7.5 6.0492 14708.1 -7036.95 31524.5 -923.934 -18083.7 18118.8 -7.41683 
82 1 44.7797 3.02676 7.5 6.0492 9378.83 -6809.74 53945.6 1385.75 37139.8 17882.5 -7.41796 
153 1 37.7169 5.5911 7.5 6.0492 15252 -5296.2 16149 3049.71 -3634.93 -16712.2 -7.41605 
154 1 38.4086 4.35097 7.5 6.0492 7518.26 -6701.17 62485.7 -816.873 41030.4 -19444.7 -7.4184 
155 1 39.8285 4.32995 7.5 6.0492 15301.8 -6488.64 23454.5 1431.27 -8103.39 -6239.09 -7.41643 
156 1 40.5566 5.54906 7.5 6.0492 5867.06 -6844.53 73404.3 -99.0417 42005.8 -6320.76 -7.41898 
157 1 41.9764 5.52804 7.5 6.0492 15112.4 -6177.12 20070.3 -11.2065 -5826.29 5960.74 -7.41627 
158 1 42.6681 4.28791 7.5 6.0492 7712.96 -7136.78 64748.8 578.532 40423.6 5984 -7.41852 
159 1 44.088 4.26689 7.5 6.0492 15420.1 -6383.53 22634.4 -1301.85 -8760.86 17764.6 -7.41639 
160 1 44.8161 5.486 7.5 6.0492 5759.23 -6342.76 69837.2 1190.42 42481.7 18793.3 -7.41879 
231 1 37.7533 8.05034 7.5 6.0492 14324.5 -4149.34 7868.42 3794.56 -1064.23 -14685.8 -7.41564 
232 1 38.445 6.81021 7.5 6.0492 3969.82 -6080.36 79670.5 -720.604 42261.5 -17452.3 -7.41931 
233 1 39.8649 6.78919 7.5 6.0492 14664.6 -5363.62 14948.3 1724.28 -3441.5 -5385.19 -7.41601 
234 1 40.593 8.0083 7.5 6.0492 2540.93 -5979.76 91353.6 -100.384 40146.6 -4698.62 -7.41993 
235 1 42.0128 7.98728 7.5 6.0492 14055.4 -4802.01 10917.2 -183.554 -3680.34 5400.93 -7.41582 
236 1 42.7046 6.74715 7.5 6.0492 4151.29 -6418.74 81836.8 469.076 42153.8 7053.24 -7.41942 
237 1 44.1244 6.72613 7.5 6.0492 14891.1 -5330.58 14224.9 -1858.2 -3565.19 16403.6 -7.41597 
238 1 44.8525 7.94525 7.5 6.0492 2431.76 -5602.68 87540.2 976.527 42015.3 18852.7 -7.41974 
310 1 38.4814 9.26945 7.5 6.0492 1040.66 -5212.55 98026.2 -595.49 37370 -15117.6 -7.4203 
311 1 39.9013 9.24843 7.5 6.0492 13393.6 -3815.9 5130.43 2049.35 -3786.85 -4427.68 -7.41552 
314 1 42.741 9.2064 7.5 6.0492 1192.65 -5442.1 100165 352.664 37864 7471.53 -7.42041 
315 1 44.1608 9.18538 7.5 6.0492 13708.3 -3900.26 4703.31 -2543.72 -3293.53 13987.2 -7.41549 
23 1 46.1631 0.546498 7.5 6.0492 13676.8 -6244.99 32289.7 -1755.43 -23641.5 28322.7 -7.41685 
24 1 49.0028 0.50446 7.5 6.0492 12016.8 -3903.57 28202.5 3451.01 25761.7 33364.6 -7.41661 
25 1 50.4227 0.483441 7.5 6.0492 13079.4 -2522.33 18533.8 -3772.3 -23008.2 37105.6 -7.4161 
26 1 53.2624 0.441402 7.5 6.0492 11004.8 1064.98 12679.4 5556.47 23452.5 32452.7 -7.41578 
27 1 54.6822 0.420383 7.5 6.0492 12006.5 2592.7 4309.27 -6002.98 -21200.3 27512.6 -7.41534 
83 1 46.1996 3.00574 7.5 6.0492 15290 -5820.63 22689.8 -2217.7 -12666.5 28007.1 -7.41637 
84 1 46.8913 1.76561 7.5 6.0492 10827.7 -5733.93 41509.8 2353.87 32113.6 27537.2 -7.41731 
85 1 48.3111 1.74459 7.5 6.0492 14531.6 -4485.6 20941.2 -2963.46 -17576.1 34824.7 -7.41625 
86 1 49.0392 2.9637 7.5 6.0492 8709 -3984.68 41173 3194.75 36207.8 34855 -7.41729 
87 1 50.4591 2.94268 7.5 6.0492 15202.3 -2138.74 9170.73 -4197.06 -11140.5 36382.2 -7.41563 
88 1 51.1508 1.70255 7.5 6.0492 9950.81 -1682.35 26403.1 4383.25 30161.1 36151.9 -7.41651 
89 1 52.5707 1.68153 7.5 6.0492 13909.5 204.049 5968.76 -4941.28 -16286.8 33957.6 -7.41544 
90 1 53.2988 2.90064 7.5 6.0492 7620.47 745.19 25319.2 5550.27 33207.1 34745.7 -7.41645 
91 1 54.7186 2.87963 7.5 6.0492 14585.2 3012.84 -5142.23 -5965.27 -10006.8 26816.6 -7.41485 
161 1 46.236 5.46498 7.5 6.0492 15560.9 -5106.69 14630.6 -2945.03 -4438.67 26588.7 -7.41597 
162 1 46.9277 4.22485 7.5 6.0492 7309.01 -5558.71 55990.2 2104.48 40514.6 28669.6 -7.41807 
163 1 48.3475 4.20383 7.5 6.0492 15745.1 -4014.87 12560.5 -3625.62 -6959.17 33784 -7.41583 
164 1 49.0757 5.42295 7.5 6.0492 5105.47 -3888.29 56617.1 2945.69 42953.3 35991.5 -7.41811 
165 1 50.4955 5.40193 7.5 6.0492 16150.2 -1742.66 2042.73 -4978.74 -1301.6 35116 -7.41527 
166 1 51.1872 4.16179 7.5 6.0492 6414.45 -1850.41 40446.7 4222.57 39091.6 38075.1 -7.41725 
167 1 52.6071 4.14078 7.5 6.0492 15766.2 557.024 -2082.74 -5321.3 -5013.78 33339.3 -7.41503 
168 1 53.3352 5.35989 7.5 6.0492 4143.35 447.263 39916 5445.59 39985.6 37668.4 -7.41724 
169 1 54.755 5.33887 7.5 6.0492 16242.7 3283.06 -11999 -6224.62 -7.02157 26960.3 -7.4145 
239 1 46.2724 7.92423 7.5 6.0492 14828.7 -4119.23 6664.53 -3929.2 -753.348 23843.6 -7.41557 
240 1 46.9641 6.6841 7.5 6.0492 3766.33 -5136.12 72696.5 1841.13 43951.5 29042.5 -7.41896 
241 1 48.3839 6.66308 7.5 6.0492 15768 -3403.63 5487.76 -4640.88 161.654 31598.9 -7.41548 
242 1 49.1121 7.88219 7.5 6.0492 1843.72 -3636.36 73634.1 2611.63 44599 36129.7 -7.41903 
243 1 50.5319 7.86117 7.5 6.0492 16079.4 -1380.31 -3812.38 -6150.71 4786.41 32842.1 -7.41498 
244 1 51.2236 6.62104 7.5 6.0492 2977.6 -1925.6 56336 3961.78 43890.5 39708.4 -7.41811 
245 1 52.6435 6.60002 7.5 6.0492 16558.4 784.183 -7938.33 -6103.97 3710.16 32573.6 -7.41473 
246 1 53.3716 7.81913 7.5 6.0492 1068 171.081 55488.1 5127.11 42718 40456.1 -7.41809 
247 1 54.7914 7.79811 7.5 6.0492 16945.1 3324.23 -16616 -6893.1 7395.7 27364.9 -7.41427 
318 1 47.0005 9.14334 7.5 6.0492 826.169 -4521.37 90534 1520.6 41798.4 28076.3 -7.41992 
319 1 48.4203 9.12232 7.5 6.0492 15022.2 -2686.16 -1560.01 -5935.79 2819.8 27935.5 -7.41513 
322 1 51.26 9.08028 7.5 6.0492 143.155 -1929.07 72973.4 3533.05 43932.8 40280.6 -7.41902 
323 1 52.6799 9.05926 7.5 6.0492 16478.5 830.114 -12375.9 -7276.23 8880.49 31065.8 -7.41451 
324 1 53.408 10.2784 7.5 6.0492 -1275.96 -105.511 70924.4 4568.93 41406.5 42266.8 -7.41894 
325 1 54.8278 10.2574 7.5 6.0492 16868.9 3090.55 -19554.2 -7928.84 11789.7 27350.6 -7.41412 
28 1 57.5219 0.378345 7.5 6.0492 9732.91 5807.41 1474.56 7838.88 20571.5 16606.4 -7.41519 
29 1 58.9417 0.357326 7.5 6.0492 10724.2 6389.5 -3813.97 -8319.63 -18118.3 8946.67 -7.41492 
30 1 61.7814 0.315287 7.5 6.0492 8668.14 7430.57 -2625.62 9833.02 17073.6 1496.44 -7.415 
31 1 63.2013 0.294268 7.5 6.0492 9744.93 6442.81 -5481.77 -10145.6 -13942.2 709.294 -7.41487 
92 1 55.4103 1.63949 7.5 6.0492 8731.48 3479.9 12153.5 6789.48 26605.1 26872.4 -7.41575 
93 1 56.8302 1.61848 7.5 6.0492 12808.1 5083.27 -5846.15 -7010.86 -14834.3 17664.8 -7.41481 
94 1 57.5583 2.83759 7.5 6.0492 6444.1 5467.92 13576.1 8150.9 27477 19865.4 -7.41583 
95 1 58.9782 2.81657 7.5 6.0492 13506.1 6792.26 -13547.8 -7812.11 -9859.15 8044.42 -7.41442 
96 1 59.6699 1.57644 7.5 6.0492 7562.77 7027.12 4376.47 9126.8 21648.3 9168.58 -7.41535 
97 1 61.0897 1.55542 7.5 6.0492 11610.3 7059.05 -10218.7 -9066.96 -12985.8 1481.64 -7.41461 
98 1 61.8178 2.77453 7.5 6.0492 5613.18 7501.24 8420.23 10135.1 20550.9 5033.45 -7.41557 
99 1 63.2377 2.75351 7.5 6.0492 12453.2 6563.81 -14875.1 -9660.15 -9243.69 -1213.29 -7.41439 
100 1 63.9294 1.51338 7.5 6.0492 6907.19 6941.23 1767.95 10561.6 16533.5 1672.36 -7.41524 
170 1 55.4467 4.09874 7.5 6.0492 5315.73 3098.92 25447.9 6893.9 34014.9 30391.5 -7.41646 
171 1 56.8666 4.07772 7.5 6.0492 15159.9 5457.25 -14199 -6786.97 -5080.14 17727 -7.41438 
172 1 57.5947 5.29683 7.5 6.0492 3239.97 5131.63 26692.1 8239.53 32116.4 24916.1 -7.41654 
173 1 59.0146 5.27581 7.5 6.0492 15643.6 7149.18 -20936.9 -7418.87 -2049.76 8940.35 -7.41404 
174 1 59.7063 4.03568 7.5 6.0492 4408.28 6873.56 16397.8 9382.1 25813.2 13768.6 -7.41599 
175 1 61.1261 4.01466 7.5 6.0492 14144.7 7422.04 -18947.9 -8462.68 -6608.77 1036.92 -7.41416 
176 1 61.8543 5.23377 7.5 6.0492 2710.17 7735.42 19460.8 10186.9 22148.4 10407.1 -7.41615 
177 1 63.2741 5.21275 7.5 6.0492 14704.6 6960 -22424.8 -9038.63 -4681.17 -2066.45 -7.41401 
178 1 63.9658 3.97262 7.5 6.0492 3996.35 7533.81 12009.1 10541.8 18186.2 5495.93 -7.41577 
248 1 55.4832 6.55798 7.5 6.0492 2126.4 2706.79 39787.1 6766.23 38297.1 34829.9 -7.41724 
249 1 56.903 6.53696 7.5 6.0492 16656.5 5654.97 -20004 -6868.66 3213.06 19018 -7.41408 
250 1 57.6311 7.75607 7.5 6.0492 467.964 4756.22 39813 8008.38 33887 31045.1 -7.41725 
251 1 59.051 7.73505 7.5 6.0492 16988.8 7349.48 -25801.9 -7299.51 4393.5 11247.4 -7.41379 
252 1 59.7427 6.49492 7.5 6.0492 1548.78 6747.14 28379.7 9340.99 27692.1 20135.8 -7.41663 
253 1 61.1625 6.4739 7.5 6.0492 16055.8 7832.02 -25379 -7931.07 -855.199 2226.77 -7.41383 
254 1 61.8907 7.69302 7.5 6.0492 225.024 7992.12 29466.8 9961.56 21578.8 17279.1 -7.41668 
255 1 63.3105 7.672 7.5 6.0492 16362.9 7489.54 -27697 -8395.82 -819.408 -1633.46 -7.41374 
256 1 64.0022 6.43187 7.5 6.0492 1350.44 8319.17 21367.2 10333.8 17651.6 10493.8 -7.41625 
326 1 55.5196 9.01722 7.5 6.0492 -483.73 2275.67 54128.5 6337.15 39041.9 39313 -7.41803 
327 1 56.9394 8.9962 7.5 6.0492 17287 5578.62 -23474.7 -7340.1 9249.53 20909.9 -7.41391 
328 1 57.6675 10.2153 7.5 6.0492 -1661.1 4282.66 52006.3 7430.67 32907.8 37372 -7.41792 
329 1 59.0874 10.1943 7.5 6.0492 17531.6 7279.9 -28236.9 -7529.96 9176.89 14407.4 -7.41366 
330 1 59.7791 8.95417 7.5 6.0492 -773.222 6543.77 39366.3 8959.49 27206 27595.5 -7.41723 
331 1 61.1989 8.93315 7.5 6.0492 17236.9 8132.64 -29311.3 -7607.81 3839.05 4852.29 -7.41362 
332 1 61.9271 10.1523 7.5 6.0492 -1672.23 8110.96 37641.7 9433.47 19230.5 25174.1 -7.41713 
333 1 63.3469 10.1312 7.5 6.0492 17361.3 7954.65 -30546.3 -7868.93 2352.69 241.334 -7.41358 
334 1 64.0386 8.89111 7.5 6.0492 -789.564 9076.98 28869 9943.1 15028.5 16627.8 -7.41665 
32 1 66.041 0.25223 7.5 6.0492 8265.52 5484.43 -4680.36 10799.8 12910 4827.16 -7.41494 
33 1 67.4608 0.231211 7.5 6.0492 9450.4 3758.16 -8007.67 -10702 -9333.35 15284.8 -7.41478 
34 1 70.3005 0.189172 7.5 6.0492 8643.22 3324.04 -13774.3 10153.2 8345.51 27611.4 -7.41451 
35 1 71.7203 0.168153 7.5 6.0492 9811.22 2503.74 -19971 -9521.71 -5145.13 42079.3 -7.4142 
101 1 65.3493 1.49236 7.5 6.0492 10852.5 5080.19 -10532.7 -10547.3 -9812.33 3855.26 -7.41464 
102 1 66.0774 2.71147 7.5 6.0492 5416.49 6341.32 4646.57 10537.2 15557.9 7450.17 -7.4154 
103 1 67.4972 2.69045 7.5 6.0492 11904.8 3270.34 -15568.1 -10867.4 -5567.58 11702.4 -7.41441 
104 1 68.1889 1.45032 7.5 6.0492 6999.21 4718.89 -3802.32 10364.2 12907.5 15812 -7.415 
105 1 69.6088 1.4293 7.5 6.0492 10795.1 2165.64 -15777.6 -10688.1 -4527.75 27017.7 -7.41442 
106 1 70.3369 2.64841 7.5 6.0492 5820.48 5004.66 -6586.26 9020.37 15101.9 28527.8 -7.41486 
107 1 71.7568 2.6274 7.5 6.0492 11950.3 1224.41 -24099.3 -10532.7 2667.6 37201 -7.41401 
108 1 72.4485 1.38726 7.5 6.0492 7693.29 4399.01 -19701.6 8438.4 11734.9 40440.5 -7.41421 
179 1 65.3857 3.9516 7.5 6.0492 13244.6 5164.17 -18433.4 -10187.8 -6135.78 1063.68 -7.41424 
180 1 66.1138 5.17071 7.5 6.0492 2617.02 7585.94 13574.3 10153 15984.9 10199.9 -7.41585 
181 1 67.5336 5.1497 7.5 6.0492 13888.1 3356.44 -21278.9 -10653.9 -2435.63 6700.58 -7.41413 
182 1 68.2253 3.90956 7.5 6.0492 4110.06 6262.78 4564.48 9634.95 15772.3 16966.8 -7.41541 
183 1 69.6452 3.88855 7.5 6.0492 12798.6 1609.58 -20704.2 -11083.1 191.358 21074.6 -7.41418 
184 1 70.3733 5.10766 7.5 6.0492 2760.24 7141.02 1014.86 7979.74 18378.2 26958.4 -7.41523 
185 1 71.7932 5.08664 7.5 6.0492 13369.2 542.676 -25353 -11019.5 8399.3 28176.7 -7.41396 
186 1 72.4849 3.84651 7.5 6.0492 4523.95 6606.9 -12738 7008.3 20453.2 38676.8 -7.41454 
257 1 65.4221 6.41085 7.5 6.0492 15156.5 5636.86 -24349.9 -9583.06 -3088.13 -1454.94 -7.41394 
258 1 66.1502 7.62996 7.5 6.0492 175.997 8977.4 20929 9732.45 13700.9 13420.4 -7.41623 
259 1 67.57 7.60894 7.5 6.0492 15410.3 3870.51 -24882.9 -10037.7 -674.108 1371.03 -7.41394 
260 1 68.2618 6.36881 7.5 6.0492 1334.45 8136.97 12103.8 8978.79 15300.8 17255.3 -7.41578 
261 1 69.6816 6.34779 7.5 6.0492 14284.6 1639.91 -23332.8 -10938.9 2961.81 12904.5 -7.41405 
262 1 70.4097 7.5669 7.5 6.0492 -41.0795 9462.09 7478.25 7234.96 16788.8 23932.7 -7.41555 
263 1 71.8296 7.54588 7.5 6.0492 14328.5 362.552 -24078.2 -10811.7 10436.3 16817.5 -7.41402 
264 1 72.5213 6.30575 7.5 6.0492 1214.64 9081.88 -5383.21 5906.45 23505.7 33927.3 -7.41491 
335 1 65.4585 8.87009 7.5 6.0492 16536.8 6293.83 -28045.8 -8826.1 -885.776 -2981.1 -7.41374 
336 1 66.1866 10.0892 7.5 6.0492 -1638.67 10244.5 25811.9 9260.71 9297.2 17510.1 -7.41648 
337 1 67.6064 10.0682 7.5 6.0492 16514.3 4565.96 -26458.5 -9131.6 -26.9845 -2975.79 -7.41385 
338 1 68.2982 8.82805 7.5 6.0492 -929.869 10045.7 17553 8473.07 11345.8 17532 -7.41606 
339 1 69.718 8.80703 7.5 6.0492 15410.4 2060.46 -23898.1 -10236.1 3354.75 4280.82 -7.41401 
340 1 70.4461 10.0261 7.5 6.0492 -2067.72 11666.7 11425.4 6793.27 10877.3 20795.2 -7.41575 
341 1 71.866 10.0051 7.5 6.0492 15124.1 487.642 -21094 -9947.2 9018.31 5440.32 -7.41416 
342 1 72.5577 8.76499 7.5 6.0492 -1546.75 11554 497.618 5269.94 20037.4 27683.1 -7.4152 
36 1 74.56 0.126115 7.5 6.0492 9514.58 4645.75 -33373.1 7821.88 4125.75 47686.1 -7.41352 
37 1 75.9799 0.105096 7.5 6.0492 10440.2 5301.88 -41283.8 -6722.65 -2003.74 52779.7 -7.41311 
38 1 78.8196 0.0630574 7.5 6.0492 10393.6 8718.22 -55183.6 4227.45 1159.86 38938.8 -7.41239 
39 1 80.2394 0.0420382 7.5 6.04915 10863.1 9626.81 -60386.1 -2848.51 -255.256 29209.9 -7.41212 
109 1 73.8683 1.36625 7.5 6.0492 11250.2 2537.68 -31488.5 -8980.89 2520.7 49383.8 -7.41363 
110 1 74.5964 2.58536 7.5 6.0492 6525.2 6849.68 -28218.5 6170.58 18980.1 47202 -7.41377 
111 1 76.0163 2.56434 7.5 6.0492 12294.9 3288.26 -41381.5 -8039.63 13820.6 48136.5 -7.41312 
112 1 76.708 1.32421 7.5 6.0492 8582.71 7743.61 -43276.8 5342.07 12448.2 47967.9 -7.413 
113 1 78.1279 1.30319 7.5 6.0492 11765.8 6442.88 -52007.4 -5469.89 9361.29 43929.5 -7.41256 
114 1 78.856 2.5223 7.5 6.0492 7181.38 11093.5 -51444.1 2956.93 23734 38257.2 -7.41258 
115 1 80.2758 2.50128 7.5 6.04915 12538 7148.45 -57540.8 -3532.99 23115.8 26692.7 -7.41227 
116 1 80.9675 1.26115 7.5 6.04915 9206.85 11556 -61355.6 1773.24 13209.9 21979.1 -7.41207 
117 1 82.3874 1.24013 7.5 6.04911 11747.7 9248.03 -63688.1 -774.454 13069.1 7342.61 -7.41195 
187 1 73.9047 3.82549 7.5 6.0492 12749 1107.69 -31682.7 -10022.6 12938.8 41748.7 -7.41363 
188 1 74.6329 5.0446 7.5 6.0492 2896.76 9296.66 -20757.3 4758.54 28506 42697.5 -7.41414 
189 1 76.0527 5.02358 7.5 6.0492 13051.2 1586.03 -36843.8 -8872.48 25556.6 38518.4 -7.41336 
190 1 76.7444 3.78345 7.5 6.0492 4968.96 10117 -36989.2 3840.06 29043.4 45204.2 -7.41332 
191 1 78.1643 3.76243 7.5 6.0492 12817.6 4202.89 -47537 -6419.82 27464.6 37849.4 -7.4128 
192 1 78.8924 4.98154 7.5 6.0492 2968.94 13364.5 -43395.7 1888.08 39368.3 34658.6 -7.413 
193 1 80.3122 4.96052 7.5 6.04915 12811.1 4641.98 -48572.7 -3979.52 40705.2 21233.8 -7.41274 
194 1 81.0039 3.72039 7.5 6.04915 5257.63 13838.5 -55223.9 1065.22 34932.7 20937.9 -7.41239 
195 1 82.4238 3.69937 7.5 6.04911 12587.1 6610.14 -56895.5 -850.065 36067.9 5726.4 -7.41231 
265 1 73.9411 6.28473 7.5 6.0492 13520.6 150.947 -28428.4 -10407 18904 30064.9 -7.4138 
266 1 74.6693 7.50384 7.5 6.0492 -598.861 11784 -13102.7 3837.53 29975 35422.6 -7.41452 
267 1 76.0891 7.48282 7.5 6.0492 13243.9 198.75 -28820 -9005.45 30264.2 25814.7 -7.41377 
268 1 76.7808 6.24269 7.5 6.0492 932.389 12488.1 -28447.6 2721.83 37341.2 39074.3 -7.41375 
269 1 78.2007 6.22167 7.5 6.0492 12883.4 2124.91 -38187.3 -6881.14 38368.7 28184 -7.41328 
270 1 78.9288 7.44078 7.5 6.0492 -1225.74 15438 -33676.3 1199.55 44168.6 28860.5 -7.4135 
271 1 80.3486 7.41977 7.5 6.04915 12412 2207.62 -35247.5 -4075.88 48433.9 13990.2 -7.41341 
272 1 81.0404 6.17963 7.5 6.04915 693.471 15863.4 -45433.5 531.123 46738 18575.8 -7.4129 
273 1 82.4602 6.15862 7.5 6.04911 12302.4 3929.87 -44454.6 -851.667 50231.1 3201.54 -7.41294 
343 1 73.9775 8.74397 7.5 6.0492 14025.6 -432.275 -22827.4 -10021.7 19301.5 16672.3 -7.41408 
344 1 74.7057 9.96309 7.5 6.0492 -3110.43 14095.1 -7410.14 3437.75 23641.5 27081 -7.41481 
345 1 76.1255 9.94207 7.5 6.0492 13478.2 -928.077 -19131.3 -8420.09 27914.8 12500.3 -7.41425 
346 1 76.8172 8.70194 7.5 6.0492 -2513.92 14702.5 -20245.3 2124.11 35618 30915.8 -7.41418 
347 1 78.2371 8.68092 7.5 6.0492 12708.6 243.182 -25949.2 -6743.04 40110.7 16881.9 -7.4139 
348 1 78.9652 9.90003 7.5 6.0492 -4257.2 17232.1 -25184.7 921.476 38071 21905.3 -7.41395 