ITEM: TIMESTEP
219
ITEM: NUMBER OF ATOMS
9128
ITEM: BOX BOUNDS pp pp pp
0.0000000000000000e+00 8.3079096800000002e+01
0.0000000000000000e+00 1.4389721700000001e+02
0.0000000000000000e+00 1.8399999600000001e+01
ITEM: ATOMS id type x y z c_csym c_2[1] c_2[2] c_2[3] c_2[4] c_2[5] c_2[6] c_3 
1 1 4.45072e-06 -2.70526e-07 7.43596 6.0459 -11093.7 -11078.8 -7735.27 -15.6636 -0.210561 -0.0742508 -7.41275 
2 1 2.1585 1.17785 7.44307 6.03482 -21709 -1154.5 -4799.69 818.687 13079.8 -23739.3 -7.41305 
3 1 3.57777 1.14487 7.45128 6.02094 -20812.3 -4668.17 -3566.91 23739 10540.4 -29258.8 -7.41319 
4 1 6.41533 1.08142 7.47145 6.0167 -27094.8 3326.83 3586.36 33299.6 11140.1 -42275.3 -7.41441 
5 1 7.83459 1.05322 7.48008 6.02454 -25049.6 -3981.25 -1953.78 66437.6 -3334.14 -23553.6 -7.41394 
40 1 0.059198 2.45848 7.44307 6.02757 -17876.4 -5849.85 -5502.11 -8907.6 24458.2 1366.77 -7.41297 
41 1 1.47851 2.42421 7.44525 6.02718 -17527.6 -6178.71 -4612.33 -2414.53 27068.9 -13224.1 -7.41309 
42 1 2.2161 3.63725 7.45491 6.02125 -42149.3 17308.6 -1350.06 -14874.2 28006.2 -20096.8 -7.41344 
43 1 3.63529 3.60429 7.46132 6.01542 -39317.6 11482.9 -2967.22 6753.46 30597.2 -22278.1 -7.41346 
44 1 4.31552 2.35801 7.45986 6.02673 -41065.6 18149.7 2058.42 9161.62 18791.5 -38744.9 -7.41394 
45 1 5.7347 2.3273 7.46918 6.01867 -38121 7591.03 -3918.27 40818.7 12715 -27745.6 -7.41345 
46 1 6.47073 3.54161 7.47725 6.02355 -54405.7 35585.3 9770.23 16526.3 16301 -38537.3 -7.41513 
47 1 7.88988 3.51288 7.48398 6.02629 -47618.5 14814.2 -9799.13 47647.8 7051.6 -15200.4 -7.41339 
48 1 8.57124 2.26735 7.48508 6.01932 -35426.3 17626.5 10576.9 40296.1 12603 -31806.9 -7.4155 
118 1 0.115638 4.91712 7.45981 6.01742 -25870.4 -2336.53 -3491.27 -29812.1 33764.8 2681 -7.41332 
119 1 1.53496 4.88313 7.46135 6.02102 -22817.6 -1135.55 1194.46 -23754 42663.8 -10975.6 -7.41392 
120 1 2.27035 6.09735 7.47138 6.0208 -56498.6 27572.2 -1522.77 -36833.9 26792.8 -13826.9 -7.41371 
121 1 3.68953 6.0646 7.47534 6.01262 -49055 22407.7 432.925 -18307.2 36300.8 -13537 -7.4142 
122 1 4.37081 4.81866 7.47145 6.02071 -64362.9 41271.3 4928.14 -12740.9 22377.5 -30990.2 -7.41439 
123 1 5.78992 4.78764 7.47794 6.01526 -57074.9 25316.9 -6395.5 15779.8 22856.6 -17358.2 -7.41356 
124 1 6.52384 6.00305 7.48525 6.01706 -70684.4 53946.5 11751.7 -10190.4 11620 -29005 -7.41554 
125 1 7.94297 5.9735 7.48949 6.02276 -58084.5 27349.1 -13881.8 17160.6 9939.31 -5795.32 -7.41332 
126 1 8.62476 4.72794 7.48936 6.02233 -51854.1 40418.9 17357.8 15730.1 10746.7 -27503.2 -7.41628 
196 1 0.168184 7.37581 7.47711 6.01984 -31123.4 -1360.35 -6868.87 -47435.5 25689.4 2594.65 -7.41342 
197 1 1.58755 7.34247 7.47801 6.02075 -22738.9 2707.92 8362.68 -42363.5 40994.9 -7650.23 -7.41505 
198 1 2.3212 8.55766 7.48491 6.03023 -60224.7 29112.6 -7177.71 -49123.7 13467.6 -8227.42 -7.41365 
199 1 3.74044 8.52545 7.48676 6.0159 -47403.4 26717.1 6182.53 -35386.8 28787.2 -3779.44 -7.41513 
200 1 4.423 7.28005 7.48329 6.02113 -75439.2 50526.9 2628.52 -35079.6 13638 -20634.7 -7.41451 
201 1 5.84212 7.24882 7.48684 6.01567 -62592.6 34597.2 -4976.11 -11974 21449.2 -6034.29 -7.41406 
202 1 6.57462 8.46491 7.49146 6.01751 -74969.8 57975.8 8681.21 -32531.9 952.668 -19569.7 -7.41545 
203 1 7.99379 8.43462 7.49375 6.02321 -57576.5 33425.6 -13112.6 -10924.6 7145.11 2377.06 -7.41365 
204 1 8.67633 7.18926 7.4937 6.01909 -59097.1 50348.5 19017.6 -12983.7 3140.64 -21655.8 -7.41653 
274 1 0.21775 9.83443 7.48908 6.02733 -30335.1 -1418.87 -14467.6 -48698 9378.68 1027.04 -7.41322 
275 1 1.63719 9.80218 7.48947 6.02277 -17238.1 4347.23 15824.1 -45264 28638.5 -2463.91 -7.41615 
278 1 4.4728 9.74148 7.49097 6.02455 -73897.9 49044.9 -3933.99 -44344.8 393.228 -12499.3 -7.41426 
279 1 5.89199 9.71033 7.49242 6.01953 -57238.3 36884.7 -134.86 -28640.9 14282.4 4215.92 -7.41474 
282 1 8.72627 9.65071 7.4962 6.01959 -61221.4 52288.3 15980.4 -34541.9 -4823.8 -18524.7 -7.41625 
6 1 10.6727 0.995641 7.49108 6.01842 -18842.7 616.816 6617.27 52594.3 12088.1 -16589.5 -7.41531 
7 1 12.0921 0.969745 7.49337 6.0233 -16319.5 -4713.94 -4852.41 74799.1 -12838.3 -685.892 -7.41435 
8 1 14.9312 0.91358 7.4954 6.01827 -10030.8 -1867.06 5180.46 56221.2 18126.4 -3260.83 -7.41535 
9 1 16.3506 0.888151 7.49652 6.01677 -7075.96 -3008.31 -6849.56 82428.8 -15244.3 -5671.69 -7.41455 
49 1 9.99048 2.24053 7.48986 6.03118 -30256 1399.64 -9150.91 67649.1 -5448.62 -7835.02 -7.41372 
50 1 10.7264 3.45513 7.49297 6.02241 -30241.3 19617.5 17806.4 34974 12781.3 -17698 -7.41642 
51 1 12.1457 3.42853 7.49469 6.0322 -21108.9 -2235.13 -17773.4 57578 -7754.14 1461.81 -7.41336 
52 1 12.8287 2.18397 7.49465 6.01988 -15438.2 3544.73 13212.5 46741.9 16253.6 -7208.07 -7.416 
53 1 14.248 2.15799 7.4953 6.02428 -9321.98 -7026.58 -13474.4 68648.1 -11609.9 1201.81 -7.41391 
54 1 14.9847 3.37216 7.49744 6.017 -9084.45 -2279.47 19359.9 41834.7 23459.2 -9164.13 -7.41654 
55 1 16.4041 3.34639 7.49898 6.02115 348.489 -11359.7 -22175 70125.7 -6731.96 -7775.32 -7.41366 
56 1 17.0877 2.10221 7.49858 6.0095 -8265.63 -4474.28 11522.5 64342.4 27441.8 -12606.5 -7.41595 
127 1 10.044 4.70015 7.49274 6.03387 -40487.4 11551.5 -18254.1 41650.4 -748.785 -2324.22 -7.4131 
128 1 10.7786 5.91532 7.49607 6.02738 -36620 30876.2 24581 6896.96 8529.98 -17722.6 -7.4171 
129 1 12.1979 5.88752 7.49765 6.03915 -21479.3 1513.15 -26863.6 29996.4 -4352.18 1281.21 -7.41285 
130 1 12.8815 4.6431 7.49723 6.02462 -18126 10349.4 24417.3 24341.7 16244.5 -11779.9 -7.41703 
131 1 14.3009 4.61631 7.49826 6.03204 -5664.99 -9848.39 -26327.2 48387.6 -5864.21 -1278.89 -7.41314 
132 1 15.0367 5.83078 7.50242 6.02162 -11629.4 -115.927 30832.3 18560.1 24110 -18816.1 -7.4175 
133 1 16.4561 5.80442 7.50519 6.02781 3051.76 -11374.4 -34634.5 50200.8 875.776 -13386.5 -7.4132 
134 1 17.1406 4.56063 7.50401 6.00956 -10540.3 -6098.05 26446.8 46587 33626 -21670.4 -7.41713 
205 1 10.0956 7.16024 7.49599 6.03201 -42220.3 18787.2 -22550.3 10451.2 44.9477 1676.44 -7.41298 
206 1 10.8291 8.37583 7.49892 6.02531 -40961.2 36542 26310.2 -20534.4 2163.88 -19742.3 -7.4172 
207 1 12.2485 8.34678 7.50103 6.03798 -21859.4 9276.22 -30913.4 2499.06 -1758.62 -1423.16 -7.41283 
208 1 12.9327 7.10249 7.5011 6.03127 -22195.3 15965.1 31274.6 -2953.92 12668.9 -18878.7 -7.4176 
209 1 14.3521 7.07467 7.50322 6.03811 -4972.17 -5317.05 -34987 23678.7 -971.479 -6650.56 -7.41286 
210 1 15.0866 8.28973 7.50872 6.02834 -21549.7 8988.85 38669.3 -5699.12 21072.4 -31405 -7.4181 
211 1 16.5061 8.26281 7.51298 6.02365 -3518.75 1150.88 -43501.5 29557.2 6814.38 -20011.7 -7.41312 
212 1 17.1914 7.01927 7.51236 6.01575 -20546.6 853.559 39447.7 23939.1 33407.5 -34159.6 -7.41817 
283 1 10.1456 9.62065 7.49817 6.02993 -41569.7 26211.6 -21911 -15137.2 358.819 3241.67 -7.41327 
286 1 12.9821 9.56225 7.50492 6.02951 -31835.1 25646.1 33615.6 -26948.8 8452.79 -28626 -7.41768 
287 1 14.4016 9.53354 7.50852 6.03217 -12324 9891.32 -38999.4 1696.85 3875.36 -13138.9 -7.41299 
290 1 17.2394 9.47868 7.52084 6.02428 -39641.1 19284.6 49154.9 2888.19 28698.4 -47666.3 -7.41893 
10 1 19.1901 0.833657 7.50277 5.99874 -9488.26 -581.478 3029.54 95372.8 26907.9 -21133.4 -7.41552 
11 1 20.6095 0.811783 7.50808 5.99365 -6183.35 2068.2 -7436.86 138709 -17625.2 -29227.1 -7.4149 
12 1 23.449 0.763632 7.52208 5.9647 -14106.9 6479.34 4261.75 178714 36394.6 -40528.2 -7.41616 
13 1 24.8683 0.748529 7.52937 5.96327 -11210.3 10046.1 -7153 228576 -23540.5 -40685.8 -7.41529 
57 1 18.507 2.07798 7.50182 6.00819 -1943.29 -5461.9 -15645.8 99979.5 -10031.9 -17878.9 -7.41426 
58 1 19.2439 3.29227 7.5075 5.99676 -14329.2 -3040.51 19933.4 83594.2 39283.7 -27527.5 -7.41675 
59 1 20.6633 3.27037 7.51362 5.99796 -5360.82 -735.676 -24509 128409 -3257.48 -30145.8 -7.41416 
60 1 21.3466 2.02632 7.51375 5.98269 -16893.3 3194.51 12447.7 129179 40206.6 -34651 -7.41644 
61 1 22.7659 2.00761 7.5211 5.98088 -10824.7 6552.72 -16419.8 178455 -11829.3 -37040.5 -7.41467 
62 1 23.5023 3.22296 7.5301 5.9673 -32549.2 16887.6 24636 165059 52768.3 -43982.1 -7.41764 
63 1 24.9215 3.20773 7.53796 5.97271 -24444.6 18442.2 -26931.1 215354 -6219.64 -39248 -7.41439 
64 1 25.605 1.96416 7.53698 5.95224 -28280.4 19108.5 15608.8 220211 50237.8 -44609.2 -7.41723 
65 1 27.0242 1.95255 7.54361 5.95483 -23214.8 18938.7 -17709.7 266997 -16841 -38118.5 -7.41485 
135 1 18.56 4.53619 7.50828 6.01385 1345.29 -8381.66 -30831.5 84776.5 862.222 -21623.2 -7.41367 
136 1 19.2957 5.75107 7.5169 6.00018 -25467.6 2685.16 36979.5 62733.9 43566.3 -37532 -7.41806 
137 1 20.715 5.72912 7.52389 6.00553 -11874.2 6949.57 -40844.6 109275 7477.26 -32602.5 -7.41372 
138 1 21.3993 4.48545 7.52297 5.98382 -31051 9943.13 31907.2 110655 50344.4 -41205.3 -7.41789 
139 1 22.8185 4.46669 7.53096 5.9905 -20055.9 13956.6 -34877.7 160604 2252.11 -37227.6 -7.41404 
140 1 23.5528 5.6831 7.54232 5.97501 -55335.8 34089.7 46919.3 138335 57074.8 -48611 -7.41936 
141 1 24.9719 5.66767 7.55026 5.98791 -42694 35904.1 -48141.1 188142 4562.07 -37790.9 -7.41377 
142 1 25.6564 4.42433 7.54869 5.95724 -52783.8 38554.9 38833.1 194976 61138.3 -46616.6 -7.41907 
143 1 27.0754 4.41235 7.5554 5.97037 -42972.5 34743.3 -39718.1 241421 -2285.91 -36452.6 -7.41401 
213 1 18.6108 6.99461 7.51785 6.01567 -4528.83 1128.58 -43963.7 65215.6 8754.52 -26551.5 -7.4134 
214 1 19.3444 8.21057 7.5275 6.0101 -44886.7 19287.5 52270 40151.9 39780.6 -48837.1 -7.41927 
215 1 20.7637 8.18871 7.53487 6.00697 -27881.8 27365.5 -56449.3 88298.7 13163.5 -33727.8 -7.41346 
216 1 21.4489 6.9453 7.53483 5.99296 -51792 26082.7 51572.1 85686 49534 -49158.3 -7.41941 
217 1 22.8681 6.92653 7.54295 6.00112 -36732.1 32917.4 -54056.8 135927 9978.95 -36587.5 -7.41359 
218 1 23.5996 8.14446 7.55397 5.99032 -82118.1 58482.5 68815.4 108901 49879.9 -53074.5 -7.42101 
219 1 25.0186 8.12887 7.56137 6.00223 -65568.6 62981 -70507.9 157542 7826.83 -34225.2 -7.41318 
220 1 25.7041 6.88574 7.5615 5.97197 -80093.9 63180.5 63571.1 160115 57956.2 -48659.4 -7.42098 
221 1 27.123 6.87329 7.56783 5.98948 -65877.6 59568.6 -63948 205357 3296.64 -33561.1 -7.4133 
291 1 18.6588 9.45399 7.52715 6.01063 -21160.1 23615.7 -54626.6 46926.6 13577.5 -30041 -7.41335 
294 1 21.4949 9.40638 7.545 6.00756 -77922.3 50964.9 68873.5 62215.1 40947.7 -56616.9 -7.42075 
295 1 22.914 9.38775 7.55253 6.00016 -59684.1 61147.1 -72754.7 112169 12303.4 -33442.3 -7.41317 
298 1 25.7477 9.34862 7.57068 5.99117 -108056 91134.3 86782.7 127165 45555.1 -50113.8 -7.42264 
299 1 27.1665 9.33578 7.57624 5.99996 -89838 90509 -88228.7 170588 2396.45 -28323.1 -7.41255 
14 1 27.708 0.709396 7.54242 5.93863 -19183.9 14937.7 5378.28 268671 43139.8 -42581 -7.41665 
15 1 29.1273 0.701129 7.54728 5.93861 -17270.5 16262.6 -7511.2 308602 -28716.5 -34377.5 -7.41551 
16 1 31.9675 0.670009 7.55407 5.92324 -22849.3 20321.3 5372.86 333073 45760.4 -32014.7 -7.41675 
17 1 33.3867 0.666575 7.55594 5.92408 -21696.6 19208.9 -7415.97 357181 -31273.4 -20713 -7.41561 
18 1 36.2272 0.640733 7.55809 5.91592 -24303.3 22326.4 5375.01 367504 45883.1 -18693.1 -7.41671 
66 1 27.7597 3.16927 7.55277 5.94143 -44893.2 37178 28428.1 250276 60565.6 -42913.2 -7.41849 
67 1 29.1789 3.16061 7.55763 5.95263 -38041.6 30068.5 -29744.7 290679 -10410.6 -32522.2 -7.41437 
68 1 29.8634 1.91793 7.55428 5.92962 -34013 30251.6 16954.9 298024 55095.2 -37854 -7.41768 
69 1 31.2825 1.91219 7.55734 5.93659 -30125.6 24155.5 -18863.3 330525 -20120.9 -26882.1 -7.41489 
70 1 32.0173 3.12998 7.5649 5.92459 -46007.4 45099.9 29720.8 310345 63098.9 -30547.1 -7.41889 
71 1 33.4364 3.126 7.56598 5.93924 -40223 30132.1 -30820.2 335414 -12579.7 -19450 -7.41431 
72 1 34.1221 1.88424 7.56127 5.91736 -33691 33201.3 17268.3 345322 56057.5 -24456.8 -7.41779 
73 1 35.5412 1.88216 7.5616 5.92649 -30418 22633.4 -18719.1 362997 -21682 -13069.6 -7.4149 
74 1 36.2756 3.10051 7.56706 5.91591 -37926.5 41875 29949.7 341675 63008.1 -16510.1 -7.41899 
144 1 27.8084 5.63042 7.56609 5.95362 -71941.2 62263.6 54198.4 213480 63749.9 -43180.5 -7.4206 
145 1 29.2274 5.62107 7.57062 5.97238 -60445.6 51303.3 -54306.9 253222 -1001.74 -30640.1 -7.41353 
146 1 29.9128 4.37856 7.56703 5.93713 -59507.5 55661 42379.6 265082 65747.7 -36932.8 -7.41988 
147 1 31.3318 4.37211 7.56962 5.95506 -50975.6 40425 -42902.5 297790 -5885.35 -25636.1 -7.41386 
148 1 32.0639 5.59124 7.57826 5.93844 -68283.5 69959.6 57053 265266 65893.7 -28993 -7.4213 
149 1 33.4829 5.58623 7.57851 5.95991 -57883 47281.5 -56711.8 290341 -4359.44 -18611.2 -7.41335 
150 1 34.1698 4.34471 7.57328 5.92479 -51798.2 55713.4 43329.9 306945 66635 -22351.1 -7.42022 
151 1 35.5888 4.34175 7.57242 5.94356 -44007.5 32663.1 -43322.6 325363 -7697.81 -12611.3 -7.41378 
152 1 36.3208 5.56124 7.57875 5.92879 -49701.8 59905 57368.6 291558 65969.3 -14351.8 -7.42159 
222 1 27.8529 8.09301 7.57743 5.97382 -99344.9 89860.3 80604.8 172717 53905.3 -43387 -7.42257 
223 1 29.2717 8.08292 7.58141 5.99059 -83450.3 79737.9 -80642.3 210996 -865.779 -27025.9 -7.4127 
224 1 29.9583 6.84058 7.58002 5.9554 -85121.3 82322.6 70052.9 219556 61233 -36196 -7.42212 
225 1 31.3772 6.83314 7.58203 5.97709 -71985.5 64042.5 -69617.2 251478 -2656.34 -23684.7 -7.41298 
226 1 32.1063 8.05383 7.58949 5.9606 -89508.1 94587.5 85735.9 215029 55219.2 -28078.6 -7.42355 
227 1 33.5252 8.04758 7.58902 5.97999 -74552.4 70681.5 -84817.1 239351 -6746.51 -16775.1 -7.4124 
228 1 34.2134 6.80635 7.58567 5.94341 -68758.5 77233.7 71944.7 254058 62046.9 -20850.9 -7.42271 
229 1 35.6324 6.80209 7.58369 5.96439 -56405.1 48886.5 -70870 272231 -5896.62 -12025 -7.41282 
230 1 36.3617 8.02287 7.58895 5.95022 -60181 76099 86595 235485 55432.4 -13246.7 -7.42404 
302 1 29.9996 9.30403 7.58872 5.97602 -109115 108983 97014.2 176149 46898.9 -35614.7 -7.42402 
303 1 31.4184 9.29558 7.59021 5.99157 -91594.5 92608.4 -96767.7 206668 -6804.35 -20002.8 -7.41204 
306 1 34.2529 9.26909 7.59429 5.96727 -83952.5 97699.1 100715 203089 47253 -20128.9 -7.42485 
307 1 35.6718 9.26339 7.5915 5.98428 -67158.6 69644.7 -99492.9 220486 -12266.8 -10521.1 -7.41179 
19 1 37.6464 0.63993 7.55838 5.91784 -23299.5 19327.4 -6814.65 378485 -32697.2 -7122.86 -7.41566 
20 1 40.4871 0.616632 7.55847 5.91475 -22696 22063.1 5253.73 380721 45077 -6281.51 -7.41665 
21 1 41.9063 0.616716 7.55806 5.91647 -21609.9 17260 -6332.4 381830 -33851.5 5069.35 -7.41571 
22 1 44.7473 0.593587 7.55703 5.91421 -18580 19536.8 4860.85 378977 43815.6 5971.26 -7.41659 
75 1 37.6947 3.09911 7.56584 5.93026 -32485.1 22241.5 -30349.6 353865 -13812.6 -6423.85 -7.41429 
76 1 38.3814 1.85802 7.56162 5.91254 -27998.6 30254.7 17285.9 366877 55443 -11286.7 -7.41777 
77 1 39.8006 1.85765 7.56064 5.92102 -24772.5 17035.3 -18083.1 373322 -22817.4 -483.571 -7.41492 
78 1 40.535 3.07606 7.56374 5.91231 -23939.4 32296 29658.5 352766 62017.7 -3722.33 -7.41898 
79 1 41.9542 3.07555 7.5615 5.92458 -18443.9 9929.17 -29550.3 355078 -14679.4 5399.41 -7.41432 
80 1 42.6415 1.8348 7.55893 5.91202 -18743 23791.5 16985.4 371441 54250.1 1020.51 -7.41772 
81 1 44.0607 1.83457 7.55737 5.91863 -15330.9 8877.08 -17537.8 368625 -23578.2 11315.2 -7.41498 
82 1 44.7956 3.05259 7.5582 5.91247 -7620.28 19268.5 29016.1 350006 60638.2 8953.94 -7.4189 
153 1 37.7399 5.55866 7.57603 5.94835 -39816.9 30456.2 -56413.4 304011 -6095.17 -6441.45 -7.41328 
154 1 38.4281 4.318 7.5708 5.91811 -34379.4 44553.1 43121.8 325305 66056.6 -8709.43 -7.42031 
155 1 39.8472 4.3167 7.56807 5.93475 -26773.9 17205 -42490.1 332550 -8793.52 -548.128 -7.41377 
156 1 40.5797 5.53593 7.57198 5.9228 -23317.8 39840.2 56564 300110 65214.2 -1208.51 -7.42165 
157 1 41.9989 5.53421 7.56792 5.94016 -13368.6 6882.51 -55235.2 302692 -6880.74 4837.66 -7.41329 
158 1 42.6881 4.29411 7.56406 5.91502 -12596.9 27342.3 42374.4 328352 64909.5 3985.97 -7.42027 
159 1 44.1074 4.29297 7.56073 5.92957 -4668.9 -1904.87 -41424.9 326227 -9207.87 10901.1 -7.41382 
160 1 44.8409 5.5115 7.56257 5.92031 4811.98 14885 55253.1 297178 64183.2 11817.7 -7.42154 
231 1 37.7808 8.0188 7.58494 5.9691 -45820.7 43979.5 -85129.2 247492 -9710.77 -6137.58 -7.41227 
232 1 38.4708 6.77866 7.58084 5.9349 -39386.3 56294.6 71491.8 268377 61799.4 -6910.89 -7.42294 
233 1 39.8899 6.77594 7.57646 5.95364 -27311.3 22505.1 -70016.6 275489 -7406.07 -890.631 -7.41277 
234 1 40.6202 7.99614 7.57953 5.94192 -21292.1 44176.7 85366.9 241420 55115.3 37.2659 -7.42419 
235 1 42.0394 7.99283 7.57384 5.95838 -6812.83 8023.2 -83788.5 243574 -10614.3 4010.97 -7.41226 
236 1 42.7309 6.75354 7.57053 5.92923 -5195.06 27045.3 70043.2 270131 61100.6 6049.79 -7.42293 
237 1 44.1502 6.75098 7.5655 5.94554 7296.83 -9094.45 -68433.9 267891 -7520.08 9821.89 -7.41282 
238 1 44.882 7.97012 7.567 5.93646 18548.4 5961.18 83140.1 238948 54887.7 13086.3 -7.42404 
310 1 38.5092 9.23989 7.58818 5.95718 -42809.8 65948.3 100614 213273 47198.6 -6239.02 -7.42525 
311 1 39.9284 9.23552 7.58249 5.97298 -26314.8 31520 -99107.3 219796 -14600.6 -1127.24 -7.4117 
314 1 42.7695 9.2129 7.57542 5.94876 3804.98 23625.8 98539.7 214115 47155.8 6615.98 -7.42526 
315 1 44.1889 9.20866 7.56904 5.96197 20829 -13700.5 -97139.9 211344 -14330.2 8018.79 -7.41173 
23 1 46.1666 0.593055 7.55609 5.91752 -17373.2 13233.6 -6069.37 370566 -34539.1 17192 -7.41578 
24 1 49.0077 0.567772 7.55376 5.91859 -12878.7 15484.6 4150.71 360708 42286.1 19557.2 -7.4165 
25 1 50.427 0.564951 7.55182 5.92242 -11619.6 8743.59 -5847.09 339816 -34350.1 30196.3 -7.41588 
26 1 53.268 0.534864 7.5462 5.93167 -7669.33 11187.2 3418.63 317371 39690.1 33761.3 -7.41632 
27 1 54.6874 0.527603 7.54194 5.93432 -6840.7 4934.19 -5213.55 280643 -32108.5 41240.4 -7.41592 
83 1 46.215 3.05152 7.55569 5.92282 -1857.3 -3937.73 -28779 342686 -14858.4 17243 -7.41441 
84 1 46.9022 1.81071 7.55485 5.91471 -8069.56 15369.4 16330.2 361844 52768 14050.3 -7.41762 
85 1 48.3215 1.80911 7.55291 5.92075 -4440.75 227.014 -17083 348304 -23590.6 23752.4 -7.41509 
86 1 49.0573 3.02639 7.55211 5.91821 6944.56 5818.54 27845.1 332528 59098.4 23008 -7.41871 
87 1 50.4768 3.02314 7.54937 5.92682 13063.7 -15151.4 -27794.5 312795 -13761.6 29840.3 -7.41457 
88 1 51.1634 1.78184 7.54907 5.92236 757.909 7505.69 15210.1 332975 50798.8 28548.9 -7.41742 
89 1 52.5828 1.77698 7.54598 5.92885 4397.74 -5525.4 -16220.8 305020 -22113.8 36246.1 -7.41524 
90 1 53.3195 2.99331 7.54435 5.93104 14123.2 -3131.99 26018.5 292881 56574 37530.5 -7.41829 
91 1 54.7391 2.98577 7.54032 5.93663 20308.5 -18172.9 -25766.6 257538 -10514.3 40357.9 -7.41477 
161 1 46.2603 5.50926 7.55853 5.93532 15258.6 -18561.7 -53778.8 290046 -6506.29 16169.6 -7.41338 
162 1 46.9498 4.26935 7.55642 5.91631 8687.43 7936.03 41192.4 319244 63633.1 17432.3 -7.42011 
163 1 48.3692 4.26693 7.55326 5.92873 17062.1 -20250.9 -40224 306427 -8448.42 22941.5 -7.41395 
164 1 49.104 5.48444 7.55399 5.92335 27871 -9630.44 53254.5 282500 63455.1 26078.6 -7.42122 
165 1 50.5236 5.48021 7.55054 5.93618 38975.5 -38675.1 -51804.3 263254 -4166.74 28060.6 -7.41357 
166 1 51.2127 4.24 7.54918 5.9251 23250 -8338.43 39219.2 293975 62277.8 32214.7 -7.41973 
167 1 52.6323 4.23452 7.54586 5.93508 32029.9 -30765.4 -38211.9 267114 -5593.64 34915.6 -7.41418 
168 1 53.3683 5.45095 7.54653 5.93627 37641.7 -25258.7 50138.9 249711 62725.5 40551.2 -7.42056 
169 1 54.788 5.44275 7.54285 5.94322 49042.9 -44327.3 -48055.5 215466 1038.26 38137.7 -7.41388 
239 1 46.3015 7.96636 7.56161 5.95033 33718.6 -30772.9 -81626.2 231532 -9486.48 14157.5 -7.41235 
240 1 46.9936 6.72754 7.55978 5.92753 26444.8 -5134.57 67951.8 262787 60665.9 19617.3 -7.42268 
241 1 48.4133 6.72383 7.55551 5.94139 39634.1 -39106.4 -66366.1 250016 -5765.15 20934.4 -7.41296 
242 1 49.1467 7.94169 7.55669 5.93612 50111.7 -31042.6 79932.6 228243 55765.3 26959.2 -7.42358 
243 1 50.5665 7.93618 7.55274 5.94777 66077.3 -61877.5 -78520 209152 -5508.26 24537.6 -7.41258 
244 1 51.2585 6.6973 7.55164 5.93323 47113.2 -31626.6 64801.9 242992 61116 34151 -7.42211 
245 1 52.6782 6.69084 7.54823 5.94426 60945.6 -57266.5 -63010.7 216681 -1038.82 31846.3 -7.41325 
246 1 53.4131 7.90747 7.5502 5.94551 63406.1 -54902 75176.1 203248 57967.8 40755.8 -7.42271 
247 1 54.833 7.89842 7.547 5.95127 79587.7 -73151 -72807.4 169972 2171.83 33554 -7.41301 
318 1 47.0334 9.18507 7.56268 5.94369 45843.2 -22335 95226.7 209213 48115.4 19687.6 -7.42491 
319 1 48.4532 9.17985 7.55764 5.95448 63724.4 -56686.1 -94073.3 196315 -11136.7 17295.6 -7.4119 
322 1 51.3002 9.1535 7.55463 5.94573 72896.2 -59762.8 90516 195284 51031.7 33196.6 -7.42417 
323 1 52.7202 9.14589 7.55136 5.95379 91295.7 -84080.4 -89158.8 169571 -4138.41 26310.3 -7.41227 
324 1 53.4542 10.3627 7.55469 5.95531 91469.2 -86978.1 98893 164445 47462.5 37926.7 -7.42442 
325 1 54.8743 10.3527 7.55209 5.95928 111576 -102165 -96866.2 132470 -633.646 26158.5 -7.41211 
28 1 57.5279 0.489904 7.53081 5.95622 -5444.22 7615.23 2834.82 242607 34237.4 42059.2 -7.41597 
29 1 58.9473 0.476025 7.52406 5.95846 -5403.09 2678.52 -4922.07 193915 -26772.4 41305.7 -7.41566 
30 1 61.7871 0.429225 7.51075 5.98837 -7168.43 5329.39 1660.79 152558 26343 33495.7 -7.41549 
31 1 63.2064 0.408303 7.50505 5.99386 -7455.78 1953.42 -5180.86 107437 -19959.9 23740.1 -7.41509 
92 1 55.4245 1.74351 7.53843 5.94144 3418.64 3263.84 13862.5 275818 46717.4 41190.3 -7.41701 
93 1 56.8439 1.73311 7.53302 5.94453 6645.91 -5506.63 -14638.2 232504 -18271.3 42883.3 -7.41527 
94 1 57.5811 2.94849 7.53153 5.95693 9018.48 -3116.35 23545.4 224876 50846.1 46009 -7.41758 
95 1 59.0007 2.93448 7.52559 5.95974 14823.1 -9802.51 -22948.4 177459 -5761.88 40582 -7.41475 
96 1 59.6847 1.69099 7.52115 5.97235 -2407.99 4576.19 12016.2 192191 38847.3 42244 -7.4164 
97 1 61.1041 1.67341 7.51465 5.97621 326.076 340.59 -13550 143463 -13152.4 34095 -7.41494 
98 1 61.8411 2.88814 7.51448 5.99145 -6540.91 6162.13 20203.8 141956 40249.7 38171 -7.41676 
99 1 63.2606 2.86708 7.50893 5.99649 -716.421 3344.83 -20703.5 97097.4 -3025.3 24005.8 -7.41431 
100 1 63.9436 1.62269 7.50431 6.00444 -11739.8 8521.87 10030.6 112172 28634.2 24369.1 -7.41585 
170 1 55.4758 4.20164 7.5401 5.94465 23772.6 -14447.5 36284.9 244504 59349 45003.1 -7.41901 
171 1 56.8954 4.19088 7.5354 5.94824 32489 -26667.7 -34448.9 202594 -485.715 41675 -7.41441 
172 1 57.6319 5.40642 7.53671 5.96242 26905.9 -23628.6 45338.8 192818 59400.2 49624.5 -7.41949 
173 1 59.0516 5.39211 7.53156 5.96351 38118.6 -28985.2 -41874.1 146603 7426.57 39812.9 -7.41411 
174 1 59.7376 4.14959 7.52617 5.9765 7336.38 -5667.61 31983.2 171239 51711.7 47073.5 -7.41798 
175 1 61.1571 4.13185 7.52021 5.97865 15818.2 -7986.55 -30033.3 123156 3782.53 34734.8 -7.41429 
176 1 61.8933 5.34694 7.52227 5.99699 -137.939 -4153.76 38459 121008 48808.3 44822.4 -7.41823 
177 1 63.3128 5.32571 7.51642 5.99914 11120.5 -3387.65 -35554.4 75536 9458.49 26671.1 -7.41384 
178 1 63.997 4.08185 7.51056 6.00949 -13993.3 10153.4 27104.4 98336.3 37629 31629.4 -7.41711 
248 1 55.5238 6.65879 7.54464 5.95108 47125.1 -41802.8 59933.1 203332 61348.2 46846.1 -7.42112 
249 1 56.9436 6.64749 7.5407 5.95419 60916.1 -53156.5 -56548.6 162658 6622.74 38808.9 -7.41366 
250 1 57.6792 7.86326 7.54365 5.96862 49918.5 -54051 67447.3 157822 58592.1 50677.2 -7.42135 
251 1 59.099 7.84865 7.53922 5.96799 65626.1 -55515.6 -62458.1 112699 11539.4 37035.5 -7.41352 
252 1 59.7876 6.60752 7.53409 5.98191 23214.1 -27940.7 52099.3 142612 56656.2 51184.6 -7.4197 
253 1 61.2073 6.58963 7.52847 5.98148 36587.1 -25950.9 -47263.1 94883.8 12959 35297.1 -7.41384 
254 1 61.9426 7.80508 7.53142 6.00199 15013 -27610.9 55450.1 97026.9 50463.7 50786.4 -7.41967 
255 1 63.3622 7.78377 7.52503 6.00055 30384.1 -21124.3 -49713.6 50588.2 15884 29381.3 -7.41357 
256 1 64.0483 6.54093 7.5188 6.01488 -8299.08 -1130.79 42190.5 77895.8 41564.7 40983.5 -7.41835 
326 1 55.5679 9.11465 7.55024 5.95988 74131.9 -75237.8 83355.7 164886 54850.1 45456.6 -7.42296 
327 1 56.9879 9.10276 7.54704 5.96065 92149.4 -83186 -79715.1 125604 6291.81 33122.8 -7.41289 
328 1 57.7227 10.3187 7.55144 5.97541 77888.8 -88750.1 88015.3 128507 51446.7 48875.8 -7.42288 
329 1 59.1428 10.3038 7.54758 5.97252 96771.6 -86617.8 -82133 84689.2 11277.8 31546 -7.41291 
330 1 59.8341 9.06432 7.54289 5.98775 46398.5 -59782.9 71284.9 115270 53917.2 52848.4 -7.42126 
331 1 61.254 9.04635 7.53743 5.98396 63342.3 -52885 -64474.1 67880.5 15666.6 33898.1 -7.41343 
332 1 61.9885 10.262 7.54088 6.00667 39496.5 -60369.2 70262.3 76178.1 46296.8 54817.7 -7.42088 
333 1 63.4084 10.2408 7.5338 6.00076 57221.1 -49387.6 -61803 28885.1 18394.8 30548.8 -7.41338 
334 1 64.0968 8.99931 7.52733 6.02068 7758.67 -25683.1 54584.3 57449.3 40313 49845.6 -7.41942 
32 1 66.0458 0.354475 7.4979 6.01398 -10473.5 3159.19 1280.4 89204.4 19980.9 10013.3 -7.41513 
33 1 67.4651 0.329329 7.49619 6.019 -10174.8 -546.641 -2988.64 60804.9 -14824 2998.58 -7.41477 
34 1 70.3044 0.273235 7.49429 6.02072 -12155.5 -4025.39 2095.51 76173.1 16025.6 547.916 -7.415 
35 1 71.7237 0.247448 7.49242 6.01953 -11396.9 -8890.55 -134.926 55043.4 -10792.4 10260.9 -7.41474 
101 1 65.3629 1.59904 7.50051 6.01189 -8584.53 4082.57 -12117.4 74874.2 -10165 11418.9 -7.4144 
102 1 66.0996 2.81349 7.50175 6.01719 -16760.9 11975.6 17740.5 81666.4 27215.4 15553.7 -7.41632 
103 1 67.5189 2.78802 7.49914 6.02379 -9863.3 1726.06 -17854.9 52596 -4941.94 2432.47 -7.41379 
104 1 68.202 1.54353 7.49686 6.01975 -13233.3 4362.58 9559.41 75206.1 20291.6 3431.11 -7.41569 
105 1 69.6213 1.51767 7.49556 6.02369 -9159.54 -6874.11 -8763 53088.8 -9515.35 465.919 -7.41418 
106 1 70.3582 2.73181 7.4962 6.01959 -6008.05 -2936.22 15980.3 66455.3 18454.9 5084.57 -7.41625 
107 1 71.7776 2.70551 7.49375 6.0232 1246.99 -25388.4 -13112.5 44820.7 -5631.33 4999.16 -7.41365 
108 1 72.461 1.46133 7.49146 6.01751 -3469.55 -13521.5 8681.11 73863.7 16471.5 10609.8 -7.41545 
179 1 65.4164 4.05792 7.50595 6.01595 -4795.76 5708 -26466.9 59955.8 2391.73 13565.9 -7.41372 
180 1 66.1521 5.27283 7.5079 6.02228 -17840.2 11834.2 31926.6 64122.4 30686.1 25427.4 -7.41745 
181 1 67.5715 5.24678 7.50378 6.03082 -5183.98 470.533 -30321.1 32706.4 3476.83 4975.07 -7.41319 
182 1 68.2552 4.00255 7.50063 6.02266 -14338.2 9231.08 23641.3 60581.9 22327.7 10861.1 -7.41684 
183 1 69.6746 3.97599 7.49817 6.02992 -3837.68 -11544.6 -21911 36892.5 -2986.63 -1310.08 -7.41327 
184 1 70.4109 5.19036 7.49892 6.02533 -606.664 -3818.6 26310.2 43863.7 16015.6 11745 -7.4172 
185 1 71.8304 5.1629 7.49599 6.03201 12638.6 -36050.2 -22550.1 21167.8 -1474.59 -799.193 -7.41298 
186 1 72.5149 3.91928 7.4937 6.01908 11681.6 -20499.6 19017.5 53914.7 17184.3 13547.7 -7.41653 
257 1 65.4677 6.5167 7.51292 6.01851 5762.16 -1538.6 -38864.7 37437.3 11111.3 18047 -7.41338 
258 1 66.2026 7.73202 7.51446 6.02736 -10852.1 -1283.29 42435.3 43155.7 30219.6 37216.6 -7.41834 
259 1 67.622 7.70535 7.50852 6.03217 5879.74 -8226.35 -38999.6 8711.65 9440.75 9925.77 -7.41299 
260 1 68.3069 6.4617 7.50492 6.0295 -12141.4 5905 33615.4 38361.9 20564.3 21633.5 -7.41768 
261 1 69.7263 6.43411 7.50103 6.03798 3590.6 -16302.3 -30913.2 12217.3 2112.25 -811.543 -7.41283 
262 1 70.4618 7.64878 7.5011 6.03127 3885.58 -10062.9 31274.2 17987.5 10015 20411 -7.41761 
263 1 71.8814 7.61993 7.49765 6.03914 21768.2 -41750.3 -26863.5 -5051.75 1066.31 -4409.72 -7.41285 
264 1 72.567 6.37686 7.49607 6.02738 19938.7 -25727.4 24581 25819.2 11083.5 16248.4 -7.4171 
335 1 65.5164 8.97491 7.51999 6.01544 24812.9 -20310.3 -48545.3 14685 16045.2 22995.1 -7.4133 
336 1 66.2506 10.1904 7.52084 6.02428 7051.33 -27349.3 49154.8 24114.1 26930.7 48686.8 -7.41893 
337 1 67.6702 10.1633 7.51298 6.02365 25612.7 -27989.6 -43501.4 -12786.3 13923.5 15907.2 -7.41312 
338 1 68.3567 8.92056 7.50872 6.02834 -3647.59 -8985.71 38669.3 16111.9 16661.5 33951.4 -7.4181 
339 1 69.7762 8.89196 7.50322 6.03812 15265.1 -25517.1 -34987.1 -12031.2 6245.42 2483.79 -7.41286 
340 1 70.5111 10.1068 7.50242 6.02162 13114.9 -24795.5 30832.5 -4264.57 4240.37 30287.8 -7.4175 
341 1 71.9308 10.0768 7.49826 6.03204 33186.6 -48553.9 -26327.3 -26030.5 4039.48 -4439.17 -7.41314 
342 1 72.6173 8.83415 7.49723 6.02462 24283.2 -32042 24417.2 153.649 2079.36 19958.3 -7.41704 
36 1 74.5629 0.190396 7.48329 6.02113 -11388.2 -13555.4 2628.39 72126.5 11051.1 22128.4 -7.41451 
37 1 75.9822 0.162926 7.47534 6.01262 -11290.8 -15395.2 432.889 40041.5 -6427.04 38206.2 -7.4142 
38 1 78.8211 0.100564 7.45491 6.02125 -10453.3 -14408.3 -1350.28 33247.6 3401.06 34302.2 -7.41344 
39 1 80.2404 0.0683197 7.44525 6.02717 -11086.2 -12579.1 -4611.9 6100.47 -2082.4 30054.5 -7.41309 
109 1 73.8804 1.43501 7.48684 6.01568 -59.8234 -27949.8 -4976.01 48028.3 -5498.78 21592.8 -7.41407 
110 1 74.6184 2.64828 7.48525 6.01706 13992.8 -30629.9 11751.7 59104.7 19308.6 24566.1 -7.41554 
111 1 76.0379 2.62039 7.47794 6.01527 18468.9 -50160.3 -6395.49 27709 3604.22 28473.8 -7.41355 
112 1 76.7206 1.37589 7.47145 6.02072 3766.23 -26873.2 4927.83 52173 15649.7 34874.8 -7.41439 
113 1 78.14 1.3461 7.46132 6.01543 4629.8 -32511 -2967.63 18602.3 3995.07 37637 -7.41346 
114 1 78.8792 2.55834 7.45986 6.02673 11283.2 -34137.8 2058.23 21076.8 24158.3 35646.4 -7.41394 
115 1 80.2987 2.526 7.45128 6.02094 11840.2 -37378.7 -3567.29 -4851.69 20068.5 23757.5 -7.41319 
116 1 80.9798 1.28039 7.44307 6.03481 -5607.31 -17306.6 -4799.82 8517.37 14018.7 23197.1 -7.41305 
117 1 82.3992 1.24635 7.43843 6.03629 -6036.61 -16497.9 -6764.75 -3481.12 13493.1 7660.42 -7.41284 
187 1 73.9344 3.89206 7.48949 6.02275 20852.4 -51590.6 -13881.9 28349.3 49.1365 11505.4 -7.41332 
188 1 74.6722 5.10529 7.48936 6.02233 30958 -42398.1 17357.9 32130.5 18445 23058.4 -7.41628 
189 1 76.0919 5.0764 7.48398 6.02629 40490 -73281.3 -9799.31 3192.73 9638.4 13707.1 -7.41339 
190 1 76.7766 3.83301 7.47725 6.02356 27385.9 -46195.1 9770.08 30743.1 25223.5 33386 -7.41513 
191 1 78.1963 3.80275 7.46918 6.01867 31550.5 -61989.4 -3918.1 -624.044 17670.5 24884.5 -7.41345 
192 1 78.9349 5.01513 7.47145 6.01669 24600.2 -48335.4 3586.7 -3489.63 31041.5 30785.2 -7.41441 
193 1 80.3545 4.98263 7.4655 6.02006 28342.3 -54240.4 965.802 -26517.1 33294.7 12278.3 -7.41382 
194 1 81.0377 3.73817 7.45491 6.01953 873.433 -26092.3 -2214.59 -9522.1 32047.2 22595.9 -7.41345 