ITEM: TIMESTEP
0
ITEM: NUMBER OF ATOMS
30248
ITEM: BOX BOUNDS pp pp pp
0.0000000000000000e+00 1.5123498900000001e+02
0.0000000000000000e+00 2.6194668500000000e+02
0.0000000000000000e+00 1.8399999600000001e+01
ITEM: ATOMS id type x y z c_csym c_2[1] c_2[2] c_2[3] c_2[4] c_2[5] c_2[6] c_3 
1 1 0 0 7.5 6.04899 4955.86 4721.07 -158691 -46.7617 0.050993 0.431568 -7.40754 
2 1 2.13993 1.2124 7.5 6.04909 4506.15 5999.21 -158398 -1499.93 2341.63 -4118.57 -7.40755 
3 1 3.55988 1.20085 7.5 6.04918 6090.17 4350.69 -158050 2532.86 2095.16 -6542.57 -7.40757 
4 1 6.39979 1.17776 7.5 6.04918 4578.26 5610.32 -156643 -4311.35 2812.08 -12089.5 -7.40766 
5 1 7.81974 1.16621 7.5 6.04918 6041.11 4066.74 -155902 5378.88 1229.04 -13980.1 -7.4077 
72 1 0.0199993 2.45943 7.5 6.04902 3262.85 6539.34 -158415 -41.8506 4543.79 -27.1636 -7.40756 
73 1 1.43995 2.44788 7.5 6.04909 6865.28 3680.64 -158310 1039.79 4685.89 -2596.93 -7.40755 
74 1 2.15993 3.67183 7.5 6.0491 2756.94 7773.56 -157838 -1441.06 6741.52 -4282.29 -7.40759 
75 1 3.57988 3.66028 7.5 6.0492 7680.23 2812.95 -157510 2574.37 6866.61 -6255.83 -7.40761 
76 1 4.27986 2.42479 7.5 6.04918 3693.86 6769.31 -157495 -2839.89 4727.57 -8321.56 -7.40761 
77 1 5.69981 2.41324 7.5 6.04918 6895.57 3530.34 -157016 3985.76 4087.6 -10110.9 -7.40764 
78 1 6.41979 3.63719 7.5 6.0492 2824.67 7337.58 -155955 -4149.28 7111.38 -12526.2 -7.4077 
79 1 7.83974 3.62564 7.5 6.0492 7642.95 2601.07 -155560 5489.94 5888.58 -13324.4 -7.40772 
80 1 8.53972 2.39015 7.5 6.04918 3767.75 6197.73 -154801 -5532.84 5383.73 -16138.6 -7.40777 
214 1 0.0399987 4.91886 7.5 6.04902 1472.41 8211.07 -157619 -82.5607 8806.23 -51.0772 -7.40761 
215 1 1.45995 4.90731 7.5 6.0491 8358.58 2029.87 -157417 1102.34 9516.14 -2494.72 -7.4076 
216 1 2.17993 6.13126 7.5 6.0491 945.745 9430.73 -156790 -1424.78 10815.2 -4414.83 -7.40765 
217 1 3.59988 6.11971 7.5 6.0492 9107.17 1181.93 -156350 2665.38 11687.2 -5930.27 -7.40768 
218 1 4.29986 4.88422 7.5 6.0492 1893.88 8424.69 -156637 -2773.66 8935.89 -8593.41 -7.40766 
219 1 5.71981 4.87267 7.5 6.0492 8397.31 1925.93 -156254 4114.88 8851.44 -9604.79 -7.40768 
220 1 6.43979 6.09662 7.5 6.0492 1004.3 8949.1 -154790 -4024.47 11086.3 -12879 -7.40777 
221 1 7.85974 6.08507 7.5 6.0492 9082.94 1044.91 -154615 5637.63 10604.9 -12584 -7.40778 
222 1 8.55972 4.84958 7.5 6.0492 1954.81 7783.66 -153762 -5368.26 9449.06 -16654.2 -7.40783 
356 1 0.059998 7.37829 7.5 6.04902 -346.167 9861.97 -156368 -121.551 12702.2 -71.4671 -7.40768 
357 1 1.47995 7.36675 7.5 6.0491 9702.91 395.834 -155888 1159.89 14346.8 -2378.95 -7.4077 
358 1 2.19993 8.59069 7.5 6.0491 -875.235 11060.2 -155321 -1401.84 14486.6 -4517.66 -7.40774 
359 1 3.61988 8.57914 7.5 6.0492 10370.4 -418.108 -154548 2743.16 16464.6 -5568.45 -7.40778 
360 1 4.31986 7.34365 7.5 6.0492 69.1771 10053.5 -155327 -2696.41 12779.5 -8807.96 -7.40774 
361 1 5.73981 7.33211 7.5 6.0492 9750.3 340.639 -154866 4225.59 13621.2 -9038.17 -7.40776 
362 1 6.45979 8.55605 7.5 6.0492 -826.354 10538 -153214 -3883.09 14662.8 -13151 -7.40786 
363 1 7.87974 8.5445 7.5 6.0492 10359 -478.102 -153041 5759.14 15288.3 -11765.3 -7.40787 
364 1 8.57972 7.30901 7.5 6.0492 117.218 9347.72 -152287 -5182.32 13153.4 -17063.8 -7.40792 
6 1 10.6596 1.14312 7.5 6.04918 4661.89 4939.07 -153243 -6955.63 3791.23 -19366.8 -7.40786 
7 1 12.0796 1.13157 7.5 6.04918 6012.09 3546.42 -152274 8018.93 -213.246 -20599.7 -7.40792 
8 1 14.9195 1.10848 7.5 6.04918 4755.72 4034.07 -148397 -9342.54 5246 -25588.4 -7.40815 
9 1 16.3395 1.09693 7.5 6.04918 6007.47 2828.53 -147369 10358.5 -2172.69 -26104.5 -7.40821 
81 1 9.95967 2.3786 7.5 6.04918 6864.01 3171.06 -154239 6775.6 2850.09 -17012.8 -7.4078 
82 1 10.6796 3.60255 7.5 6.0492 2892.75 6571.43 -152306 -6707.05 7907.67 -20065.4 -7.40792 
83 1 12.0996 3.591 7.5 6.0492 7633.63 2199.35 -152270 8188.87 4257.2 -19607.3 -7.40792 
84 1 12.7996 2.35551 7.5 6.04918 3846.67 5344.12 -150492 -8021.38 6497.16 -23057 -7.40803 
85 1 14.2195 2.34396 7.5 6.04918 6857.84 2615.87 -150141 9303.6 1028.48 -22949.8 -7.40805 
86 1 14.9395 3.56791 7.5 6.0492 2965.51 5532.75 -147098 -9023.21 9115.9 -26530.6 -7.40823 
87 1 16.3595 3.55636 7.5 6.0492 7653.41 1638.7 -147827 10573.2 2050.02 -24821.6 -7.40819 
88 1 17.0594 2.32087 7.5 6.04918 3935.65 4266.78 -144808 -10218.2 8037.49 -28776.5 -7.40837 
89 1 18.4794 2.30932 7.5 6.04918 6879.61 1899.5 -144944 11482.5 -1297.64 -27701 -7.40836 
223 1 9.97967 4.83803 7.5 6.0492 8381.89 1665.58 -153757 6963.73 7466.23 -16130.7 -7.40783 
224 1 10.6996 6.06198 7.5 6.0492 1056.11 8095.81 -150913 -6485.36 11702.1 -20635.7 -7.408 
225 1 12.1196 6.05043 7.5 6.0492 9093.11 766.929 -151686 8384.53 8797.36 -18493.8 -7.40796 
226 1 12.8196 4.81494 7.5 6.0492 2015.12 6818.3 -149159 -7772.83 10345.7 -23806.8 -7.40811 
227 1 14.2395 4.8034 7.5 6.0492 8398.21 1251.87 -150075 9538.52 5430.45 -21737.1 -7.40805 
228 1 14.9595 6.02734 7.5 6.0492 1107.25 6931 -145373 -8722.79 12666.3 -27312 -7.40833 
229 1 16.3795 6.01579 7.5 6.0492 9137.36 368.78 -147734 10805.2 6359.37 -23393 -7.40819 
230 1 17.0794 4.7803 7.5 6.0492 2080.55 5594.49 -143077 -9904.48 11616.6 -29744.9 -7.40847 
231 1 18.4994 4.76876 7.5 6.0492 8445.71 711.158 -145412 11751.3 2843.97 -26215.3 -7.40833 
365 1 9.99967 7.29747 7.5 6.0492 9751.68 181.94 -152668 7120.48 12100.6 -15148.1 -7.4079 
366 1 10.7196 8.52141 7.5 6.0492 -791.075 9603.28 -149131 -6238.08 15104.7 -21081.6 -7.40811 
367 1 12.1396 8.50986 7.5 6.0492 10389.1 -628.479 -150495 8542.46 13321.8 -17268.5 -7.40803 
368 1 12.8396 7.27437 7.5 6.0492 157.882 8279.49 -147417 -7493.81 13838.4 -24412 -7.40821 
369 1 14.2595 7.26283 7.5 6.0492 9790.14 -84.5043 -149427 9732.83 9868.36 -20394.3 -7.40809 
370 1 14.9795 8.48677 7.5 6.0492 -762.918 8321.56 -143289 -8387.04 15833.2 -27936.8 -7.40846 
371 1 16.3995 8.47522 7.5 6.0492 10456.4 -861.097 -147062 10991.7 10675.6 -21830.3 -7.40823 
372 1 17.0994 7.23973 7.5 6.0492 198.901 6917.5 -140969 -9552.21 14845.4 -30543.1 -7.4086 
373 1 18.5194 7.22819 7.5 6.0492 9862.35 -447.29 -145329 11973.2 7042.96 -24582.3 -7.40834 
10 1 19.1794 1.07384 7.5 6.04918 4864.52 2949.82 -142366 -11391.1 7127.43 -30530.7 -7.40851 
11 1 20.5993 1.06229 7.5 6.04918 6031.49 1950.72 -141439 12321.7 -4571.65 -30340.9 -7.40857 
12 1 23.4392 1.0392 7.5 6.04918 4990.79 1729.19 -135441 -13038.7 9372.48 -34117.3 -7.40893 
13 1 24.8592 1.02765 7.5 6.04918 6085.23 937.221 -134752 13854.1 -7319.47 -33292.5 -7.40897 
14 1 27.6991 1.00456 7.5 6.04918 5135.54 392.264 -127913 -14242.1 11906.5 -36396.4 -7.40938 
90 1 19.1994 3.53327 7.5 6.0492 3048.98 4283.53 -140604 -11020 10710.2 -31690.4 -7.40862 
91 1 20.6193 3.52172 7.5 6.0492 7702.8 946.379 -142464 12566.4 -632.897 -28822.7 -7.40851 
92 1 21.3193 2.28623 7.5 6.04918 4040.32 3020.74 -138034 -12052.3 9960.38 -33144 -7.40877 
93 1 22.7392 2.27468 7.5 6.04918 6931.3 1049.03 -138904 13247.6 -4031.77 -31187.5 -7.40872 
94 1 23.4592 3.49863 7.5 6.0492 3149.36 2875.13 -133129 -12633.7 12651.1 -35460.7 -7.40907 
95 1 24.8792 3.48708 7.5 6.0492 7780.39 132.957 -136430 14115.8 -3678.38 -31599 -7.40887 
96 1 25.5792 2.25159 7.5 6.04918 4163.48 1642.6 -130473 -13469.5 12207.8 -36146.6 -7.40923 
97 1 26.9991 2.24004 7.5 6.04918 7010.51 70.8969 -132279 14557.3 -7068.14 -33451.7 -7.40912 
98 1 27.7191 3.46399 7.5 6.0492 3269.44 1337.36 -124979 -13819.6 14884.2 -37882.6 -7.40956 
232 1 19.2194 5.9927 7.5 6.0492 1164.75 5524.24 -138452 -10660.2 13975.7 -32670.5 -7.40875 
233 1 20.6393 5.98115 7.5 6.0492 9212.01 -135.166 -142973 12823.2 3411.87 -27147.2 -7.40848 
234 1 21.3393 4.74566 7.5 6.0492 2158.19 4174.64 -135813 -11692.9 13241 -34308.2 -7.40891 
235 1 22.7592 4.73412 7.5 6.0492 8521.57 56.2789 -140002 13538 -174.486 -29493.3 -7.40866 
236 1 23.4792 5.95806 7.5 6.0492 1236.26 3935.45 -130464 -12235.6 15613.5 -36619 -7.40923 
237 1 24.8992 5.94651 7.5 6.0492 9311.23 -745.652 -137628 14388 88.9168 -29748 -7.4088 
238 1 25.5992 4.71102 7.5 6.0492 2254.27 2603.94 -127683 -13083.3 15183.1 -37475.1 -7.4094 
239 1 27.0191 4.69948 7.5 6.0492 8621.3 -716.677 -134083 14858.9 -3498.61 -31615.1 -7.40901 
240 1 27.7391 5.92342 7.5 6.0492 1327.99 2203.31 -121731 -13402 17545.4 -39189.1 -7.40976 
374 1 19.2394 8.45213 7.5 6.0492 -732.865 6766.61 -135975 -10258.4 16865.9 -33474.9 -7.4089 
375 1 20.6593 8.44058 7.5 6.0492 10554.7 -1174.58 -142933 13030.1 7489.05 -25326.8 -7.40848 
376 1 21.3593 7.20509 7.5 6.0492 247.999 5331.39 -133252 -11288.8 16176.3 -35289.7 -7.40906 
377 1 22.7792 7.19355 7.5 6.0492 9961.68 -903.988 -140583 13778 3763.38 -27646.3 -7.40862 
378 1 23.4992 8.41749 7.5 6.0492 -692.497 5006.25 -127513 -11790.3 18207.9 -37595.3 -7.40941 
379 1 24.9192 8.40594 7.5 6.0492 10674.2 -1580.2 -138309 14607.9 3914.97 -27752 -7.40876 
380 1 25.6192 7.17045 7.5 6.0492 313.153 3576.62 -124592 -12648.8 17816.6 -38620.8 -7.40958 
381 1 27.0391 7.15891 7.5 6.0492 10079.1 -1469.71 -135404 15109.5 174.58 -29629.9 -7.40893 
382 1 27.7591 8.38285 7.5 6.0492 -634.223 3085.39 -118235 -12933.2 19843.8 -40317.7 -7.40997 
15 1 29.119 0.99301 7.5 6.04918 6167.06 -211.445 -127573 14923.6 -10318.2 -35046.2 -7.40941 
16 1 31.9589 0.969916 7.5 6.04918 5294.5 -1064.49 -120050 -14977.7 14646.3 -37495.9 -7.40986 
17 1 33.3789 0.95837 7.5 6.04918 6270.54 -1512.09 -120139 15516.9 -13467.4 -35741.4 -7.40985 
18 1 36.2188 0.935276 7.5 6.04918 5461.56 -2658.59 -112088 -15239.7 17503.4 -37568.5 -7.41034 
19 1 37.6388 0.92373 7.5 6.04918 6387.42 -2989.53 -112655 15635.4 -16668 -35518 -7.41031 
99 1 29.139 3.45244 7.5 6.0492 7880.64 -809.707 -129968 15192.2 -6969.22 -33238.2 -7.40926 
100 1 29.839 2.21695 7.5 6.04918 4305.62 144.894 -122416 -14435.7 14709.3 -37875.9 -7.40972 
101 1 31.259 2.2054 7.5 6.04918 7112.29 -1048.33 -125311 15390.5 -10298.6 -34613.7 -7.40954 
102 1 31.9789 3.42935 7.5 6.0492 3409.35 -323.407 -116441 -14550.7 17341.1 -39077.7 -7.41008 
103 1 33.3989 3.4178 7.5 6.0492 7995.78 -1906.28 -123295 15784.7 -10391.5 -33877.4 -7.40966 
104 1 34.0989 2.18231 7.5 6.04918 4462.46 -1479.67 -114124 -14934.1 17384.4 -38476.4 -7.41022 
105 1 35.5188 2.17077 7.5 6.04918 7227.98 -2333.5 -118211 15743.1 -13617.7 -34817.9 -7.40997 
106 1 36.2388 3.39471 7.5 6.0492 3563.98 -2119.34 -107768 -14816.1 19941.5 -39194 -7.4106 
107 1 37.6588 3.38316 7.5 6.0492 8114.95 -3187.86 -116594 15898.4 -13838.8 -33652.7 -7.41007 
241 1 29.159 5.91187 7.5 6.0492 9427.46 -1480.69 -131919 15471.6 -3474.55 -31281.1 -7.40914 
242 1 29.859 4.67638 7.5 6.0492 2371.39 905.505 -118994 -14038.5 17390.1 -39329.1 -7.40992 
243 1 31.279 4.66484 7.5 6.0492 8736.4 -1628.97 -127874 15695.6 -7004.25 -32698 -7.40939 
244 1 31.9989 5.88878 7.5 6.0492 1441.67 341.062 -112553 -14127.9 19717.5 -40492.4 -7.41031 
245 1 33.4189 5.87723 7.5 6.0492 9549.43 -2374.18 -126039 16067.4 -7152.1 -31877.8 -7.4095 
246 1 34.1189 4.64174 7.5 6.0492 2508.26 -922.221 -110024 -14537.5 19792.9 -40007.3 -7.41046 
247 1 35.5388 4.6302 7.5 6.0492 8856.27 -2714.72 -121565 16047.8 -10576 -32881.6 -7.40977 
248 1 36.2588 5.85414 7.5 6.0492 1575.44 -1655.14 -103203 -14399.2 22058.1 -40668.7 -7.41088 
249 1 37.6788 5.84259 7.5 6.0492 9665.46 -3461.58 -120153 16181.9 -10831 -31666.9 -7.40985 
383 1 29.179 8.3713 7.5 6.0492 10803.3 -2109 -133384 15700.9 104.023 -29186.4 -7.40905 
384 1 29.879 7.13581 7.5 6.0492 399.945 1681.39 -115308 -13591 19730.5 -40608.4 -7.41014 
385 1 31.299 7.12427 7.5 6.0492 10204.3 -2176.81 -129987 15952.9 -3584.84 -30644.6 -7.40926 
386 1 32.0189 8.34821 7.5 6.0492 -553.647 1026.47 -108455 -13652.9 21733.9 -41740.7 -7.41056 
387 1 33.4389 8.33666 7.5 6.0492 10928.4 -2800.99 -128328 16304 -3806.41 -29752.6 -7.40936 
388 1 34.1389 7.10117 7.5 6.0492 509.394 -346.409 -105696 -14090.9 21860.6 -41378.8 -7.41073 
389 1 35.5588 7.08963 7.5 6.0492 10324.4 -3064.39 -124500 16309.2 -7390.62 -30821.6 -7.40959 
390 1 36.2788 8.31357 7.5 6.0492 -449.499 -1166.12 -98460.6 -13931.5 23814.5 -41992.5 -7.41116 
391 1 37.6988 8.30202 7.5 6.0492 11037.6 -3694.94 -123286 16424.3 -7697.96 -29569.1 -7.40966 
20 1 40.4787 0.900637 7.5 6.04918 5628.13 -4409.75 -104231 -15034.4 20387.4 -36744.1 -7.41081 
21 1 41.8986 0.88909 7.5 6.04918 6508.37 -4661.03 -105301 15292.1 -19824.6 -34476.4 -7.41075 
22 1 44.7385 0.865997 7.5 6.04918 5783.46 -6319.56 -96660.1 -14380.8 23209 -35101.4 -7.41127 
23 1 46.1585 0.85445 7.5 6.04918 6622.97 -6518.69 -98237.2 14509.3 -22847 -32660.5 -7.41118 
108 1 38.3587 2.14767 7.5 6.04918 4627.01 -3249.54 -105826 -14963.6 20145.7 -38093.3 -7.41072 
109 1 39.7787 2.13613 7.5 6.04918 7346.98 -3811.8 -111161 15624.7 -16925.8 -34186.5 -7.41039 
110 1 40.4987 3.36007 7.5 6.0492 3726 -4063.96 -99185.4 -14620.2 22597.4 -38359.2 -7.41112 
111 1 41.9186 3.34852 7.5 6.0492 8227.6 -4675.01 -110027 15547.9 -17214.4 -32660.4 -7.41046 
112 1 42.6186 2.11303 7.5 6.04918 4790.47 -5175.28 -97724.5 -14536.5 22903 -36832.8 -7.41121 
113 1 44.0385 2.10149 7.5 6.04918 7460.23 -5490.33 -104319 15053.5 -20130.4 -32790.6 -7.41081 
114 1 44.7585 3.32543 7.5 6.0492 3885.93 -6152.3 -90893.8 -13980.9 25217.7 -36652 -7.41162 
115 1 46.1785 3.31388 7.5 6.0492 8324.48 -6359.56 -103733 14754.1 -20430.1 -30940.5 -7.41084 
116 1 46.8785 2.07839 7.5 6.04918 4942.66 -7239.56 -90003 -13676.1 25567 -34745.3 -7.41168 
250 1 38.3787 4.6071 7.5 6.0492 2660.59 -2890.15 -101021 -14575.6 22309.7 -39649.5 -7.41101 
251 1 39.7987 4.59556 7.5 6.0492 8970.16 -4003.59 -115317 15926.3 -14110.4 -32282.4 -7.41014 
252 1 40.5187 5.8195 7.5 6.0492 1724.21 -3791.13 -93923.8 -14217.6 24481.7 -39840.3 -7.41144 
253 1 41.9386 5.80795 7.5 6.0492 9765.13 -4764.53 -114400 15829.7 -14413 -30738.2 -7.4102 
254 1 42.6386 4.57246 7.5 6.0492 2819.41 -5001.81 -92206.9 -14163.1 24850.2 -38359.5 -7.41154 
255 1 44.0585 4.56092 7.5 6.0492 9067.63 -5502.96 -109270 15348.7 -17515.4 -30966.4 -7.41051 
256 1 44.7785 5.78486 7.5 6.0492 1878.65 -6059.25 -84937 -13597.9 26896.2 -38083.9 -7.41198 
257 1 46.1985 5.77331 7.5 6.0492 9839.71 -6277.03 -108902 15031.2 -17812.3 -29126.8 -7.41053 
258 1 46.8985 4.53782 7.5 6.0492 2975.26 -7237.6 -83787 -13322.3 27322.7 -36188.3 -7.41205 
392 1 38.3987 7.06653 7.5 6.0492 639.046 -2509.39 -96019.1 -14140.7 24130.3 -41062.9 -7.41131 
393 1 39.8187 7.05499 7.5 6.0492 10427.7 -4163.63 -119084 16190 -11135.8 -30268.8 -7.40992 
394 1 40.5387 8.27893 7.5 6.0492 -325.549 -3492.57 -88513.9 -13766.7 26003.7 -41186.5 -7.41177 
395 1 41.9586 8.26738 7.5 6.0492 11119.8 -4815.23 -118374 16077.1 -11471.4 -28716.8 -7.40996 
396 1 42.6586 7.03189 7.5 6.0492 782.949 -4806.83 -86519.9 -13747.5 26450.5 -39759.4 -7.41189 
397 1 44.0785 7.02035 7.5 6.0492 10505.2 -5485.97 -113857 15613.1 -14729 -29045.6 -7.41023 
398 1 44.7985 8.24429 7.5 6.0492 -188.131 -5938.62 -78857.6 -13172 28208.7 -39395.9 -7.41235 
399 1 46.2185 8.23274 7.5 6.0492 11168.7 -6155.55 -113696 15280.4 -15042.7 -27224.9 -7.41024 
400 1 46.9185 6.99725 7.5 6.0492 931.675 -7213.41 -77425.6 -12932.3 28727.3 -37518.9 -7.41244 
24 1 48.9984 0.831357 7.5 6.04918 5918.59 -8354.07 -89546.5 -13306.5 25882.3 -32663.3 -7.4117 
25 1 50.4183 0.81981 7.5 6.04918 6723.66 -8514.68 -91621.5 13315 -25650.7 -30064.2 -7.41158 
26 1 53.2582 0.796717 7.5 6.04918 6027.3 -10439.5 -83060.2 -11845.5 28327.5 -29415.1 -7.4121 
27 1 54.6782 0.78517 7.5 6.04918 6806.35 -10560.1 -85613.9 11743.7 -28158 -26658.4 -7.41194 
117 1 48.2984 2.06685 7.5 6.04918 7558.78 -7342.55 -97833.6 14053.4 -23145.5 -30645.1 -7.4112 
118 1 49.0184 3.29079 7.5 6.0492 4034.38 -8350.46 -83085.6 -12925.5 27713.3 -34097.5 -7.4121 
119 1 50.4383 3.27924 7.5 6.0492 8400.29 -8197.2 -97848.8 13543.5 -23405.1 -28483.8 -7.4112 
120 1 51.1383 2.04375 7.5 6.04918 5074.68 -9389.17 -82842.2 -12413.9 28052.8 -31833.3 -7.41211 
121 1 52.5583 2.03221 7.5 6.04918 7637.51 -9301.92 -91850.9 12655.2 -25891.7 -27726.5 -7.41156 
122 1 53.2782 3.25615 7.5 6.0492 4162.7 -10581.8 -75953.2 -11490.7 30001.6 -30685.9 -7.41253 
123 1 54.6982 3.2446 7.5 6.0492 8453.22 -10100 -92513 11948 -26064.2 -25258.4 -7.41152 
124 1 55.3982 2.00911 7.5 6.04918 5180.87 -11528.3 -76425.5 -10790 30283 -28078 -7.4125 
259 1 48.3184 4.52628 7.5 6.0492 9141.5 -7189.44 -103550 14338.7 -20708.3 -28944.9 -7.41085 
260 1 49.0384 5.75022 7.5 6.0492 2029.29 -8419.59 -76456.8 -12568.1 29209.7 -35426.5 -7.4125 
261 1 50.4583 5.73867 7.5 6.0492 9885.54 -7954.23 -103773 13810.5 -20951 -26820.5 -7.41084 
262 1 51.1583 4.50318 7.5 6.0492 3119.21 -9540.95 -75963.8 -12085.9 29639.4 -33141.9 -7.41253 
263 1 52.5783 4.49164 7.5 6.0492 9190.18 -8996.56 -98283 12923.7 -23612.7 -26192.1 -7.41117 
264 1 53.2982 5.71558 7.5 6.0492 2167.63 -10792.8 -68698.5 -11166.4 31337.3 -31863.7 -7.41297 
265 1 54.7182 5.70403 7.5 6.0492 9904.94 -9710.68 -99129.8 12196.2 -23756.4 -23786 -7.41112 
266 1 55.4182 4.46854 7.5 6.0492 3242.98 -11813.9 -68943.4 -10495.5 31721.1 -29208 -7.41296 
401 1 48.3384 6.98571 7.5 6.0492 10551.2 -7005.37 -108927 14599.3 -18090.3 -27159.1 -7.41053 
402 1 49.0584 8.20965 7.5 6.0492 -46.6614 -8459.01 -69728.1 -12174.4 30335.9 -36649.2 -7.41291 
403 1 50.4783 8.1981 7.5 6.0492 11182.6 -7670.44 -109345 14055.2 -18336.6 -25078.8 -7.4105 
404 1 51.1783 6.96261 7.5 6.0492 1075.76 -9668.23 -68961.3 -11728.3 30870.7 -34351.1 -7.41296 
405 1 52.5983 6.95107 7.5 6.0492 10566.1 -8657.24 -104398 13172.5 -21146 -24582 -7.4108 
406 1 53.3182 8.17501 7.5 6.0492 89.2016 -10971.7 -61363.6 -10813.1 32298.8 -32947.7 -7.41342 
407 1 54.7382 8.16346 7.5 6.0492 11166.6 -9275.05 -105416 12426.8 -21281.8 -22244.9 -7.41074 
408 1 55.4382 6.92797 7.5 6.0492 1206.82 -12070.7 -61355.8 -10179 32800.5 -30250.8 -7.41342 
28 1 57.5181 0.762077 7.5 6.04918 6105.31 -12463.5 -77375 -10040.6 30471.7 -25338.2 -7.41244 
29 1 58.9381 0.75053 7.5 6.04918 6869.5 -12529.7 -80380.3 9838.35 -30298.8 -22427.4 -7.41226 
30 1 61.778 0.727437 7.5 6.04918 6154.09 -14284.6 -72664.8 -7942.77 32250.8 -20447.8 -7.41273 
31 1 63.1979 0.715891 7.5 6.04918 6915.75 -14276.9 -76086.7 7649.76 -32013.1 -17404.8 -7.41252 
32 1 66.0378 0.692797 7.5 6.04918 6178 -15755.7 -69092.6 -5610.54 33610.3 -14822.6 -7.41295 
125 1 56.8181 1.99757 7.5 6.04918 7695.82 -11260.8 -86523.6 10896.2 -28295.8 -24006.3 -7.41189 
126 1 57.5381 3.22151 7.5 6.0492 4265.92 -12730.2 -69693.1 -9721.47 32009.1 -26405 -7.41291 
127 1 58.9581 3.20996 7.5 6.0492 8486.34 -11945.7 -87868.9 10007.7 -28338 -21246 -7.4118 
128 1 59.658 1.97447 7.5 6.04918 5257.8 -13527.4 -70938.8 -8851.26 32189.4 -23476.7 -7.41283 
129 1 61.078 1.96293 7.5 6.04918 7736.08 -13081.8 -82007.6 8820.79 -30292 -19487.7 -7.41216 
130 1 61.798 3.18687 7.5 6.0492 4340.52 -14653.9 -64501.2 -7670.01 33674 -21277.5 -7.41323 
131 1 63.2179 3.17532 7.5 6.0492 8505.71 -13589.3 -84060.7 7771.72 -30163.7 -16476.2 -7.41204 
132 1 63.9179 1.93983 7.5 6.04918 5306.61 -15236.8 -66563 -6653.68 33714.2 -18077.2 -7.4131 
133 1 65.3378 1.92829 7.5 6.04918 7763.84 -14616.3 -78454.2 6485.48 -31824 -14236.1 -7.41238 
134 1 66.0578 3.15223 7.5 6.0492 4387.35 -16202.1 -60560.1 -5394.93 34946 -15390.7 -7.41347 
267 1 56.8381 4.457 7.5 6.0492 9215.74 -10819 -93599.1 11137.2 -26156.9 -22677.3 -7.41146 
268 1 57.5581 5.68094 7.5 6.0492 2285.46 -13062.1 -61881.4 -9439.36 33205.5 -27391 -7.41339 
269 1 58.9781 5.66939 7.5 6.0492 9904.43 -11425.5 -95094 10225.2 -26158.6 -20003.8 -7.41137 
270 1 59.678 4.4339 7.5 6.0492 3341.8 -13923.8 -62934.1 -8601 33500.6 -24391.5 -7.41332 
271 1 61.098 4.42236 7.5 6.0492 9225.41 -12522.9 -89631.8 9023.15 -28273.7 -18401.3 -7.4117 
272 1 61.818 5.6463 7.5 6.0492 2378.16 -15083 -56222.8 -7439.88 34754.6 -22040.5 -7.41373 
273 1 63.2379 5.63475 7.5 6.0492 9894.29 -12961.4 -91786.8 7946 -28092.2 -15500.7 -7.41157 
274 1 63.9379 4.39926 7.5 6.0492 3412.29 -15721.4 -58137.6 -6457.64 34923.5 -18749.2 -7.41361 
275 1 65.3578 4.38772 7.5 6.0492 9227.76 -13964.7 -86510.9 6636.54 -29903.2 -13425.4 -7.41189 
276 1 66.0778 5.61166 7.5 6.0492 2442.24 -16704.4 -51924.9 -5227 35938.5 -15908.6 -7.41399 
409 1 56.8581 6.91643 7.5 6.0492 10556.9 -10337.8 -100377 11363.9 -23825.1 -21283.1 -7.41105 
410 1 57.5781 8.14037 7.5 6.0492 211.234 -13357.7 -54006.5 -9134.74 34024.4 -28296.3 -7.41387 
411 1 58.9981 8.12882 7.5 6.0492 11131.7 -10854.6 -102007 10429.5 -23807.7 -18703.8 -7.41095 
412 1 59.698 6.89333 7.5 6.0492 1317 -14287.6 -54840.1 -8334.44 34450.8 -25232.5 -7.41382 
413 1 61.118 6.88179 7.5 6.0492 10533.7 -11918.8 -96976.2 9215 -26058.5 -17262.1 -7.41125 
414 1 61.838 8.10573 7.5 6.0492 311.749 -15471.4 -47895.6 -7193.87 35455.6 -22737.3 -7.41424 
415 1 63.2579 8.09418 7.5 6.0492 11091.2 -12275.6 -99217 8110.56 -25845.3 -14481.1 -7.41112 
416 1 63.9579 6.85869 7.5 6.0492 1401.53 -16168.1 -49636.1 -6251.63 35770.5 -19362.8 -7.41413 
417 1 65.3778 6.84715 7.5 6.0492 10509.5 -13262.5 -94301.7 6780.56 -27782.2 -12577.3 -7.41141 
418 1 66.0978 8.07109 7.5 6.0492 386.081 -17159.9 -43252.1 -5049.99 36550.6 -16377.7 -7.41452 
554 1 59.718 9.35276 7.5 6.0492 -792.127 -14614.6 -46725.5 -8046.62 35006.6 -25999.6 -7.41431 
555 1 61.138 9.34122 7.5 6.0492 11645.7 -11259.6 -103995 9395.16 -23692.8 -16073 -7.41083 
558 1 63.9779 9.31812 7.5 6.0492 -703.108 -16572.4 -41126.7 -6031.33 36221.2 -19918.8 -7.41465 
559 1 65.3978 9.30658 7.5 6.0492 11595.4 -12497.2 -101780 6915.43 -25507.2 -11694.2 -7.41096 
33 1 67.4578 0.681251 7.5 6.04918 6950.47 -15653.5 -72887 5237.76 -33252.4 -11696.7 -7.41272 
34 1 70.2977 0.658157 7.5 6.04918 6182.09 -16745 -66794.7 -3110.67 34507.2 -8618.85 -7.41309 
35 1 71.7176 0.646611 7.5 6.04918 6977.55 -16535.6 -70907.4 2672.43 -33982.4 -5487.16 -7.41284 
36 1 74.5575 0.623518 7.5 6.04918 6172.34 -17157.1 -65865.1 -516.496 34910.9 -2064.74 -7.41314 
135 1 67.4778 3.14068 7.5 6.0492 8518.92 -14889.4 -81222.4 5301.75 -31488.5 -11049.6 -7.41221 
136 1 68.1777 1.90519 7.5 6.04918 5330.94 -16514.2 -63458.8 -4259.34 34810.9 -12000.8 -7.41329 
137 1 69.5977 1.89365 7.5 6.04918 7786.06 -15728.6 -75996.6 3955.86 -32847.6 -8394.07 -7.41253 
138 1 70.3177 3.11759 7.5 6.0492 4409.26 -17241.7 -58022.5 -2961.7 35786.9 -8909.4 -7.41362 
139 1 71.7376 3.10604 7.5 6.0492 8534.08 -15724.8 -79464.5 2669.79 -32273.1 -5142.85 -7.41231 
140 1 72.4376 1.87055 7.5 6.04918 5334.69 -17242.2 -61750.4 -1737.5 35444.7 -5445.99 -7.41339 
141 1 73.8576 1.85901 7.5 6.04918 7807.3 -16314 -74734.6 1307.38 -33334.1 -2176.29 -7.4126 
142 1 74.5775 3.08295 7.5 6.0492 4409.06 -17674.2 -56993.3 -440.906 36170 -2070.41 -7.41368 
277 1 67.4978 5.60011 7.5 6.0492 9885.41 -14179.8 -89321.6 5420.56 -29499.6 -10372.6 -7.41172 
278 1 68.1977 4.36462 7.5 6.0492 3454.66 -17060.4 -54732.7 -4127.81 35947.8 -12411 -7.41382 
279 1 69.6177 4.35308 7.5 6.0492 9232.1 -15012.7 -84351.1 4045.52 -30996.1 -7885.75 -7.41202 
280 1 70.3377 5.57702 7.5 6.0492 2477.53 -17789 -49155.8 -2865.21 36723.9 -9169.09 -7.41416 
281 1 71.7576 5.56547 7.5 6.0492 9887.66 -14964 -87792.1 2723.96 -30336.3 -4788.22 -7.41181 
282 1 72.4576 4.32998 7.5 6.0492 3471.12 -17821.9 -52856.7 -1678.6 36543.4 -5584.03 -7.41394 
283 1 73.8776 4.31844 7.5 6.0492 9246.55 -15565.3 -83239 1328.37 -31519 -1988.32 -7.41209 
284 1 74.5975 5.54238 7.5 6.0492 2485.25 -18241 -48031 -421.155 37087.6 -2066.45 -7.41423 
419 1 67.5178 8.05954 7.5 6.0492 11060.3 -13406.4 -97136.6 5532.29 -27332.3 -9668.19 -7.41124 
420 1 68.2177 6.82405 7.5 6.0492 1456.91 -17564.2 -45940.1 -3991.79 36722.3 -12781.2 -7.41436 
421 1 69.6377 6.81251 7.5 6.0492 10496.5 -14240.7 -92449.1 4129.82 -28941.8 -7358.3 -7.41153 
422 1 70.3577 8.03645 7.5 6.0492 430.243 -18288 -40259.1 -2764.59 37280.5 -9399.78 -7.41471 
423 1 71.7776 8.0249 7.5 6.0492 11050.6 -14137 -95842.6 2773.37 -28218.7 -4425.56 -7.41132 
424 1 72.4776 6.78941 7.5 6.0492 1482.25 -18356.9 -43902.5 -1619.36 37280.4 -5702.76 -7.41448 
425 1 73.8976 6.77787 7.5 6.0492 10503.6 -14759.3 -91491 1346.6 -29498.9 -1801.56 -7.41158 
426 1 74.6175 8.00181 7.5 6.0492 443.252 -18757.4 -39042.3 -402.312 37625.8 -2055.15 -7.41478 
562 1 68.2377 9.28348 7.5 6.0492 -641.188 -18022.1 -37149 -3847.79 37099.9 -13112.7 -7.4149 
563 1 69.6577 9.27194 7.5 6.0492 11565.5 -13402.6 -100245 4208.3 -26730.5 -6813.91 -7.41105 
566 1 72.4976 9.24884 7.5 6.0492 -610.276 -18844.4 -34955.3 -1557.98 37620.8 -5803.98 -7.41503 
567 1 73.9176 9.2373 7.5 6.0492 11566.6 -13884.9 -99444.7 1361.11 -27319.8 -1617.84 -7.4111 
37 1 75.9775 0.611971 7.5 6.04918 7000.12 -16840.4 -70231.1 30.4669 -34184.6 976.057 -7.41288 
38 1 78.8174 0.588878 7.5 6.04918 6151.2 -16949.2 -66342.7 2093.87 34804.8 4563.81 -7.41311 
39 1 80.2374 0.577331 7.5 6.04918 7017.03 -16539.2 -70888.4 -2607.56 -33857.3 7411.94 -7.41284 
40 1 83.0773 0.554238 7.5 6.04918 6120.14 -16138.6 -68206.2 4642.79 34187.3 10979.3 -7.413 
41 1 84.4972 0.542691 7.5 6.04918 7024.71 -15664.4 -72852 -5161.34 -33015.4 13544.6 -7.41272 
143 1 75.9975 3.0714 7.5 6.0492 8555.29 -16014.1 -78860.2 -43.2901 -32495 1005.43 -7.41235 
144 1 76.6975 1.83591 7.5 6.04918 5322.07 -17348.8 -61509.4 837.442 35593.5 1326.88 -7.41341 
145 1 78.1174 1.82437 7.5 6.04918 7829.77 -16316.3 -74722.8 -1378.74 -33271.7 4153.03 -7.4126 
146 1 78.8374 3.04831 7.5 6.0492 4389.39 -17457.8 -57516.5 2094.62 36080.4 4842.1 -7.41365 
147 1 80.2574 3.03676 7.5 6.0492 8582.77 -15732.2 -79436.6 -2751.19 -32151.1 7124.52 -7.41232 
148 1 80.9573 1.80127 7.5 6.04918 5294.23 -16822.1 -62745.7 3390.29 35248 8026.89 -7.41333 
149 1 82.3773 1.78973 7.5 6.04918 7850.57 -15738 -75962.9 -4018.57 -32667.1 10315.5 -7.41253 
150 1 83.0973 3.01367 7.5 6.0492 4350.64 -16610.7 -59568.9 4571.65 35515.4 11532.8 -7.41353 
151 1 84.5172 3.00212 7.5 6.0492 8611.36 -14909.3 -81170.9 -5368.35 -31257.6 12949.1 -7.41221 
285 1 76.0175 5.53083 7.5 6.0492 9907.74 -15238.4 -87261.4 -57.9134 -30576.1 1024.19 -7.41184 
286 1 76.7175 4.29534 7.5 6.0492 3463.19 -17934.5 -52589.4 820.325 36690.9 1463.49 -7.41395 
287 1 78.1374 4.2838 7.5 6.0492 9273.43 -15570 -83222.1 -1427.67 -31457.3 4013.3 -7.41209 
288 1 78.8574 5.50774 7.5 6.0492 2466.39 -18016.7 -48599.1 2036.12 37016.4 5108.31 -7.4142 
289 1 80.2773 5.49619 7.5 6.0492 9945.71 -14977.2 -87753 -2833.27 -30214.2 6805.89 -7.41181 
290 1 80.9773 4.2607 7.5 6.0492 3432.84 -17385.7 -53942.1 3297.37 36381.3 8433.4 -7.41387 
291 1 82.3973 4.24916 7.5 6.0492 9310.62 -15029.4 -84302.9 -4133.27 -30817.8 9852.14 -7.41202 
292 1 83.1173 5.4731 7.5 6.0492 2422.81 -17133.7 -50835 4437.01 36506 12053.6 -7.41406 
293 1 84.5372 5.46155 7.5 6.0492 9996.52 -14209.6 -89248.8 -5511.45 -29268.4 12303.8 -7.41172 
427 1 76.0375 7.99026 7.5 6.0492 11069.4 -14395.4 -95386.7 -74.9279 -28474.5 1030.36 -7.41135 
428 1 76.7375 6.75477 7.5 6.0492 1478.45 -18475 -43610.4 799.182 37428 1597.55 -7.4145 
429 1 78.1574 6.74323 7.5 6.0492 10535.4 -14767.4 -91467.7 -1477.19 -29436.4 3851.52 -7.41159 
430 1 78.8774 7.96717 7.5 6.0492 426.076 -18524.6 -39654.5 1971.47 37574.5 5359.84 -7.41474 
431 1 80.2973 7.95562 7.5 6.0492 11118.4 -14156.5 -95789.4 -2915.87 -28093.5 6454.52 -7.41132 
432 1 80.9973 6.72013 7.5 6.0492 1446.46 -17904.4 -45076.4 3196.27 37156.3 8815.89 -7.41441 
433 1 82.4173 6.70859 7.5 6.0492 10589.1 -14266 -92382.4 -4246.74 -28760.9 9347.14 -7.41153 
434 1 83.1373 7.93253 7.5 6.0492 379.75 -17608.9 -42068.8 4292.11 37121.2 12538.9 -7.4146 
435 1 84.5572 7.92098 7.5 6.0492 11190.9 -13449 -97037.4 -5652.19 -27095.1 11607.7 -7.41125 
570 1 76.7575 9.21421 7.5 6.0492 -611.133 -18966 -34639.7 774.297 37769.7 1726.86 -7.41505 
571 1 78.1774 9.20266 7.5 6.0492 11603.3 -13895.9 -99413.5 -1528.31 -27255 3666.32 -7.4111 
574 1 81.0173 9.17957 7.5 6.0492 -642.663 -18375.9 -36216 3086.25 37537.6 9171.84 -7.41495 
575 1 82.4373 9.16802 7.5 6.0492 11673.4 -13438.5 -100155 -4358.83 -26543.1 8799.68 -7.41106 
42 1 87.3371 0.519598 7.5 6.04918 6078.03 -14802.3 -71376.1 7054.36 33072.3 16921.9 -7.41281 
43 1 88.7571 0.508051 7.5 6.04918 7017.52 -14303.6 -76041.8 -7554.28 -31688.9 19140.5 -7.41252 
44 1 91.597 0.484958 7.5 6.04918 6021.66 -13059.8 -75725.2 9258.53 31489.1 22191.7 -7.41254 
45 1 93.0169 0.473411 7.5 6.04918 6988.1 -12581.5 -80335.4 -9717.63 -29921.7 24034.8 -7.41226 
152 1 85.2172 1.76663 7.5 6.04918 5251.47 -15709.9 -65405.4 5845.66 34413.3 14371.7 -7.41317 
153 1 86.6371 1.75509 7.5 6.04918 7863.66 -14639.3 -78403.9 -6530.58 -31544.5 16057.4 -7.41238 
154 1 87.3571 2.97903 7.5 6.0492 4293.17 -15208 -63062.5 6918.18 34485.1 17734.2 -7.41331 
155 1 88.7771 2.96748 7.5 6.0492 8632.64 -13628.3 -83993.7 -7814.58 -29848.6 18255.6 -7.41204 
156 1 89.477 1.73199 7.5 6.04918 5193.19 -14113 -69377.8 8132.25 33108.8 20124.3 -7.41293 
157 1 90.897 1.72045 7.5 6.04918 7861.74 -13126.2 -81949.9 -8841.06 -29943.3 21181.7 -7.41216 
158 1 91.617 2.94439 7.5 6.0492 4216.99 -13374.6 -67856.3 9067.84 33014.3 23239.8 -7.41302 
159 1 93.0369 2.93284 7.5 6.0492 8637.01 -12012.8 -87799.5 -10018.8 -27972.8 22887.9 -7.41181 
160 1 93.7369 1.69735 7.5 6.04918 5117.32 -12169.8 -74509.1 10185.6 31369 25119.4 -7.41262 
294 1 85.2372 4.22606 7.5 6.0492 3380.34 -16223.3 -56855.8 5681.94 35617.1 15036.4 -7.41369 
295 1 86.6571 4.21452 7.5 6.0492 9350.27 -13999 -86438.5 -6702.98 -29627.3 15285.4 -7.41189 
296 1 87.3771 5.43846 7.5 6.0492 2354.97 -15670.5 -54642.9 6714.78 35563.4 18495.9 -7.41383 
297 1 88.7971 5.42691 7.5 6.0492 10049 -13015.5 -91691.5 -8007.66 -27777 17305.3 -7.41157 
298 1 89.497 4.19142 7.5 6.0492 3306.43 -14550.1 -61208.7 7906.42 34413.3 21028.9 -7.41343 
299 1 90.917 4.17988 7.5 6.0492 9381.14 -12583.2 -89547.4 -9058.4 -27930.2 20125.9 -7.4117 
300 1 91.637 5.40382 7.5 6.0492 2264.99 -13750.9 -59868.1 8804.67 34208.4 24221.8 -7.41351 
301 1 93.0569 5.39227 7.5 6.0492 10089.9 -11512.5 -94992.8 -10248.3 -25793.9 21663 -7.41137 
302 1 93.7569 4.15678 7.5 6.0492 3212.89 -12506.6 -66831.1 9907.52 32799.7 26238.7 -7.41308 
436 1 85.2572 6.68549 7.5 6.0492 1388.24 -16695.4 -48236.7 5505.65 36465 15657.6 -7.41422 
437 1 86.6771 6.67395 7.5 6.0492 10655.9 -13310.7 -94201 -6870.59 -27502.4 14454.9 -7.41142 
438 1 87.3971 7.89789 7.5 6.0492 307.259 -16088.4 -46181.6 6495.45 36269.1 19203.5 -7.41435 
439 1 88.8171 7.88634 7.5 6.0492 11274.9 -12348.1 -99086 -8195.01 -25521.7 16289.1 -7.41112 
440 1 89.517 6.65085 7.5 6.0492 1305.47 -14951 -52958.9 7662.82 35365.2 21873.1 -7.41393 