ITEM: TIMESTEP
99
ITEM: NUMBER OF ATOMS
30248
ITEM: BOX BOUNDS pp pp pp
0.0000000000000000e+00 1.5123498900000001e+02
0.0000000000000000e+00 2.6194668500000000e+02
0.0000000000000000e+00 1.8399999600000001e+01
ITEM: ATOMS id type x y z c_csym c_2[1] c_2[2] c_2[3] c_2[4] c_2[5] c_2[6] c_3 
1 1 9.56331e-06 1.15507e-06 7.3404 6.04778 -7529.33 -7453.34 -88.6175 -1.60302 0.0383127 -0.0107167 -7.41134 
2 1 2.1495 1.19485 7.34122 6.04618 -9359.45 -5575.15 -54.662 -796.035 1896.58 -3492.04 -7.41137 
3 1 3.56917 1.17194 7.34228 6.04363 -8327.46 -6508.85 -146.633 4783.65 1452.03 -5204.57 -7.41139 
4 1 6.40833 1.12655 7.34583 6.04157 -11053.8 -3672.1 197.061 3794.21 2583.78 -9802.51 -7.41153 
5 1 7.82799 1.10465 7.34821 6.03965 -9942.52 -4543.85 -381.453 17010.8 -109.417 -10456.9 -7.41155 
72 1 0.0399855 2.45897 7.34122 6.04512 -9192.11 -5722.53 -106.457 -1305.53 3638.59 -82.3792 -7.41136 
73 1 1.45966 2.43587 7.34148 6.04506 -7235.3 -7686.12 -79.0034 225.708 3861.58 -2096.11 -7.41137 
74 1 2.18925 3.65395 7.3428 6.04337 -13274.3 -1562.88 -63.0652 -3278.78 5231.95 -3781.3 -7.41141 
75 1 3.6089 3.63106 7.34383 6.04193 -10302.6 -4463.56 -214.6 2352.67 5449.33 -4733.95 -7.41143 
76 1 4.29877 2.39003 7.34358 6.04444 -13241 -1560.09 143.768 -353.059 3819.45 -7063.02 -7.41145 
77 1 5.71842 2.36753 7.34534 6.04101 -11164.3 -3473.56 -420.917 9296.2 2726.72 -7626.71 -7.41146 
78 1 6.44763 3.58588 7.34728 6.04279 -18939.2 4211.69 634.023 1395.17 5664.84 -10510.8 -7.4116 
79 1 7.86726 3.56398 7.34958 6.03807 -15718.6 1426.27 -1040.25 14586.2 3658.2 -9401.5 -7.41155 
80 1 8.55722 2.32303 7.35004 6.03963 -16469 1914.17 808.058 7690.11 4747.48 -12902.2 -7.4117 
214 1 0.0795585 4.91798 7.34358 6.04228 -10846.6 -3930.06 -263.636 -4955.26 6720.26 -147.222 -7.41142 
215 1 1.49924 4.89491 7.34384 6.04338 -7070.61 -7751.86 90.3424 -3501.5 7915.17 -1958.23 -7.41146 
216 1 2.2284 6.11321 7.34583 6.04088 -16935.1 2215.9 -284.919 -8060.77 7932.45 -3985.8 -7.41149 
217 1 3.64805 6.09034 7.3468 6.03959 -12182.3 -2465.18 -52.886 -2435.19 9420.88 -4188.29 -7.41154 
218 1 4.33809 4.84938 7.34583 6.04175 -19023 4344.73 216.325 -3906.84 6754.09 -7489.19 -7.41152 
219 1 5.75773 4.8269 7.34751 6.03858 -15021.4 542.193 -637.099 5558.64 6654.84 -6781.56 -7.41151 
220 1 6.48637 6.04557 7.35005 6.03968 -26344.1 11773.4 846.446 -3366.8 8133.6 -11021.4 -7.4117 
221 1 7.90598 6.02368 7.35221 6.03454 -21208.3 7167.25 -1461.52 9682.26 7456.73 -8204.36 -7.4116 
222 1 8.59595 4.78269 7.35202 6.03969 -25759 11267.4 1514.2 4158.04 7364.73 -13687.1 -7.41181 
356 1 0.118348 7.37702 7.34727 6.03921 -12436.7 -2028.75 -704.538 -10801.3 9100.79 -202.084 -7.4115 
357 1 1.53803 7.354 7.34752 6.04174 -7042.38 -7697.48 550.306 -9263.85 11823.9 -1794.63 -7.4116 
358 1 2.26661 8.57261 7.35003 6.03882 -20278.9 5927.44 -852.641 -14686.6 9907.9 -4121.89 -7.41157 
359 1 3.68626 8.5498 7.35092 6.03715 -14035.4 -481.313 456.576 -9303.28 13170.7 -3582.08 -7.4117 
360 1 4.37666 7.30899 7.34936 6.03942 -24485.7 10078.4 0.280517 -9680.85 9009.47 -7777.04 -7.41161 
361 1 5.79628 7.28654 7.35092 6.03524 -18785.6 4478.67 -554.99 -396.769 10478.1 -5834.13 -7.41163 
362 1 6.52421 8.50561 7.35389 6.03676 -33262.5 18938.7 695.415 -10068.1 9914.33 -11359.4 -7.4118 
363 1 7.94379 8.48375 7.35588 6.0307 -26524.9 12647.3 -1512.3 2509.07 11101.1 -6900.39 -7.41171 
364 1 8.63396 7.24279 7.35513 6.03578 -34580 20281.8 1910.21 -1681.16 9337.89 -14253.1 -7.41193 
6 1 10.6671 1.06112 7.35389 6.03473 -12166.6 -2138.53 601.323 14819.3 4048.87 -14597.4 -7.4118 
7 1 12.0867 1.04088 7.35703 6.03589 -11002.9 -2900.81 -762.304 34060.7 -2464.01 -14175.5 -7.41179 
8 1 14.9258 0.999965 7.3637 6.02705 -12828.4 -1049.6 1054.23 30552 6115.05 -17628.7 -7.41214 
9 1 16.3454 0.981818 7.36708 6.02939 -11617 -1556.27 -1221.6 53852.1 -5274.95 -16404.4 -7.41206 
81 1 9.97686 2.30189 7.35284 6.03782 -14182.6 151.285 -1119.46 24217.9 575.168 -11899.9 -7.41164 
82 1 10.7056 3.52063 7.35512 6.03796 -23181.4 8756.93 1847.12 12474.5 6762.13 -15675.3 -7.41193 
83 1 12.1252 3.50038 7.35816 6.03536 -19692.8 6127.41 -2334.44 31642.3 973.849 -12730.1 -7.41171 
84 1 12.8155 2.25965 7.3591 6.03252 -18739.2 4464.26 1720.81 21344.4 6349.74 -16969.9 -7.41204 
85 1 14.2351 2.24042 7.36237 6.03425 -16295.7 2932.18 -2062.14 42913.9 -2229.66 -14694.9 -7.41186 
86 1 14.9633 3.45961 7.3647 6.03072 -26080 11849.7 3342.04 28249.4 8461.95 -18981.5 -7.41233 
87 1 16.3829 3.44143 7.36797 6.03301 -22316.3 9552.81 -3887.74 51465.6 -2170.86 -14760 -7.41191 
88 1 17.0737 2.20104 7.36914 6.02487 -20037.3 6175.33 2724.23 38790 8459.34 -19303.2 -7.41242 
89 1 18.4933 2.18402 7.37242 6.02749 -17498.4 4905.77 -3094.59 63477.7 -5306.54 -16232 -7.4121 
223 1 10.0156 4.76154 7.35469 6.03496 -21369.5 7621.72 -2100.21 20423.9 4242.85 -10542.5 -7.41163 
224 1 10.7436 5.98067 7.35747 6.036 -33672.6 19281.1 2849.02 7648.7 8886.52 -16509.7 -7.41207 
225 1 12.1632 5.9604 7.36035 6.03111 -28059 14912.3 -3653.07 26617.9 4519.34 -11129.2 -7.41169 
226 1 12.8533 4.71954 7.36074 6.03528 -30702.3 16328.3 3362.95 17770.9 8594.89 -18077.7 -7.41221 
227 1 14.2729 4.70027 7.36387 6.03282 -25928.8 12947.3 -4058.62 39088.9 1131.65 -13051.1 -7.41177 
228 1 15.0003 5.9199 7.36663 6.03166 -38687.5 24332 5369.41 23328.9 10233.7 -20107.2 -7.41253 
229 1 16.4199 5.90165 7.36972 6.02941 -32556.4 20404.3 -6284.24 46382.2 1110.82 -12981.3 -7.4118 
230 1 17.1104 4.66108 7.37046 6.02771 -33681.9 19516.9 5464.84 35171.9 10369.4 -20644.4 -7.41266 
231 1 18.53 4.64399 7.3736 6.0318 -28585.4 16509.5 -6216.81 59681.3 -2230.37 -14484.9 -7.41192 
365 1 10.0535 7.22164 7.35762 6.03035 -28319.8 14913 -2761.13 14260.5 7884.87 -9048.19 -7.41167 
366 1 10.7808 8.44123 7.36076 6.03156 -43414.7 29267.5 3455.6 783.394 10364.2 -17121 -7.41221 
367 1 12.2003 8.42092 7.36342 6.02624 -35988.3 23282.6 -4565.96 19232.6 8002.5 -9409.42 -7.41173 
368 1 12.8905 7.18002 7.36333 6.03207 -42075.8 27777.8 4668.38 11820.5 10224.6 -18950.2 -7.41238 
369 1 14.31 7.16069 7.36626 6.02741 -35209.7 22753.4 -5708.39 32766.2 4552.52 -11275.4 -7.41173 
370 1 15.0366 8.38082 7.36933 6.02808 -50495.6 36300.8 6969.71 16266.7 11384.3 -21013.6 -7.41272 
371 1 16.4561 8.36248 7.37221 6.02379 -42347.9 30890 -8239.84 38828.1 4413.72 -11095.3 -7.41174 
372 1 17.1466 7.12179 7.37256 6.02794 -46752.7 32465.8 7850.11 29087.5 11677.1 -21780.7 -7.41288 
373 1 18.5661 7.1046 7.37552 6.02606 -39386.5 28013.9 -8971.43 53289.7 972.944 -12629 -7.4118 
10 1 19.1845 0.94398 7.37382 6.01919 -13144.2 -234.093 1492.04 49267.6 8541.8 -19152.7 -7.41248 
11 1 20.6042 0.928144 7.37706 6.02144 -11938.4 -537.45 -1675.46 74795.1 -8217.92 -17460.6 -7.41233 
12 1 23.4434 0.893601 7.38329 6.01154 -13271 306.551 1878.48 69618.4 11072.1 -19528 -7.41279 
13 1 24.8631 0.880145 7.38616 6.0134 -12166.9 206.904 -2061.7 95707.7 -11031.4 -17624.1 -7.41258 
14 1 27.7024 0.848931 7.39156 6.00441 -13278.4 720.359 2187.68 90364.1 13479.6 -19020.2 -7.41304 
90 1 19.2209 3.4037 7.37462 6.02305 -27581.7 13634.3 4908.31 47011.6 10587.9 -20655.1 -7.41274 
91 1 20.6405 3.38781 7.37773 6.02589 -23651.2 11769.8 -5475.99 72502 -5400.07 -15765.2 -7.4121 
92 1 21.3319 2.14785 7.37894 6.0171 -20609.6 7154.88 3700.19 58521.7 10838 -20248.3 -7.41279 
93 1 22.7515 2.13319 7.38195 6.01953 -18045.4 6184.55 -4074.48 84596 -8346.14 -16813.1 -7.41232 
94 1 23.4786 3.35335 7.38391 6.01543 -28293.5 14491.9 6378.74 67441.4 12891.1 -21053.6 -7.41312 
95 1 24.8982 3.33983 7.38665 6.018 -24342.7 12934.3 -6918.24 93523.7 -8447.42 -15983 -7.41227 
96 1 25.5902 2.10034 7.38779 6.0097 -20885.5 7571.13 4561.26 79259.5 13232.7 -20133.5 -7.4131 
97 1 27.0098 2.08804 7.39038 6.01166 -18336.2 6917.36 -4903.18 105182 -11129 -16645.2 -7.41251 
98 1 27.7364 3.30869 7.39205 6.0082 -28202.1 14554.3 7632.18 88247.5 15129.8 -20468.6 -7.41343 
232 1 19.2568 5.86413 7.37617 6.02485 -41536.8 27211.7 8057.15 42039.2 12062.8 -21977.1 -7.41301 
233 1 20.6764 5.84815 7.37912 6.02842 -35076.4 23833.9 -8997.96 67434.9 -2356.06 -13966.6 -7.4119 
234 1 21.3675 4.60796 7.38 6.01998 -35180.8 21138.6 7561.63 54941.4 12486.3 -21700.1 -7.41308 
235 1 22.787 4.59321 7.38287 6.02462 -29937.9 18633.7 -8304.19 80883.6 -5511.68 -15088.3 -7.41207 
236 1 23.5133 5.81385 7.38517 6.01718 -42801.8 28379.8 10613.7 62422.3 14142 -22448.9 -7.41345 
237 1 24.9328 5.80021 7.38776 6.02228 -36182.1 25465.3 -11498.3 88495.1 -5609.63 -14265.5 -7.412 
238 1 25.6246 4.56048 7.38864 6.01248 -35666.6 21519.8 9449.51 75688.7 14688.2 -21577.4 -7.41347 
239 1 27.0441 4.54807 7.39108 6.01679 -30333.9 19478.1 -10119.5 101572 -8498.71 -15026.8 -7.41219 
240 1 27.7699 5.76918 7.39308 6.00987 -42642 28171.2 12823.4 83250.9 16220.4 -21828.4 -7.41382 
374 1 19.292 8.32527 7.37837 6.02425 -54747.9 40359.7 10757.5 34802.5 12924.3 -23115.4 -7.41326 
375 1 20.7115 8.30915 7.38113 6.02302 -46079.7 35620.8 -12056.9 59806.1 768.969 -12080.3 -7.41176 
376 1 21.4025 7.0688 7.38171 6.02225 -49208.7 34819 11059.9 48759.4 13535.2 -22994.3 -7.41338 
377 1 22.822 7.05391 7.38441 6.0251 -41474.5 30961.4 -12158.2 74487.4 -2506.71 -13279.8 -7.41186 
378 1 23.5473 8.27508 7.38698 6.0199 -56525.6 41890.7 14395.9 55038.7 14779.9 -23705.7 -7.41376 
379 1 24.9668 8.26126 7.38938 6.02206 -47556.6 37737.5 -15611 80852.3 -2654.45 -12478.1 -7.41179 
380 1 25.6584 7.02135 7.39005 6.0147 -49916 35185.5 13981.5 69445.9 15548.3 -22909.5 -7.41382 
381 1 27.0779 7.00877 7.39232 6.02009 -42000.6 32002.8 -14967.2 95224 -5674.7 -13344.1 -7.41191 
382 1 27.8027 8.2304 7.39458 6.01254 -56433.6 41487.8 17573 75793.3 16701.3 -23091.3 -7.4142 
15 1 29.1221 0.837804 7.39397 6.00568 -12202.9 820.505 -2346.5 115701 -13532.8 -17074.5 -7.41278 
16 1 31.9616 0.809817 7.39843 5.99802 -13284.5 1114.32 2405.43 110563 15604.8 -17826.8 -7.41324 
17 1 33.3812 0.800888 7.40036 5.99855 -12335.3 1308.34 -2523.27 134130 -15624.2 -15958.2 -7.41295 
18 1 36.2209 0.775913 7.40388 5.99203 -13531.3 1449.66 2528.95 129359 17367.2 -16143.1 -7.41338 
19 1 37.6406 0.768987 7.40536 5.99223 -12688.8 1699.83 -2602.25 150487 -17285.9 -14438.3 -7.41307 
99 1 29.1559 3.29749 7.39432 6.01025 -24242.4 13430.9 -8097.91 113615 -11143.5 -15559.6 -7.41241 
100 1 29.8487 2.05848 7.39532 6.00283 -20624.8 7714.49 5250.66 99882.3 15439.1 -19198 -7.41335 
101 1 31.2683 2.04845 7.39743 6.00414 -18164 7282.05 -5530.26 124522 -13522.5 -15866.7 -7.41267 
102 1 31.9944 3.26956 7.39881 6.00155 -27700.8 14202.8 8602.28 108524 17125.7 -19134 -7.41367 
103 1 33.4139 3.26055 7.4006 6.00297 -23861.4 13357.8 -8967.58 132149 -13402.1 -14613.4 -7.41253 
104 1 34.1074 2.02202 7.40143 5.99649 -20423.9 7624.52 5743.72 119507 17328.5 -17650.9 -7.41354 
105 1 35.527 2.01409 7.40306 5.9973 -18083.4 7372.83 -5948.92 142018 -15474.6 -14616.4 -7.41279 
106 1 36.2526 3.23563 7.40418 5.99511 -27108.9 13553.2 9273.47 127380 18786.9 -17279.1 -7.41385 
107 1 37.6721 3.22862 7.40552 5.99643 -23439.5 12821.7 -9535.92 148574 -15209.2 -13283 -7.41262 
241 1 29.1894 5.75784 7.3952 6.01512 -35949.4 25874.2 -13584.8 108697 -8489.04 -13987.8 -7.41209 
242 1 29.8819 4.5186 7.39601 6.00549 -35124.3 21138.1 10998.1 96361.1 16754 -20546.1 -7.41377 
243 1 31.3014 4.50845 7.39797 6.00919 -29864.2 19493.4 -11550 121027 -11070.5 -14408.5 -7.4123 
244 1 32.0267 5.73 7.39967 6.0032 -41655.8 27139.1 14562.7 103561 18103.3 -20384.7 -7.41411 
245 1 33.4462 5.72084 7.4013 6.00836 -35057.2 25259.8 -15165.5 127329 -10914.5 -13226.9 -7.41216 
246 1 34.1394 4.48209 7.402 5.99921 -34214 20184.7 12148.3 116041 18539.4 -18852.7 -7.414 
247 1 35.5589 4.47404 7.40348 6.00216 -29086.2 18844.1 -12566.4 138601 -13181.3 -13348.2 -7.41238 
248 1 36.2838 5.69599 7.40491 5.99728 -40234.9 25476.4 15801.5 122452 19686.2 -18382.8 -7.41432 
249 1 37.7033 5.68883 7.4061 6.00167 -33822.1 23859.1 -16243.9 143839 -12873.7 -12098.8 -7.41222 
383 1 29.2222 8.21886 7.39654 6.01821 -47274.8 38114.9 -18617.2 101117 -5698.28 -12360.2 -7.41181 
384 1 29.9145 6.97943 7.39719 6.00765 -49102.6 34352.7 16406 90125.8 17484 -21820.1 -7.41418 
385 1 31.334 6.9691 7.39898 6.01311 -41199.2 31705.7 -17219.3 114764 -8415.68 -12901.3 -7.41197 
386 1 32.0584 8.19115 7.40094 6.00579 -54949.1 39818.6 20104.9 96073.2 18483.5 -21573.3 -7.41454 
387 1 33.4779 8.18177 7.40242 6.01145 -45822.5 37018.5 -20934.5 119818 -8282.99 -11796.3 -7.41183 
388 1 34.1709 6.94284 7.403 6.00131 -47481.8 32565.2 18237.2 109816 19184.2 -20009.8 -7.41445 
389 1 35.5903 6.9346 7.40433 6.00663 -39714.4 30327.2 -18858.9 132416 -10685 -12043.2 -7.41201 
390 1 36.3144 8.15702 7.40602 5.99981 -52752.2 37192.5 21941.5 114956 20008.2 -19451.9 -7.41479 
391 1 37.7339 8.14962 7.40706 6.00529 -43803.9 34773.5 -22555.5 136414 -10393.7 -10881.1 -7.41185 
20 1 40.4804 0.746741 7.40805 5.98678 -13391.3 1830.8 2568.44 146105 18755.9 -14171.4 -7.41347 
21 1 41.9 0.74158 7.40914 5.98684 -12461.7 2408.82 -2602.76 164445 -18551.7 -12685.5 -7.41315 
22 1 44.74 0.721729 7.41114 5.98235 -13441.7 2423.53 2544.3 160546 19806.6 -12091.9 -7.41353 
23 1 46.1596 0.718084 7.41192 5.98236 -12749.3 2760.88 -2551.08 176046 -19486.7 -10848.7 -7.41321 
108 1 38.3662 1.99054 7.40619 5.99062 -20238.7 7359.4 6046.97 137384 18853.6 -15707.6 -7.41367 
109 1 39.7858 1.98449 7.4074 5.99133 -17930.2 7319.55 -6181.9 157212 -16997.7 -13053.8 -7.41288 
110 1 40.511 3.20641 7.40829 5.98961 -25906.7 12699.1 9675.57 144173 20095.6 -15130.4 -7.41397 
111 1 41.9305 3.20117 7.40925 5.99075 -22174 12454 -9847.79 162579 -16600.2 -11720.2 -7.41268 
112 1 42.6253 1.96351 7.40977 5.98564 -19178.5 7394.41 6192.7 152980 20028.8 -13573.4 -7.41375 
113 1 44.0449 1.9591 7.41064 5.98622 -17039.7 7331.18 -6270.32 170003 -18145 -11333.9 -7.41295 
114 1 44.7697 3.18136 7.41134 5.98491 -24664.8 12013.2 9865.89 158628 21083.3 -12882.6 -7.41403 
115 1 46.1892 3.17763 7.412 5.98594 -21259.1 11496.4 -9970.01 174206 -17640.4 -10060.9 -7.41274 
116 1 46.8845 1.94034 7.4124 5.9816 -18989 7043.57 6219.56 166268 20899.7 -11411.7 -7.4138 
250 1 38.3972 4.45055 7.40667 5.99374 -33090.6 18767.3 12911.5 133950 19986.8 -16743.1 -7.41416 
251 1 39.8167 4.44438 7.40774 5.99592 -28030.4 17804.4 -13204.3 153898 -14844.9 -11983.2 -7.41244 
252 1 40.5412 5.66668 7.40893 5.99222 -37955.9 23479.4 16586.1 139291 20941.2 -16075.1 -7.41447 
253 1 41.9607 5.66128 7.40975 5.99568 -31539.1 22399.5 -16888.6 157942 -14400.2 -10736.4 -7.41226 
254 1 42.6552 4.42344 7.41019 5.98879 -30851.3 17531 13348.1 149612 21104.2 -14442.4 -7.41426 
255 1 44.0748 4.41892 7.41092 5.99049 -25985.9 16685.6 -13538.4 166738 -16114 -10453.1 -7.41249 
256 1 44.799 5.64152 7.41193 5.98809 -35445.9 21460.8 17008.9 153821 21892.6 -13671.9 -7.41455 
257 1 46.2185 5.63763 7.41244 5.99052 -29368.5 20270.7 -17203.2 169629 -15557.7 -9262.99 -7.4123 
258 1 46.9136 4.4002 7.41278 5.98433 -29275 15803.1 13538 162884 21931.9 -12124.9 -7.41432 
392 1 38.4276 6.91118 7.40754 5.99578 -45382.2 30061.4 19486.4 127770 20578.8 -17756.5 -7.41465 
393 1 39.8471 6.90482 7.40846 6.00087 -37672.1 28340.5 -19929.3 147788 -12494.3 -10887 -7.41204 
394 1 40.5708 8.12755 7.40992 5.99467 -49347.6 34042.3 23141.2 131832 21235 -17005.9 -7.41496 
395 1 41.9903 8.12192 7.4106 5.99993 -40399 32293.1 -23566.9 150621 -12059.2 -9728.9 -7.41187 
396 1 42.6847 6.88394 7.41098 5.99114 -41994.5 27597.2 20240.3 143480 21665.6 -15305.5 -7.41477 
397 1 44.1042 6.87922 7.41157 5.9957 -34531.8 26015.2 -20536.5 160717 -13893.2 -9555.8 -7.41208 
398 1 44.8277 8.10222 7.41284 5.99046 -45644.2 30703.8 23827.8 146420 22177.2 -14461.6 -7.41506 
399 1 46.2472 8.0981 7.41322 5.9953 -37041.1 28968.3 -24106.5 162403 -13339.6 -8449.47 -7.4119 
400 1 46.9422 6.86055 7.41351 5.98736 -39062 24561.8 20616.3 156831 22477.1 -12843 -7.41484 
24 1 48.9997 0.700284 7.41337 5.97895 -13501.4 2843.8 2475 172573 20575.8 -10038.2 -7.41356 
25 1 50.4193 0.6979 7.41392 5.97881 -12704.9 3423.99 -2465.64 185276 -20159.9 -9035.06 -7.41325 
26 1 53.2595 0.681798 7.41496 5.9763 -13490.1 3469.91 2381.29 182263 21125 -8088.94 -7.41357 
27 1 54.6791 0.680435 7.41534 5.97606 -12824.6 3811.58 -2364.19 192402 -20634.8 -7305.21 -7.41327 
117 1 48.3041 1.93733 7.413 5.98205 -16878.8 7103.41 -6258.15 180411 -18986.5 -9581.75 -7.41299 
118 1 49.0286 3.15987 7.41357 5.98117 -23389 11023.3 9904.54 170661 21803.3 -10676.3 -7.41407 
119 1 50.4481 3.15741 7.41399 5.98202 -19970.3 10764.6 -9961.36 183435 -18400.2 -8406.04 -7.41277 
120 1 51.1439 1.92044 7.41429 5.97842 -18084.6 6978.06 6169.66 177110 21527.4 -9330.84 -7.41382 
121 1 52.5635 1.91856 7.41468 5.97872 -16084.6 6999.26 -6183.1 188514 -19590.7 -7878.77 -7.41302 
122 1 53.2877 3.14134 7.41515 5.97814 -21979.3 10170.8 9848.16 180352 22314.3 -8591.67 -7.41409 
123 1 54.7072 3.13991 7.4154 5.9789 -18695.1 9881.45 -9875.15 190560 -18944.6 -6814.93 -7.41279 
124 1 55.4034 1.9032 7.41562 5.97605 -17394.9 6722.99 6074.59 185712 21968.2 -7384.86 -7.41383 
259 1 48.3331 4.39706 7.41325 5.98596 -24488.8 15188.8 -13654 177192 -17057.8 -8872.99 -7.41253 
260 1 49.0571 5.61992 7.41411 5.98395 -32782.3 19115.4 17170.6 165911 22588.3 -11320.9 -7.4146 
261 1 50.4766 5.6173 7.4144 5.9862 -26761.7 18237.6 -17287.8 178909 -16415.9 -7772.84 -7.41232 
262 1 51.1722 4.38021 7.41465 5.98074 -27011 14303.8 13561.8 173723 22527.6 -9903 -7.41434 
263 1 52.5918 4.37823 7.41492 5.98225 -22364 13722.5 -13626.9 185358 -17746.3 -7321.1 -7.41255 
264 1 53.3155 5.60127 7.41568 5.98058 -29899.7 16871 17164.3 175653 23082.7 -9105.19 -7.41461 
265 1 54.735 5.59969 7.4158 5.98266 -24056.3 15985.6 -17230.1 186058 -17040.6 -6324.3 -7.41235 
266 1 55.4311 4.3629 7.41598 5.97791 -24801.5 12679.3 13485.7 182358 22944.6 -7831.49 -7.41435 
401 1 48.3617 6.85722 7.41384 5.99078 -31726.6 23257.1 -20803.6 171240 -14948.5 -8155.01 -7.4121 
402 1 49.085 8.08043 7.41497 5.987 -41596 27024.5 24139.6 158565 22874.7 -11974.9 -7.41512 
403 1 50.5045 8.07758 7.41513 5.99124 -33090.3 25618 -24312 171798 -14302.7 -7130.47 -7.41192 
404 1 51.2001 6.84042 7.41535 5.98386 -35444.8 21635.3 20733.6 167741 23065.3 -10486.4 -7.41487 
405 1 52.6196 6.83824 7.41548 5.98666 -28274 20470.3 -20844.8 179467 -15730.3 -6759.31 -7.41213 
406 1 53.3428 8.0616 7.41651 5.984 -37249.3 23396.9 24206.2 168383 23376.2 -9632.61 -7.41514 
407 1 54.7623 8.05979 7.4165 5.9873 -28934.7 22099.6 -24306.1 179072 -15014 -5828.9 -7.41194 
408 1 55.4584 6.82296 7.41666 5.98067 -31777.9 18580.7 20692 176434 23479.5 -8291.76 -7.41488 
28 1 57.5194 0.665706 7.41607 5.97439 -13310.6 4040.67 2276.55 189871 21507.8 -6278.05 -7.41357 
29 1 58.939 0.665145 7.41631 5.97399 -12730.1 4206.22 -2256.25 197664 -20962.4 -5683.49 -7.41329 
30 1 61.7794 0.651478 7.41681 5.97309 -13473.7 4273.42 2169.26 195695 21767.3 -4606.73 -7.41357 
31 1 63.1989 0.651519 7.41696 5.97253 -12818.1 4503.27 -2148.68 201392 -21180.8 -4167.64 -7.4133 
32 1 66.0393 0.638637 7.4173 5.97192 -13307 4547.39 2065.81 199972 21935.8 -3057.45 -7.41357 
125 1 56.823 1.90224 7.41586 5.97615 -15347.6 6872.36 -6073.56 194654 -20015.4 -6266.15 -7.41304 
126 1 57.547 3.12521 7.41626 5.9758 -20315.7 9342.61 9740.81 187946 22668.3 -6661.47 -7.41409 
127 1 58.9665 3.12458 7.41639 5.97645 -17146.2 8962.21 -9748.82 195813 -19326.6 -5313.36 -7.41281 
128 1 59.6631 1.8881 7.41654 5.97426 -16764.7 6470.39 5960.44 192360 22270.5 -5589 -7.41383 
129 1 61.0826 1.88783 7.41667 5.97422 -14844.4 6444.61 -5951.55 199117 -20307 -4754.66 -7.41305 
130 1 61.8065 3.11094 7.41703 5.97408 -18980.9 8266.34 9612.63 193753 22906.4 -4884.51 -7.41409 
131 1 63.226 3.11092 7.41706 5.97462 -15774.5 7972.03 -9609.49 199511 -19585.8 -3902.32 -7.41282 
132 1 63.9228 1.87461 7.41716 5.97297 -15849.9 6127.72 5842.28 197371 22470.8 -3931.9 -7.41382 
133 1 65.3424 1.87486 7.41721 5.97283 -13919.6 6064.33 -5828.57 202123 -20497.9 -3335.18 -7.41306 
134 1 66.0662 3.09806 7.41754 5.97285 -17288.7 7256.23 9485.32 198006 23060.3 -3239.89 -7.41408 
267 1 56.8507 4.36183 7.4161 5.97927 -20178.7 12259.3 -13518 191511 -18238.3 -5838.86 -7.41257 
268 1 57.5743 5.58503 7.41679 5.9779 -26845.7 14675.6 17064.4 183277 23425.6 -7057.1 -7.41461 
269 1 58.9938 5.58425 7.41679 5.97983 -21173.9 13753.5 -17096 191333 -17486.4 -4944.87 -7.41237 
270 1 59.6903 4.34772 7.41691 5.97571 -22726.2 11082.6 13360.7 189036 23229.5 -5923.52 -7.41435 
271 1 61.1098 4.34735 7.41692 5.97696 -18258.2 10529.3 -13372.4 195967 -18582.1 -4439.99 -7.41259 
272 1 61.8333 5.57065 7.41756 5.97585 -23959 12271.1 16922.5 189080 23656.1 -5173.76 -7.41461 
273 1 63.2529 5.57048 7.41747 5.97761 -18278.3 11491.9 -16932.5 195039 -17794 -3639.24 -7.41238 
274 1 63.9497 4.33415 7.41754 5.97408 -20351.4 9431.38 13221.3 194025 23417.5 -4165.76 -7.41434 
275 1 65.3692 4.3343 7.41748 5.97518 -15916.2 8867.95 -13218.9 198937 -18811.3 -3118.86 -7.4126 
276 1 66.0927 5.55765 7.41808 5.97428 -20862.8 9954.89 16776 193355 23805 -3431.72 -7.4146 
409 1 56.8779 6.8217 7.41665 5.98327 -24659.4 17720.3 -20752.5 185698 -16297.6 -5410.78 -7.41215 
410 1 57.601 8.04517 7.4176 5.98096 -32785.7 19849.9 24131 176128 23727.6 -7467.8 -7.41514 
411 1 59.0205 8.04417 7.41748 5.98403 -24692.7 18516.3 -24182.6 184409 -15529 -4574.66 -7.41196 
412 1 59.7171 6.80762 7.41758 5.97815 -28231.8 15622.6 20567.9 183162 23763.8 -6272 -7.41488 
413 1 61.1366 6.80708 7.41747 5.98055 -21247.2 14730.9 -20595.7 190185 -16700.3 -4126.24 -7.41216 
414 1 61.8597 8.0306 7.41837 5.97854 -28349.2 16171.9 23989 181982 23965.7 -5477.04 -7.41514 
415 1 63.2792 8.03023 7.41816 5.98119 -20299 15000.5 -24008.9 188130 -15889.6 -3376.1 -7.41197 
416 1 63.9761 6.79391 7.41822 5.97615 -24412.6 12707.2 20415.8 188182 23952 -4411.75 -7.41487 
417 1 65.3957 6.79389 7.41804 5.97818 -17548.2 11781.8 -20421 193174 -16973.2 -2904.13 -7.41218 
418 1 66.1188 8.01743 7.41889 5.97661 -23905.9 12571.4 23832.2 186284 24120.6 -3635.14 -7.41513 
554 1 59.7433 9.26781 7.41852 5.98146 -33149.4 20147.6 27470.2 174889 23835.7 -6635.73 -7.41541 
555 1 61.1628 9.26702 7.41829 5.9847 -23820.4 18971.8 -27510.9 182105 -14743.4 -3809.8 -7.41178 
558 1 64.002 9.25389 7.41915 5.97908 -27943.4 15977.8 27318.8 179966 24037.7 -4670.99 -7.4154 
559 1 65.4216 9.25363 7.41885 5.98196 -18767.5 14782.8 -27328.8 185149 -15062.8 -2688.48 -7.41179 
33 1 67.4589 0.6391 7.41738 5.97155 -12703.9 4581.3 -2045.59 203748 -21317.2 -2739.89 -7.4133 
34 1 70.2993 0.626737 7.41758 5.97114 -13257.6 4452.93 1967.24 202867 22034.9 -1600.19 -7.41356 
35 1 71.7189 0.627455 7.41761 5.97102 -12581 4542.71 -1947.48 204806 -21388.9 -1371.65 -7.41331 
36 1 74.5594 0.615357 7.4177 5.97078 -13063.4 4331.56 1874.53 204426 22078.7 -199.216 -7.41356 
135 1 67.4857 3.09846 7.4175 5.97328 -14145.1 6862.76 -9474.73 201836 -19751.1 -2567.59 -7.41283 
136 1 68.1827 1.86228 7.41755 5.97188 -15053.8 5632.02 5730.37 200916 22595.8 -2387.38 -7.41382 
137 1 69.6023 1.86287 7.41754 5.9719 -13213.3 5364.09 -5714.03 203817 -20611.1 -1985.58 -7.41307 
138 1 70.326 3.08611 7.41785 5.97203 -15771.4 5980.01 9369.59 200872 23150.7 -1694.45 -7.41407 
139 1 71.7455 3.08677 7.41775 5.97228 -12566.2 5626.51 -9353.22 202867 -19840.3 -1284.49 -7.41283 
140 1 72.4427 1.85067 7.41776 5.97114 -13989.1 4994.52 5629.01 203114 22662.8 -920.482 -7.41381 
141 1 73.8622 1.85144 7.4177 5.97132 -12166 4613.47 -5609.72 204213 -20660.4 -676.05 -7.41307 
142 1 74.586 3.07468 7.41799 5.97118 -14113.9 4657.55 9271.6 202401 23191.6 -208.897 -7.41407 
277 1 67.5122 5.55792 7.41792 5.97571 -15222.6 9203 -16771.1 197365 -17994 -2397.32 -7.41239 
278 1 68.2093 4.32174 7.41795 5.9729 -18048 7742.07 13089.4 197565 23534.5 -2528.73 -7.41433 
279 1 69.6289 4.32224 7.41783 5.97374 -13725.8 7000.73 -13077.7 200615 -18950.3 -1857.5 -7.41261 
280 1 70.3523 5.5456 7.41841 5.97314 -17842.9 7502.02 16645.8 196209 23892.3 -1795.31 -7.4146 
281 1 71.7719 5.54613 7.4182 5.97427 -12169.1 6788.83 -16629.6 198366 -18104.7 -1198.54 -7.41239 
282 1 72.4692 4.31006 7.41819 5.97212 -15511.8 5917.37 12977 199741 23597.5 -974.374 -7.41433 
283 1 73.8887 4.31073 7.41802 5.97271 -11218.4 5072.61 -12957 200987 -19013.7 -630.028 -7.41262 
284 1 74.6123 5.53406 7.41858 5.9724 -14738.6 5008.79 16543.3 197728 23931.9 -221.936 -7.41459 
419 1 67.5383 8.01749 7.41862 5.97891 -15870.6 11524.6 -23830.5 190456 -16127.6 -2227.74 -7.41198 
420 1 68.2355 6.78136 7.41865 5.97462 -20597.9 9830.32 20269.1 191733 24069.3 -2679.41 -7.41486 
421 1 69.6551 6.78169 7.4184 5.97634 -13853.2 8734.25 -20258.7 194840 -17141.8 -1730.92 -7.41219 
422 1 70.3782 8.0052 7.41923 5.97514 -19417.7 8941.69 23692.8 189149 24211.5 -1904.22 -7.41512 
423 1 71.7978 8.00553 7.41891 5.97713 -11377 7961.82 -23674.8 191449 -16262.4 -1113.59 -7.41199 
424 1 72.4953 6.76954 7.4189 5.97353 -16648.8 6838.89 20148.3 193900 24132.4 -1034.21 -7.41485 
425 1 73.9149 6.77005 7.41861 5.97498 -9943.33 5646.74 -20125 195190 -17221.8 -585.114 -7.4122 
426 1 74.6381 7.99349 7.41942 5.97413 -14899.5 5299.8 23587.7 190651 24252.2 -239.359 -7.41512 
562 1 68.2612 9.24113 7.41958 5.97722 -22660.7 11878.9 27166.2 183546 24164.2 -2840.23 -7.41539 
563 1 69.6808 9.24122 7.41922 5.97977 -13607.5 10575.9 -27155.2 186818 -15263.2 -1604.39 -7.4118 
566 1 72.5208 9.2291 7.41984 5.97584 -17357.5 7731.4 27041.4 185730 24232.1 -1100.42 -7.41538 
567 1 73.9404 9.22938 7.41944 5.97808 -8347.26 6337.2 -27013.7 187136 -15361.1 -540.959 -7.41181 
37 1 75.9789 0.616167 7.41768 5.97088 -12442.3 4217.78 -1854.45 204623 -21405.5 -28.6586 -7.41331 
38 1 78.8194 0.604087 7.41767 5.97065 -12456.6 4087.1 1786.24 204776 22073 1184.3 -7.41355 
39 1 80.239 0.604833 7.4176 5.97097 -11835.7 3838.37 -1764.04 203244 -21369 1325.65 -7.41332 
40 1 83.0795 0.592527 7.41749 5.97094 -11961.3 3587.83 1700.17 203915 22017.2 2588.61 -7.41355 
41 1 84.4991 0.593047 7.41736 5.97147 -11332.7 3226.09 -1674.78 200574 -21274.4 2727.93 -7.41332 
143 1 76.0055 3.07544 7.41785 5.97162 -10977.6 4113.01 -9249.65 202646 -19864.4 -22.722 -7.41284 
144 1 76.7027 1.83938 7.41782 5.97065 -13021.5 4091.83 5538.94 204051 22681.4 508.642 -7.41381 
145 1 78.1223 1.84016 7.41771 5.97104 -11090.5 3768.35 -5515.96 203409 -20651.6 627.584 -7.41307 
146 1 78.8461 3.06336 7.41799 5.97072 -12063.1 3248.47 9191.62 202694 23188.4 1258.84 -7.41406 
147 1 80.2657 3.06406 7.41781 5.97139 -8938.81 2515.89 -9162.46 201190 -19825.1 1250.59 -7.41284 
148 1 80.9629 1.828 7.41773 5.97058 -11784.7 3145.84 5459.83 203788 22654.5 1940.05 -7.41381 
149 1 82.3824 1.82864 7.41757 5.97118 -9872.31 2642.7 -5431.47 201368 -20583.5 1959.9 -7.41308 
150 1 83.1063 3.05175 7.41784 5.97069 -10079.3 1559.77 9127.04 201769 23141.2 2750.5 -7.41406 
151 1 84.5259 3.05222 7.4176 5.97158 -6937.05 675.767 -9088.71 198454 -19717.9 2568.27 -7.41285 
285 1 76.0319 5.53469 7.41832 5.97329 -9134.71 4093.49 -16516.8 198106 -18138.2 -17.0149 -7.4124 
286 1 76.7292 4.29869 7.41828 5.97136 -13082.5 3828.39 12888.4 200641 23615.6 540.193 -7.41433 
287 1 78.1488 4.29938 7.41806 5.9721 -8678.76 3053.62 -12859.9 200118 -19007.6 593.554 -7.41262 
288 1 78.8725 5.52263 7.41861 5.97174 -11304.1 2416.01 16471 197969 23929.4 1333.23 -7.41459 
289 1 80.2921 5.52319 7.41831 5.97275 -5732.36 1255.1 -16432.5 196564 -18096.5 1176.18 -7.4124 
290 1 80.9895 4.28723 7.41822 5.97097 -10419.9 1654.08 12823.5 200315 23592.4 2058.5 -7.41432 
291 1 82.4091 4.28777 7.41795 5.97192 -5986.43 732.554 -12784.6 198002 -18931.7 1844.08 -7.41262 
292 1 83.1329 5.51089 7.41848 5.97139 -7804.59 -448.974 16425.4 196961 23884.9 2915.38 -7.41458 
293 1 84.5525 5.51124 7.41813 5.97263 -2206.91 -1803.83 -16372.5 193738 -17974.8 2409.81 -7.4124 
427 1 76.0577 7.99392 7.41905 5.97584 -6909.84 4126.72 -23555.4 191144 -16306.7 -12.3296 -7.412 
428 1 76.7553 6.75802 7.41901 5.97288 -12754.8 3583.41 20061.3 194755 24150.2 569.381 -7.41485 
429 1 78.1749 6.75855 7.41868 5.97405 -5952.07 2428.92 -20025.4 194251 -17219.6 558.857 -7.4122 
430 1 78.8984 7.98188 7.41947 5.97354 -10125.2 1511.47 23521.9 190839 24248.4 1407.09 -7.41511 
431 1 80.318 7.98225 7.41906 5.97499 -2177.37 62.9644 -23473.8 189522 -16262.8 1100.54 -7.412 
432 1 81.0157 6.74641 7.41898 5.97229 -8685.92 169.285 20008.6 194350 24126.7 2178.08 -7.41485 
433 1 82.4354 6.7468 7.41859 5.97357 -1792.01 -1071.4 -19957.8 192033 -17135.2 1727.85 -7.4122 
434 1 83.159 7.96997 7.41937 5.97301 -5163.62 -2517.04 23491.2 189737 24200.7 3083.36 -7.41511 
435 1 84.5787 7.97011 7.4189 5.97458 2815.2 -4200.78 -23424 186586 -16125.9 2249.49 -7.412 
570 1 76.7809 9.21738 7.41997 5.9749 -12027.3 3358.08 26956.8 186544 24250 596.237 -7.41537 
571 1 78.2006 9.21768 7.41952 5.97685 -2943.45 1926.15 -26913 186128 -15363.5 522.815 -7.41181 
574 1 81.0414 9.20556 7.41996 5.97441 -6590.04 -1268.91 26913.4 186063 24222.5 2299.27 -7.41538 
575 1 82.4611 9.20571 7.41946 5.97608 2627.52 -2729.34 -26851 183798 -15270.4 1609.38 -7.41181 
42 1 87.3397 0.580263 7.41712 5.97167 -11230.7 2953.52 1614.16 201756 21903.3 4050.33 -7.41354 
43 1 88.7593 0.580389 7.41693 5.97243 -10637.4 2412.93 -1584.17 196497 -21109.3 4213.26 -7.41332 
44 1 91.5998 0.566862 7.41653 5.97288 -10614.7 1960.18 1523.98 198241 21715.9 5601.34 -7.41354 
45 1 93.0194 0.566419 7.41624 5.97373 -9878.74 1533.66 -1489.04 190927 -20852.7 5810.86 -7.41332 
152 1 85.2231 1.81612 7.41748 5.97092 -10376 1945.19 5387.64 202264 22577.8 3413.53 -7.4138 
153 1 86.6427 1.81645 7.41726 5.97174 -8408.88 1360.58 -5351.8 197977 -20447.2 3355.64 -7.41308 
154 1 87.3668 3.03942 7.41751 5.97109 -7853.94 -302.628 9072 199549 23042.4 4306.11 -7.41406 
155 1 88.7864 3.0395 7.41719 5.97222 -4712.83 -1366.94 -9021.55 194315 -19529.7 3961.4 -7.41285 
156 1 89.4834 1.80332 7.41702 5.97173 -9087.57 559.72 5317.26 199397 22440.4 4965.35 -7.4138 
157 1 90.903 1.80317 7.41672 5.97278 -7183.92 -284.739 -5272.48 193144 -20226 4845.17 -7.41308 
158 1 91.6273 3.02596 7.41694 5.97197 -5785.96 -2538.23 9014.88 195959 22877.5 5960.59 -7.41406 
159 1 93.047 3.02547 7.41653 5.97334 -2459.8 -3561.22 -8948.77 188648 -19238.6 5455.2 -7.41284 
160 1 93.7438 1.78916 7.41629 5.97302 -7306.21 -938.247 5240.45 195109 22222.6 6624.59 -7.41379 
294 1 85.2499 4.27526 7.41799 5.97099 -7554.29 -756.098 12777.1 198714 23523.5 3623.52 -7.41432 