(written by TR)

30248	atoms
1	atom types
0	151.234989	xlo xhi
0	261.946685	ylo yhi
0	18.3999996	zlo zhi


Masses

1	12

Atoms

1 1 1 0 0.00000000 0.00000000 7.50000000 0 0 0
2 1 1 0 2.13992935 1.21239541 7.50000000 0 0 0
3 1 1 0 3.55988230 1.20084878 7.50000000 0 0 0
4 1 1 0 6.39978871 1.17775553 7.50000000 0 0 0
5 1 1 0 7.81974167 1.16620891 7.50000000 0 0 0
6 1 1 0 10.65964807 1.14311566 7.50000000 0 0 0
7 1 1 0 12.07960103 1.13156904 7.50000000 0 0 0
8 1 1 0 14.91950744 1.10847579 7.50000000 0 0 0
9 1 1 0 16.33946039 1.09692917 7.50000000 0 0 0
10 1 1 0 19.17936680 1.07383592 7.50000000 0 0 0
11 1 1 0 20.59931975 1.06228929 7.50000000 0 0 0
12 1 1 0 23.43922616 1.03919604 7.50000000 0 0 0
13 1 1 0 24.85917911 1.02764942 7.50000000 0 0 0
14 1 1 0 27.69908552 1.00455617 7.50000000 0 0 0
15 1 1 0 29.11903848 0.99300955 7.50000000 0 0 0
16 1 1 0 31.95894488 0.96991630 7.50000000 0 0 0
17 1 1 0 33.37889784 0.95836967 7.50000000 0 0 0
18 1 1 0 36.21880425 0.93527642 7.50000000 0 0 0
19 1 1 0 37.63875720 0.92372980 7.50000000 0 0 0
20 1 1 0 40.47866361 0.90063655 7.50000000 0 0 0
21 1 1 0 41.89861656 0.88908993 7.50000000 0 0 0
22 1 1 0 44.73852297 0.86599668 7.50000000 0 0 0
23 1 1 0 46.15847592 0.85445005 7.50000000 0 0 0
24 1 1 0 48.99838233 0.83135680 7.50000000 0 0 0
25 1 1 0 50.41833528 0.81981018 7.50000000 0 0 0
26 1 1 0 53.25824169 0.79671693 7.50000000 0 0 0
27 1 1 0 54.67819465 0.78517031 7.50000000 0 0 0
28 1 1 0 57.51810105 0.76207706 7.50000000 0 0 0
29 1 1 0 58.93805401 0.75053044 7.50000000 0 0 0
30 1 1 0 61.77796042 0.72743719 7.50000000 0 0 0
31 1 1 0 63.19791337 0.71589056 7.50000000 0 0 0
32 1 1 0 66.03781978 0.69279731 7.50000000 0 0 0
33 1 1 0 67.45777273 0.68125069 7.50000000 0 0 0
34 1 1 0 70.29767914 0.65815744 7.50000000 0 0 0
35 1 1 0 71.71763209 0.64661082 7.50000000 0 0 0
36 1 1 0 74.55753850 0.62351757 7.50000000 0 0 0
37 1 1 0 75.97749146 0.61197094 7.50000000 0 0 0
38 1 1 0 78.81739786 0.58887769 7.50000000 0 0 0
39 1 1 0 80.23735082 0.57733107 7.50000000 0 0 0
40 1 1 0 83.07725723 0.55423782 7.50000000 0 0 0
41 1 1 0 84.49721018 0.54269120 7.50000000 0 0 0
42 1 1 0 87.33711659 0.51959795 7.50000000 0 0 0
43 1 1 0 88.75706954 0.50805132 7.50000000 0 0 0
44 1 1 0 91.59697595 0.48495807 7.50000000 0 0 0
45 1 1 0 93.01692890 0.47341145 7.50000000 0 0 0
46 1 1 0 95.85683531 0.45031820 7.50000000 0 0 0
47 1 1 0 97.27678827 0.43877158 7.50000000 0 0 0
48 1 1 0 100.11669467 0.41567833 7.50000000 0 0 0
49 1 1 0 101.53664763 0.40413171 7.50000000 0 0 0
50 1 1 0 104.37655404 0.38103846 7.50000000 0 0 0
51 1 1 0 105.79650699 0.36949183 7.50000000 0 0 0
52 1 1 0 108.63641340 0.34639858 7.50000000 0 0 0
53 1 1 0 110.05636635 0.33485196 7.50000000 0 0 0
54 1 1 0 112.89627276 0.31175871 7.50000000 0 0 0
55 1 1 0 114.31622571 0.30021209 7.50000000 0 0 0
56 1 1 0 117.15613212 0.27711884 7.50000000 0 0 0
57 1 1 0 118.57608508 0.26557221 7.50000000 0 0 0
58 1 1 0 121.41599148 0.24247896 7.50000000 0 0 0
59 1 1 0 122.83594444 0.23093234 7.50000000 0 0 0
60 1 1 0 125.67585085 0.20783909 7.50000000 0 0 0
61 1 1 0 127.09580380 0.19629247 7.50000000 0 0 0
62 1 1 0 129.93571021 0.17319922 7.50000000 0 0 0
63 1 1 0 131.35566316 0.16165259 7.50000000 0 0 0
64 1 1 0 134.19556957 0.13855934 7.50000000 0 0 0
65 1 1 0 135.61552252 0.12701272 7.50000000 0 0 0
66 1 1 0 138.45542893 0.10391947 7.50000000 0 0 0
67 1 1 0 139.87538188 0.09237285 7.50000000 0 0 0
68 1 1 0 142.71528829 0.06927960 7.50000000 0 0 0
69 1 1 0 144.13524125 0.05773298 7.50000000 0 0 0
70 1 1 0 146.97514765 0.03463973 7.50000000 0 0 0
71 1 1 0 148.39510061 0.02309310 7.50000000 0 0 0
72 1 1 0 0.01999934 2.45943069 7.50000000 0 0 0
73 1 1 0 1.43995239 2.44788406 7.50000000 0 0 0
74 1 1 0 2.15992869 3.67182609 7.50000000 0 0 0
75 1 1 0 3.57988164 3.66027947 7.50000000 0 0 0
76 1 1 0 4.27985870 2.42479081 7.50000000 0 0 0
77 1 1 0 5.69981175 2.41324419 7.50000000 0 0 0
78 1 1 0 6.41978805 3.63718622 7.50000000 0 0 0
79 1 1 0 7.83974100 3.62563960 7.50000000 0 0 0
80 1 1 0 8.53971806 2.39015094 7.50000000 0 0 0
81 1 1 0 9.95967112 2.37860432 7.50000000 0 0 0
82 1 1 0 10.67964741 3.60254635 7.50000000 0 0 0
83 1 1 0 12.09960037 3.59099973 7.50000000 0 0 0
84 1 1 0 12.79957742 2.35551107 7.50000000 0 0 0
85 1 1 0 14.21953048 2.34396444 7.50000000 0 0 0
86 1 1 0 14.93950677 3.56790648 7.50000000 0 0 0
87 1 1 0 16.35945973 3.55635985 7.50000000 0 0 0
88 1 1 0 17.05943679 2.32087120 7.50000000 0 0 0
89 1 1 0 18.47938984 2.30932457 7.50000000 0 0 0
90 1 1 0 19.19936614 3.53326660 7.50000000 0 0 0
91 1 1 0 20.61931909 3.52171998 7.50000000 0 0 0
92 1 1 0 21.31929615 2.28623132 7.50000000 0 0 0
93 1 1 0 22.73924920 2.27468470 7.50000000 0 0 0
94 1 1 0 23.45922550 3.49862673 7.50000000 0 0 0
95 1 1 0 24.87917845 3.48708011 7.50000000 0 0 0
96 1 1 0 25.57915551 2.25159145 7.50000000 0 0 0
97 1 1 0 26.99910856 2.24004483 7.50000000 0 0 0
98 1 1 0 27.71908486 3.46398686 7.50000000 0 0 0
99 1 1 0 29.13903781 3.45244023 7.50000000 0 0 0
100 1 1 0 29.83901487 2.21695158 7.50000000 0 0 0
101 1 1 0 31.25896793 2.20540495 7.50000000 0 0 0
102 1 1 0 31.97894422 3.42934698 7.50000000 0 0 0
103 1 1 0 33.39889718 3.41780036 7.50000000 0 0 0
104 1 1 0 34.09887423 2.18231170 7.50000000 0 0 0
105 1 1 0 35.51882729 2.17076508 7.50000000 0 0 0
106 1 1 0 36.23880358 3.39470711 7.50000000 0 0 0
107 1 1 0 37.65875654 3.38316049 7.50000000 0 0 0
108 1 1 0 38.35873360 2.14767183 7.50000000 0 0 0
109 1 1 0 39.77868665 2.13612521 7.50000000 0 0 0
110 1 1 0 40.49866294 3.36006724 7.50000000 0 0 0
111 1 1 0 41.91861590 3.34852061 7.50000000 0 0 0
112 1 1 0 42.61859296 2.11303196 7.50000000 0 0 0
113 1 1 0 44.03854601 2.10148533 7.50000000 0 0 0
114 1 1 0 44.75852231 3.32542736 7.50000000 0 0 0
115 1 1 0 46.17847526 3.31388074 7.50000000 0 0 0
116 1 1 0 46.87845232 2.07839208 7.50000000 0 0 0
117 1 1 0 48.29840537 2.06684546 7.50000000 0 0 0
118 1 1 0 49.01838167 3.29078749 7.50000000 0 0 0
119 1 1 0 50.43833462 3.27924087 7.50000000 0 0 0
120 1 1 0 51.13831168 2.04375221 7.50000000 0 0 0
121 1 1 0 52.55826473 2.03220559 7.50000000 0 0 0
122 1 1 0 53.27824103 3.25614762 7.50000000 0 0 0
123 1 1 0 54.69819398 3.24460100 7.50000000 0 0 0
124 1 1 0 55.39817104 2.00911234 7.50000000 0 0 0
125 1 1 0 56.81812410 1.99756571 7.50000000 0 0 0
126 1 1 0 57.53810039 3.22150775 7.50000000 0 0 0
127 1 1 0 58.95805335 3.20996112 7.50000000 0 0 0
128 1 1 0 59.65803040 1.97447247 7.50000000 0 0 0
129 1 1 0 61.07798346 1.96292584 7.50000000 0 0 0
130 1 1 0 61.79795975 3.18686787 7.50000000 0 0 0
131 1 1 0 63.21791271 3.17532125 7.50000000 0 0 0
132 1 1 0 63.91788977 1.93983259 7.50000000 0 0 0
133 1 1 0 65.33784282 1.92828597 7.50000000 0 0 0
134 1 1 0 66.05781912 3.15222800 7.50000000 0 0 0
135 1 1 0 67.47777207 3.14068138 7.50000000 0 0 0
136 1 1 0 68.17774913 1.90519272 7.50000000 0 0 0
137 1 1 0 69.59770218 1.89364610 7.50000000 0 0 0
138 1 1 0 70.31767848 3.11758813 7.50000000 0 0 0
139 1 1 0 71.73763143 3.10604150 7.50000000 0 0 0
140 1 1 0 72.43760849 1.87055285 7.50000000 0 0 0
141 1 1 0 73.85756154 1.85900622 7.50000000 0 0 0
142 1 1 0 74.57753784 3.08294825 7.50000000 0 0 0
143 1 1 0 75.99749079 3.07140163 7.50000000 0 0 0
144 1 1 0 76.69746785 1.83591297 7.50000000 0 0 0
145 1 1 0 78.11742091 1.82436635 7.50000000 0 0 0
146 1 1 0 78.83739720 3.04830838 7.50000000 0 0 0
147 1 1 0 80.25735016 3.03676176 7.50000000 0 0 0
148 1 1 0 80.95732721 1.80127310 7.50000000 0 0 0
149 1 1 0 82.37728027 1.78972648 7.50000000 0 0 0
150 1 1 0 83.09725656 3.01366851 7.50000000 0 0 0
151 1 1 0 84.51720952 3.00212188 7.50000000 0 0 0
152 1 1 0 85.21718658 1.76663323 7.50000000 0 0 0
153 1 1 0 86.63713963 1.75508660 7.50000000 0 0 0
154 1 1 0 87.35711593 2.97902863 7.50000000 0 0 0
155 1 1 0 88.77706888 2.96748201 7.50000000 0 0 0
156 1 1 0 89.47704594 1.73199335 7.50000000 0 0 0
157 1 1 0 90.89699899 1.72044673 7.50000000 0 0 0
158 1 1 0 91.61697529 2.94438876 7.50000000 0 0 0
159 1 1 0 93.03692824 2.93284214 7.50000000 0 0 0
160 1 1 0 93.73690530 1.69735348 7.50000000 0 0 0
161 1 1 0 95.15685835 1.68580686 7.50000000 0 0 0
162 1 1 0 95.87683465 2.90974889 7.50000000 0 0 0
163 1 1 0 97.29678760 2.89820227 7.50000000 0 0 0
164 1 1 0 97.99676466 1.66271361 7.50000000 0 0 0
165 1 1 0 99.41671772 1.65116698 7.50000000 0 0 0
166 1 1 0 100.13669401 2.87510902 7.50000000 0 0 0
167 1 1 0 101.55664697 2.86356239 7.50000000 0 0 0
168 1 1 0 102.25662402 1.62807374 7.50000000 0 0 0
169 1 1 0 103.67657708 1.61652711 7.50000000 0 0 0
170 1 1 0 104.39655337 2.84046914 7.50000000 0 0 0
171 1 1 0 105.81650633 2.82892252 7.50000000 0 0 0
172 1 1 0 106.51648339 1.59343386 7.50000000 0 0 0
173 1 1 0 107.93643644 1.58188724 7.50000000 0 0 0
174 1 1 0 108.65641274 2.80582927 7.50000000 0 0 0
175 1 1 0 110.07636569 2.79428265 7.50000000 0 0 0
176 1 1 0 110.77634275 1.55879399 7.50000000 0 0 0
177 1 1 0 112.19629580 1.54724737 7.50000000 0 0 0
178 1 1 0 112.91627210 2.77118940 7.50000000 0 0 0
179 1 1 0 114.33622505 2.75964277 7.50000000 0 0 0
180 1 1 0 115.03620211 1.52415412 7.50000000 0 0 0
181 1 1 0 116.45615516 1.51260749 7.50000000 0 0 0
182 1 1 0 117.17613146 2.73654952 7.50000000 0 0 0
183 1 1 0 118.59608441 2.72500290 7.50000000 0 0 0
184 1 1 0 119.29606147 1.48951424 7.50000000 0 0 0
185 1 1 0 120.71601453 1.47796762 7.50000000 0 0 0
186 1 1 0 121.43599082 2.70190965 7.50000000 0 0 0
187 1 1 0 122.85594378 2.69036303 7.50000000 0 0 0
188 1 1 0 123.55592083 1.45487437 7.50000000 0 0 0
189 1 1 0 124.97587389 1.44332775 7.50000000 0 0 0
190 1 1 0 125.69585018 2.66726978 7.50000000 0 0 0
191 1 1 0 127.11580314 2.65572315 7.50000000 0 0 0
192 1 1 0 127.81578019 1.42023450 7.50000000 0 0 0
193 1 1 0 129.23573325 1.40868787 7.50000000 0 0 0
194 1 1 0 129.95570954 2.63262990 7.50000000 0 0 0
195 1 1 0 131.37566250 2.62108328 7.50000000 0 0 0
196 1 1 0 132.07563956 1.38559462 7.50000000 0 0 0
197 1 1 0 133.49559261 1.37404800 7.50000000 0 0 0
198 1 1 0 134.21556891 2.59799003 7.50000000 0 0 0
199 1 1 0 135.63552186 2.58644341 7.50000000 0 0 0
200 1 1 0 136.33549892 1.35095475 7.50000000 0 0 0
201 1 1 0 137.75545197 1.33940813 7.50000000 0 0 0
202 1 1 0 138.47542827 2.56335016 7.50000000 0 0 0
203 1 1 0 139.89538122 2.55180354 7.50000000 0 0 0
204 1 1 0 140.59535828 1.31631488 7.50000000 0 0 0
205 1 1 0 142.01531133 1.30476825 7.50000000 0 0 0
206 1 1 0 142.73528763 2.52871029 7.50000000 0 0 0
207 1 1 0 144.15524058 2.51716366 7.50000000 0 0 0
208 1 1 0 144.85521764 1.28167501 7.50000000 0 0 0
209 1 1 0 146.27517070 1.27012838 7.50000000 0 0 0
210 1 1 0 146.99514699 2.49407041 7.50000000 0 0 0
211 1 1 0 148.41509995 2.48252379 7.50000000 0 0 0
212 1 1 0 149.11507700 1.24703513 7.50000000 0 0 0
213 1 1 0 150.53503006 1.23548851 7.50000000 0 0 0
214 1 1 0 0.03999868 4.91886137 7.50000000 0 0 0
215 1 1 0 1.45995173 4.90731475 7.50000000 0 0 0
216 1 1 0 2.17992803 6.13125678 7.50000000 0 0 0
217 1 1 0 3.59988098 6.11971016 7.50000000 0 0 0
218 1 1 0 4.29985804 4.88422150 7.50000000 0 0 0
219 1 1 0 5.71981109 4.87267488 7.50000000 0 0 0
220 1 1 0 6.43978739 6.09661691 7.50000000 0 0 0
221 1 1 0 7.85974034 6.08507029 7.50000000 0 0 0
222 1 1 0 8.55971740 4.84958163 7.50000000 0 0 0
223 1 1 0 9.97967045 4.83803500 7.50000000 0 0 0
224 1 1 0 10.69964675 6.06197704 7.50000000 0 0 0
225 1 1 0 12.11959970 6.05043041 7.50000000 0 0 0
226 1 1 0 12.81957676 4.81494176 7.50000000 0 0 0
227 1 1 0 14.23952982 4.80339513 7.50000000 0 0 0
228 1 1 0 14.95950611 6.02733716 7.50000000 0 0 0
229 1 1 0 16.37945907 6.01579054 7.50000000 0 0 0
230 1 1 0 17.07943612 4.78030188 7.50000000 0 0 0
231 1 1 0 18.49938918 4.76875526 7.50000000 0 0 0
232 1 1 0 19.21936547 5.99269729 7.50000000 0 0 0
233 1 1 0 20.63931843 5.98115067 7.50000000 0 0 0
234 1 1 0 21.33929549 4.74566201 7.50000000 0 0 0
235 1 1 0 22.75924854 4.73411539 7.50000000 0 0 0
236 1 1 0 23.47922484 5.95805742 7.50000000 0 0 0
237 1 1 0 24.89917779 5.94651079 7.50000000 0 0 0
238 1 1 0 25.59915485 4.71102214 7.50000000 0 0 0
239 1 1 0 27.01910790 4.69947551 7.50000000 0 0 0
240 1 1 0 27.73908420 5.92341754 7.50000000 0 0 0
241 1 1 0 29.15903715 5.91187092 7.50000000 0 0 0
242 1 1 0 29.85901421 4.67638226 7.50000000 0 0 0
243 1 1 0 31.27896726 4.66483564 7.50000000 0 0 0
244 1 1 0 31.99894356 5.88877767 7.50000000 0 0 0
245 1 1 0 33.41889651 5.87723105 7.50000000 0 0 0
246 1 1 0 34.11887357 4.64174239 7.50000000 0 0 0
247 1 1 0 35.53882662 4.63019577 7.50000000 0 0 0
248 1 1 0 36.25880292 5.85413780 7.50000000 0 0 0
249 1 1 0 37.67875587 5.84259117 7.50000000 0 0 0
250 1 1 0 38.37873293 4.60710252 7.50000000 0 0 0
251 1 1 0 39.79868599 4.59555589 7.50000000 0 0 0
252 1 1 0 40.51866228 5.81949792 7.50000000 0 0 0
253 1 1 0 41.93861524 5.80795130 7.50000000 0 0 0
254 1 1 0 42.63859229 4.57246264 7.50000000 0 0 0
255 1 1 0 44.05854535 4.56091602 7.50000000 0 0 0
256 1 1 0 44.77852164 5.78485805 7.50000000 0 0 0
257 1 1 0 46.19847460 5.77331143 7.50000000 0 0 0
258 1 1 0 46.89845166 4.53782277 7.50000000 0 0 0
259 1 1 0 48.31840471 4.52627615 7.50000000 0 0 0
260 1 1 0 49.03838101 5.75021818 7.50000000 0 0 0
261 1 1 0 50.45833396 5.73867156 7.50000000 0 0 0
262 1 1 0 51.15831102 4.50318290 7.50000000 0 0 0
263 1 1 0 52.57826407 4.49163627 7.50000000 0 0 0
264 1 1 0 53.29824037 5.71557831 7.50000000 0 0 0
265 1 1 0 54.71819332 5.70403168 7.50000000 0 0 0
266 1 1 0 55.41817038 4.46854303 7.50000000 0 0 0
267 1 1 0 56.83812343 4.45699640 7.50000000 0 0 0
268 1 1 0 57.55809973 5.68093843 7.50000000 0 0 0
269 1 1 0 58.97805268 5.66939181 7.50000000 0 0 0
270 1 1 0 59.67802974 4.43390315 7.50000000 0 0 0
271 1 1 0 61.09798280 4.42235653 7.50000000 0 0 0
272 1 1 0 61.81795909 5.64629856 7.50000000 0 0 0
273 1 1 0 63.23791205 5.63475194 7.50000000 0 0 0
274 1 1 0 63.93788910 4.39926328 7.50000000 0 0 0
275 1 1 0 65.35784216 4.38771666 7.50000000 0 0 0
276 1 1 0 66.07781845 5.61165869 7.50000000 0 0 0
277 1 1 0 67.49777141 5.60011206 7.50000000 0 0 0
278 1 1 0 68.19774847 4.36462341 7.50000000 0 0 0
279 1 1 0 69.61770152 4.35307678 7.50000000 0 0 0
280 1 1 0 70.33767782 5.57701881 7.50000000 0 0 0
281 1 1 0 71.75763077 5.56547219 7.50000000 0 0 0
282 1 1 0 72.45760783 4.32998353 7.50000000 0 0 0
283 1 1 0 73.87756088 4.31843691 7.50000000 0 0 0
284 1 1 0 74.59753718 5.54237894 7.50000000 0 0 0
285 1 1 0 76.01749013 5.53083232 7.50000000 0 0 0
286 1 1 0 76.71746719 4.29534366 7.50000000 0 0 0
287 1 1 0 78.13742024 4.28379704 7.50000000 0 0 0
288 1 1 0 78.85739654 5.50773907 7.50000000 0 0 0
289 1 1 0 80.27734949 5.49619244 7.50000000 0 0 0
290 1 1 0 80.97732655 4.26070379 7.50000000 0 0 0
291 1 1 0 82.39727961 4.24915716 7.50000000 0 0 0
292 1 1 0 83.11725590 5.47309919 7.50000000 0 0 0
293 1 1 0 84.53720886 5.46155257 7.50000000 0 0 0
294 1 1 0 85.23718591 4.22606391 7.50000000 0 0 0
295 1 1 0 86.65713897 4.21451729 7.50000000 0 0 0
296 1 1 0 87.37711526 5.43845932 7.50000000 0 0 0
297 1 1 0 88.79706822 5.42691270 7.50000000 0 0 0
298 1 1 0 89.49704528 4.19142404 7.50000000 0 0 0
299 1 1 0 90.91699833 4.17987742 7.50000000 0 0 0
300 1 1 0 91.63697463 5.40381945 7.50000000 0 0 0
301 1 1 0 93.05692758 5.39227283 7.50000000 0 0 0
302 1 1 0 93.75690464 4.15678417 7.50000000 0 0 0
303 1 1 0 95.17685769 4.14523754 7.50000000 0 0 0
304 1 1 0 95.89683399 5.36917958 7.50000000 0 0 0
305 1 1 0 97.31678694 5.35763295 7.50000000 0 0 0
306 1 1 0 98.01676400 4.12214430 7.50000000 0 0 0
307 1 1 0 99.43671705 4.11059767 7.50000000 0 0 0
308 1 1 0 100.15669335 5.33453970 7.50000000 0 0 0
309 1 1 0 101.57664630 5.32299308 7.50000000 0 0 0
310 1 1 0 102.27662336 4.08750442 7.50000000 0 0 0
311 1 1 0 103.69657642 4.07595780 7.50000000 0 0 0
312 1 1 0 104.41655271 5.29989983 7.50000000 0 0 0
313 1 1 0 105.83650567 5.28835321 7.50000000 0 0 0
314 1 1 0 106.53648272 4.05286455 7.50000000 0 0 0
315 1 1 0 107.95643578 4.04131793 7.50000000 0 0 0
316 1 1 0 108.67641207 5.26525996 7.50000000 0 0 0
317 1 1 0 110.09636503 5.25371333 7.50000000 0 0 0
318 1 1 0 110.79634209 4.01822468 7.50000000 0 0 0
319 1 1 0 112.21629514 4.00667805 7.50000000 0 0 0
320 1 1 0 112.93627144 5.23062008 7.50000000 0 0 0
321 1 1 0 114.35622439 5.21907346 7.50000000 0 0 0
322 1 1 0 115.05620145 3.98358480 7.50000000 0 0 0
323 1 1 0 116.47615450 3.97203818 7.50000000 0 0 0
324 1 1 0 117.19613080 5.19598021 7.50000000 0 0 0
325 1 1 0 118.61608375 5.18443359 7.50000000 0 0 0
326 1 1 0 119.31606081 3.94894493 7.50000000 0 0 0
327 1 1 0 120.73601386 3.93739831 7.50000000 0 0 0
328 1 1 0 121.45599016 5.16134034 7.50000000 0 0 0
329 1 1 0 122.87594311 5.14979371 7.50000000 0 0 0
330 1 1 0 123.57592017 3.91430506 7.50000000 0 0 0
331 1 1 0 124.99587322 3.90275843 7.50000000 0 0 0
332 1 1 0 125.71584952 5.12670046 7.50000000 0 0 0
333 1 1 0 127.13580247 5.11515384 7.50000000 0 0 0
334 1 1 0 127.83577953 3.87966518 7.50000000 0 0 0
335 1 1 0 129.25573259 3.86811856 7.50000000 0 0 0
336 1 1 0 129.97570888 5.09206059 7.50000000 0 0 0
337 1 1 0 131.39566184 5.08051397 7.50000000 0 0 0
338 1 1 0 132.09563889 3.84502531 7.50000000 0 0 0
339 1 1 0 133.51559195 3.83347869 7.50000000 0 0 0
340 1 1 0 134.23556824 5.05742072 7.50000000 0 0 0
341 1 1 0 135.65552120 5.04587410 7.50000000 0 0 0
342 1 1 0 136.35549826 3.81038544 7.50000000 0 0 0
343 1 1 0 137.77545131 3.79883881 7.50000000 0 0 0
344 1 1 0 138.49542761 5.02278085 7.50000000 0 0 0
345 1 1 0 139.91538056 5.01123422 7.50000000 0 0 0
346 1 1 0 140.61535762 3.77574557 7.50000000 0 0 0
347 1 1 0 142.03531067 3.76419894 7.50000000 0 0 0
348 1 1 0 142.75528697 4.98814097 7.50000000 0 0 0
349 1 1 0 144.17523992 4.97659435 7.50000000 0 0 0
350 1 1 0 144.87521698 3.74110569 7.50000000 0 0 0
351 1 1 0 146.29517003 3.72955907 7.50000000 0 0 0
352 1 1 0 147.01514633 4.95350110 7.50000000 0 0 0
353 1 1 0 148.43509928 4.94195448 7.50000000 0 0 0
354 1 1 0 149.13507634 3.70646582 7.50000000 0 0 0
355 1 1 0 150.55502940 3.69491920 7.50000000 0 0 0
356 1 1 0 0.05999801 7.37829206 7.50000000 0 0 0
357 1 1 0 1.47995107 7.36674544 7.50000000 0 0 0
358 1 1 0 2.19992736 8.59068747 7.50000000 0 0 0
359 1 1 0 3.61988032 8.57914085 7.50000000 0 0 0
360 1 1 0 4.31985738 7.34365219 7.50000000 0 0 0
361 1 1 0 5.73981043 7.33210556 7.50000000 0 0 0
362 1 1 0 6.45978673 8.55604760 7.50000000 0 0 0
363 1 1 0 7.87973968 8.54450097 7.50000000 0 0 0
364 1 1 0 8.57971674 7.30901232 7.50000000 0 0 0
365 1 1 0 9.99966979 7.29746569 7.50000000 0 0 0
366 1 1 0 10.71964609 8.52140772 7.50000000 0 0 0
367 1 1 0 12.13959904 8.50986110 7.50000000 0 0 0
368 1 1 0 12.83957610 7.27437244 7.50000000 0 0 0
369 1 1 0 14.25952915 7.26282582 7.50000000 0 0 0
370 1 1 0 14.97950545 8.48676785 7.50000000 0 0 0
371 1 1 0 16.39945840 8.47522123 7.50000000 0 0 0
372 1 1 0 17.09943546 7.23973257 7.50000000 0 0 0
373 1 1 0 18.51938852 7.22818595 7.50000000 0 0 0
374 1 1 0 19.23936481 8.45212798 7.50000000 0 0 0
375 1 1 0 20.65931777 8.44058135 7.50000000 0 0 0
376 1 1 0 21.35929482 7.20509270 7.50000000 0 0 0
377 1 1 0 22.77924788 7.19354607 7.50000000 0 0 0
378 1 1 0 23.49922417 8.41748810 7.50000000 0 0 0
379 1 1 0 24.91917713 8.40594148 7.50000000 0 0 0
380 1 1 0 25.61915419 7.17045282 7.50000000 0 0 0
381 1 1 0 27.03910724 7.15890620 7.50000000 0 0 0
382 1 1 0 27.75908353 8.38284823 7.50000000 0 0 0
383 1 1 0 29.17903649 8.37130161 7.50000000 0 0 0
384 1 1 0 29.87901355 7.13581295 7.50000000 0 0 0
385 1 1 0 31.29896660 7.12426633 7.50000000 0 0 0
386 1 1 0 32.01894290 8.34820836 7.50000000 0 0 0
387 1 1 0 33.43889585 8.33666173 7.50000000 0 0 0
388 1 1 0 34.13887291 7.10117308 7.50000000 0 0 0
389 1 1 0 35.55882596 7.08962645 7.50000000 0 0 0
390 1 1 0 36.27880226 8.31356848 7.50000000 0 0 0
391 1 1 0 37.69875521 8.30202186 7.50000000 0 0 0
392 1 1 0 38.39873227 7.06653320 7.50000000 0 0 0
393 1 1 0 39.81868532 7.05498658 7.50000000 0 0 0
394 1 1 0 40.53866162 8.27892861 7.50000000 0 0 0
395 1 1 0 41.95861457 8.26738199 7.50000000 0 0 0
396 1 1 0 42.65859163 7.03189333 7.50000000 0 0 0
397 1 1 0 44.07854469 7.02034671 7.50000000 0 0 0
398 1 1 0 44.79852098 8.24428874 7.50000000 0 0 0
399 1 1 0 46.21847394 8.23274212 7.50000000 0 0 0
400 1 1 0 46.91845099 6.99725346 7.50000000 0 0 0
401 1 1 0 48.33840405 6.98570683 7.50000000 0 0 0
402 1 1 0 49.05838034 8.20964887 7.50000000 0 0 0
403 1 1 0 50.47833330 8.19810224 7.50000000 0 0 0
404 1 1 0 51.17831036 6.96261359 7.50000000 0 0 0
405 1 1 0 52.59826341 6.95106696 7.50000000 0 0 0
406 1 1 0 53.31823971 8.17500899 7.50000000 0 0 0
407 1 1 0 54.73819266 8.16346237 7.50000000 0 0 0
408 1 1 0 55.43816972 6.92797371 7.50000000 0 0 0
409 1 1 0 56.85812277 6.91642709 7.50000000 0 0 0
410 1 1 0 57.57809907 8.14036912 7.50000000 0 0 0
411 1 1 0 58.99805202 8.12882250 7.50000000 0 0 0
412 1 1 0 59.69802908 6.89333384 7.50000000 0 0 0
413 1 1 0 61.11798213 6.88178722 7.50000000 0 0 0
414 1 1 0 61.83795843 8.10572925 7.50000000 0 0 0
415 1 1 0 63.25791138 8.09418262 7.50000000 0 0 0
416 1 1 0 63.95788844 6.85869397 7.50000000 0 0 0
417 1 1 0 65.37784150 6.84714734 7.50000000 0 0 0
418 1 1 0 66.09781779 8.07108937 7.50000000 0 0 0
419 1 1 0 67.51777075 8.05954275 7.50000000 0 0 0
420 1 1 0 68.21774780 6.82405409 7.50000000 0 0 0
421 1 1 0 69.63770086 6.81250747 7.50000000 0 0 0
422 1 1 0 70.35767715 8.03644950 7.50000000 0 0 0
423 1 1 0 71.77763011 8.02490288 7.50000000 0 0 0
424 1 1 0 72.47760717 6.78941422 7.50000000 0 0 0
425 1 1 0 73.89756022 6.77786760 7.50000000 0 0 0
426 1 1 0 74.61753652 8.00180963 7.50000000 0 0 0
427 1 1 0 76.03748947 7.99026300 7.50000000 0 0 0
428 1 1 0 76.73746653 6.75477435 7.50000000 0 0 0
429 1 1 0 78.15741958 6.74322772 7.50000000 0 0 0
430 1 1 0 78.87739588 7.96716975 7.50000000 0 0 0
431 1 1 0 80.29734883 7.95562313 7.50000000 0 0 0
432 1 1 0 80.99732589 6.72013447 7.50000000 0 0 0
433 1 1 0 82.41727894 6.70858785 7.50000000 0 0 0
434 1 1 0 83.13725524 7.93252988 7.50000000 0 0 0
435 1 1 0 84.55720819 7.92098326 7.50000000 0 0 0
436 1 1 0 85.25718525 6.68549460 7.50000000 0 0 0
437 1 1 0 86.67713831 6.67394798 7.50000000 0 0 0
438 1 1 0 87.39711460 7.89789001 7.50000000 0 0 0
439 1 1 0 88.81706756 7.88634339 7.50000000 0 0 0
440 1 1 0 89.51704461 6.65085473 7.50000000 0 0 0
441 1 1 0 90.93699767 6.63930810 7.50000000 0 0 0
442 1 1 0 91.65697396 7.86325014 7.50000000 0 0 0
443 1 1 0 93.07692692 7.85170351 7.50000000 0 0 0
444 1 1 0 93.77690398 6.61621486 7.50000000 0 0 0
445 1 1 0 95.19685703 6.60466823 7.50000000 0 0 0
446 1 1 0 95.91683333 7.82861026 7.50000000 0 0 0
447 1 1 0 97.33678628 7.81706364 7.50000000 0 0 0
448 1 1 0 98.03676334 6.58157498 7.50000000 0 0 0
449 1 1 0 99.45671639 6.57002836 7.50000000 0 0 0
450 1 1 0 100.17669269 7.79397039 7.50000000 0 0 0
451 1 1 0 101.59664564 7.78242377 7.50000000 0 0 0
452 1 1 0 102.29662270 6.54693511 7.50000000 0 0 0
453 1 1 0 103.71657575 6.53538849 7.50000000 0 0 0
454 1 1 0 104.43655205 7.75933052 7.50000000 0 0 0
455 1 1 0 105.85650500 7.74778389 7.50000000 0 0 0
456 1 1 0 106.55648206 6.51229524 7.50000000 0 0 0
457 1 1 0 107.97643512 6.50074861 7.50000000 0 0 0
458 1 1 0 108.69641141 7.72469064 7.50000000 0 0 0
459 1 1 0 110.11636437 7.71314402 7.50000000 0 0 0
460 1 1 0 110.81634142 6.47765536 7.50000000 0 0 0
461 1 1 0 112.23629448 6.46610874 7.50000000 0 0 0
462 1 1 0 112.95627077 7.69005077 7.50000000 0 0 0
463 1 1 0 114.37622373 7.67850415 7.50000000 0 0 0
464 1 1 0 115.07620079 6.44301549 7.50000000 0 0 0
465 1 1 0 116.49615384 6.43146887 7.50000000 0 0 0
466 1 1 0 117.21613013 7.65541090 7.50000000 0 0 0
467 1 1 0 118.63608309 7.64386427 7.50000000 0 0 0
468 1 1 0 119.33606015 6.40837562 7.50000000 0 0 0
469 1 1 0 120.75601320 6.39682899 7.50000000 0 0 0
470 1 1 0 121.47598950 7.62077102 7.50000000 0 0 0
471 1 1 0 122.89594245 7.60922440 7.50000000 0 0 0
472 1 1 0 123.59591951 6.37373574 7.50000000 0 0 0
473 1 1 0 125.01587256 6.36218912 7.50000000 0 0 0
474 1 1 0 125.73584886 7.58613115 7.50000000 0 0 0
475 1 1 0 127.15580181 7.57458453 7.50000000 0 0 0
476 1 1 0 127.85577887 6.33909587 7.50000000 0 0 0
477 1 1 0 129.27573192 6.32754925 7.50000000 0 0 0
478 1 1 0 129.99570822 7.55149128 7.50000000 0 0 0
479 1 1 0 131.41566117 7.53994466 7.50000000 0 0 0
480 1 1 0 132.11563823 6.30445600 7.50000000 0 0 0
481 1 1 0 133.53559129 6.29290937 7.50000000 0 0 0
482 1 1 0 134.25556758 7.51685141 7.50000000 0 0 0
483 1 1 0 135.67552054 7.50530478 7.50000000 0 0 0
484 1 1 0 136.37549759 6.26981613 7.50000000 0 0 0
485 1 1 0 137.79545065 6.25826950 7.50000000 0 0 0
486 1 1 0 138.51542694 7.48221153 7.50000000 0 0 0
487 1 1 0 139.93537990 7.47066491 7.50000000 0 0 0
488 1 1 0 140.63535696 6.23517625 7.50000000 0 0 0
489 1 1 0 142.05531001 6.22362963 7.50000000 0 0 0
490 1 1 0 142.77528631 7.44757166 7.50000000 0 0 0
491 1 1 0 144.19523926 7.43602504 7.50000000 0 0 0
492 1 1 0 144.89521632 6.20053638 7.50000000 0 0 0
493 1 1 0 146.31516937 6.18898976 7.50000000 0 0 0
494 1 1 0 147.03514567 7.41293179 7.50000000 0 0 0
495 1 1 0 148.45509862 7.40138516 7.50000000 0 0 0
496 1 1 0 149.15507568 6.16589651 7.50000000 0 0 0
497 1 1 0 150.57502873 6.15434988 7.50000000 0 0 0
498 1 1 0 0.07999735 9.83772275 7.50000000 0 0 0
499 1 1 0 1.49995041 9.82617612 7.50000000 0 0 0
500 1 1 0 2.21992670 11.05011816 7.50000000 0 0 0
501 1 1 0 3.63987966 11.03857153 7.50000000 0 0 0
502 1 1 0 4.33985671 9.80308288 7.50000000 0 0 0
503 1 1 0 5.75980977 9.79153625 7.50000000 0 0 0
504 1 1 0 6.47978606 11.01547828 7.50000000 0 0 0
505 1 1 0 7.89973902 11.00393166 7.50000000 0 0 0
506 1 1 0 8.59971608 9.76844300 7.50000000 0 0 0
507 1 1 0 10.01966913 9.75689638 7.50000000 0 0 0
508 1 1 0 10.73964543 10.98083841 7.50000000 0 0 0
509 1 1 0 12.15959838 10.96929179 7.50000000 0 0 0
510 1 1 0 12.85957544 9.73380313 7.50000000 0 0 0
511 1 1 0 14.27952849 9.72225651 7.50000000 0 0 0
512 1 1 0 14.99950479 10.94619854 7.50000000 0 0 0
513 1 1 0 16.41945774 10.93465191 7.50000000 0 0 0
514 1 1 0 17.11943480 9.69916326 7.50000000 0 0 0
515 1 1 0 18.53938785 9.68761663 7.50000000 0 0 0
516 1 1 0 19.25936415 10.91155866 7.50000000 0 0 0
517 1 1 0 20.67931710 10.90001204 7.50000000 0 0 0
518 1 1 0 21.37929416 9.66452338 7.50000000 0 0 0
519 1 1 0 22.79924721 9.65297676 7.50000000 0 0 0
520 1 1 0 23.51922351 10.87691879 7.50000000 0 0 0
521 1 1 0 24.93917646 10.86537217 7.50000000 0 0 0
522 1 1 0 25.63915352 9.62988351 7.50000000 0 0 0
523 1 1 0 27.05910658 9.61833689 7.50000000 0 0 0
524 1 1 0 27.77908287 10.84227892 7.50000000 0 0 0
525 1 1 0 29.19903583 10.83073229 7.50000000 0 0 0
526 1 1 0 29.89901288 9.59524364 7.50000000 0 0 0
527 1 1 0 31.31896594 9.58369701 7.50000000 0 0 0
528 1 1 0 32.03894223 10.80763904 7.50000000 0 0 0
529 1 1 0 33.45889519 10.79609242 7.50000000 0 0 0
530 1 1 0 34.15887225 9.56060376 7.50000000 0 0 0
531 1 1 0 35.57882530 9.54905714 7.50000000 0 0 0
532 1 1 0 36.29880160 10.77299917 7.50000000 0 0 0
533 1 1 0 37.71875455 10.76145255 7.50000000 0 0 0
534 1 1 0 38.41873161 9.52596389 7.50000000 0 0 0
535 1 1 0 39.83868466 9.51441727 7.50000000 0 0 0
536 1 1 0 40.55866096 10.73835930 7.50000000 0 0 0
537 1 1 0 41.97861391 10.72681268 7.50000000 0 0 0
538 1 1 0 42.67859097 9.49132402 7.50000000 0 0 0
539 1 1 0 44.09854402 9.47977739 7.50000000 0 0 0
540 1 1 0 44.81852032 10.70371943 7.50000000 0 0 0
541 1 1 0 46.23847327 10.69217280 7.50000000 0 0 0
542 1 1 0 46.93845033 9.45668415 7.50000000 0 0 0
543 1 1 0 48.35840339 9.44513752 7.50000000 0 0 0
544 1 1 0 49.07837968 10.66907955 7.50000000 0 0 0
545 1 1 0 50.49833264 10.65753293 7.50000000 0 0 0
546 1 1 0 51.19830969 9.42204427 7.50000000 0 0 0
547 1 1 0 52.61826275 9.41049765 7.50000000 0 0 0
548 1 1 0 53.33823904 10.63443968 7.50000000 0 0 0
549 1 1 0 54.75819200 10.62289306 7.50000000 0 0 0
550 1 1 0 55.45816906 9.38740440 7.50000000 0 0 0
551 1 1 0 56.87812211 9.37585778 7.50000000 0 0 0
552 1 1 0 57.59809841 10.59979981 7.50000000 0 0 0
553 1 1 0 59.01805136 10.58825318 7.50000000 0 0 0
554 1 1 0 59.71802842 9.35276453 7.50000000 0 0 0
555 1 1 0 61.13798147 9.34121790 7.50000000 0 0 0
556 1 1 0 61.85795777 10.56515993 7.50000000 0 0 0
557 1 1 0 63.27791072 10.55361331 7.50000000 0 0 0
558 1 1 0 63.97788778 9.31812465 7.50000000 0 0 0
559 1 1 0 65.39784083 9.30657803 7.50000000 0 0 0
560 1 1 0 66.11781713 10.53052006 7.50000000 0 0 0
561 1 1 0 67.53777008 10.51897344 7.50000000 0 0 0
562 1 1 0 68.23774714 9.28348478 7.50000000 0 0 0
563 1 1 0 69.65770020 9.27193816 7.50000000 0 0 0
564 1 1 0 70.37767649 10.49588019 7.50000000 0 0 0
565 1 1 0 71.79762945 10.48433356 7.50000000 0 0 0
566 1 1 0 72.49760650 9.24884491 7.50000000 0 0 0
567 1 1 0 73.91755956 9.23729828 7.50000000 0 0 0
568 1 1 0 74.63753585 10.46124031 7.50000000 0 0 0
569 1 1 0 76.05748881 10.44969369 7.50000000 0 0 0
570 1 1 0 76.75746587 9.21420503 7.50000000 0 0 0
571 1 1 0 78.17741892 9.20265841 7.50000000 0 0 0
572 1 1 0 78.89739522 10.42660044 7.50000000 0 0 0
573 1 1 0 80.31734817 10.41505382 7.50000000 0 0 0
574 1 1 0 81.01732523 9.17956516 7.50000000 0 0 0
575 1 1 0 82.43727828 9.16801854 7.50000000 0 0 0
576 1 1 0 83.15725458 10.39196057 7.50000000 0 0 0
577 1 1 0 84.57720753 10.38041395 7.50000000 0 0 0
578 1 1 0 85.27718459 9.14492529 7.50000000 0 0 0
579 1 1 0 86.69713764 9.13337866 7.50000000 0 0 0
580 1 1 0 87.41711394 10.35732070 7.50000000 0 0 0
581 1 1 0 88.83706689 10.34577407 7.50000000 0 0 0
582 1 1 0 89.53704395 9.11028542 7.50000000 0 0 0
583 1 1 0 90.95699701 9.09873879 7.50000000 0 0 0
584 1 1 0 91.67697330 10.32268082 7.50000000 0 0 0
585 1 1 0 93.09692626 10.31113420 7.50000000 0 0 0
586 1 1 0 93.79690331 9.07564554 7.50000000 0 0 0
587 1 1 0 95.21685637 9.06409892 7.50000000 0 0 0
588 1 1 0 95.93683266 10.28804095 7.50000000 0 0 0
589 1 1 0 97.35678562 10.27649433 7.50000000 0 0 0
590 1 1 0 98.05676268 9.04100567 7.50000000 0 0 0
591 1 1 0 99.47671573 9.02945905 7.50000000 0 0 0
592 1 1 0 100.19669203 10.25340108 7.50000000 0 0 0
593 1 1 0 101.61664498 10.24185445 7.50000000 0 0 0
594 1 1 0 102.31662204 9.00636580 7.50000000 0 0 0
595 1 1 0 103.73657509 8.99481917 7.50000000 0 0 0
596 1 1 0 104.45655139 10.21876120 7.50000000 0 0 0