ITEM: TIMESTEP
168
ITEM: NUMBER OF ATOMS
15608
ITEM: BOX BOUNDS pp pp pp
0.0000000000000000e+00 1.0848182700000000e+02
0.0000000000000000e+00 1.8789603600000001e+02
0.0000000000000000e+00 1.8399999999999999e+01
ITEM: ATOMS id type x y z c_csym c_2[1] c_2[2] c_2[3] c_2[4] c_2[5] c_2[6] c_3 
173 1 0.881193 8.57916 7.4107 6.01359 -169531 -140986 -3032.95 -25048.4 15781.6 -3444.44 -7.41525 
174 1 0.148966 7.36524 7.40677 6.02138 -148498 -162841 2181.61 -18265.4 20459.1 -1333.09 -7.41546 
175 1 0.833554 6.12362 7.40338 6.01849 -165929 -145281 -1053.53 -13630.6 12757.4 -3099.93 -7.41511 
176 1 0.100423 4.91018 7.40032 6.02413 -150613 -160963 729.375 -8394.96 13624 -907.676 -7.41512 
177 1 0.784306 3.66822 7.39803 6.02276 -161914 -149482 -144.594 -5326.1 8460.29 -2672.31 -7.41497 
178 1 0.0505516 2.45511 7.39616 6.02711 -152984 -158419 162.387 -2073.1 6672.19 -445.255 -7.41492 
179 1 0.734036 1.21296 7.3952 6.02764 -157808 -153758 78.2932 -1161.36 2995.06 -2146.31 -7.41488 
180 1 -4.96341e-07 -1.45691e-06 7.39471 6.02985 -155721 -155709 75.5826 -90.3041 -0.0682657 -0.346126 -7.41486 
327 1 2.29868 8.5502 7.41148 6.01581 -160020 -151105 2636.44 -20266.7 23169.6 -4270.81 -7.41568 
328 1 2.98329 7.30851 7.40834 6.01619 -178120 -132717 -944.871 -18419.5 14143.2 -10005.5 -7.4153 
329 1 2.25102 6.09456 7.40424 6.01923 -158573 -152833 829.002 -8818.08 16479.6 -4757.79 -7.41527 
330 1 2.93494 4.85256 7.40209 6.01995 -170908 -140233 141.144 -8505.5 10593.3 -9316.78 -7.41514 
331 1 2.20177 3.6391 7.39895 6.02246 -157256 -154193 73.5406 -499.648 9518.81 -5113.16 -7.41502 
332 1 2.88528 2.39694 7.39803 6.02459 -163359 -148100 335.324 -2274.99 5810.43 -8422.99 -7.415 
333 1 2.1515 1.18381 7.39615 6.02541 -156089 -155148 1.21109 3563.59 2645.23 -5369.57 -7.41491 
480 1 5.13188 8.49457 7.41519 6.01319 -192710 -117730 303.094 -20876.8 15331.1 -16758 -7.41564 
481 1 4.40072 7.27994 7.41033 6.01188 -169346 -141571 -26.0726 -7106.27 18567.6 -7593.95 -7.41546 
482 1 5.08469 6.03791 7.40839 6.01739 -182751 -128424 1345.81 -9376.19 12611.7 -15914.6 -7.41546 
483 1 4.35238 4.82391 7.40424 6.0168 -164726 -146545 -728.4 3007.51 11725.8 -8787.26 -7.41517 
484 1 5.03594 3.58174 7.4034 6.02172 -171960 -139291 1291.75 -1191.33 8642.26 -14775.4 -7.41527 
485 1 4.30273 2.36824 7.40031 6.02059 -160042 -151152 -538.852 9279.41 4818.98 -9799.98 -7.41503 
486 1 4.98622 1.12609 7.40076 6.02238 -160827 -150396 547.672 2742.26 3514.27 -13321.1 -7.41512 
633 1 6.54925 8.46681 7.41806 6.00414 -182417 -127733 -2160.09 -3763.42 19868.9 -9412.9 -7.41561 
634 1 7.23333 7.22476 7.41639 6.01217 -196485 -114264 3778.51 -8070.02 14438.2 -22145.4 -7.41592 
635 1 6.50208 6.01008 7.41151 6.01004 -174733 -135685 -2624.2 8389.87 13233.4 -11380.1 -7.41532 
636 1 7.18575 4.76791 7.41078 6.01798 -183332 -127868 3306.24 1939.86 11367.6 -20861.1 -7.41569 
637 1 6.45336 3.55387 7.40674 6.01547 -166855 -143753 -1974.24 16766.7 6415.21 -13124 -7.41518 
638 1 7.13692 2.31174 7.40716 6.01943 -169339 -141900 1897.23 7965.96 7066.8 -19192 -7.41546 
639 1 6.40367 1.09819 7.40423 6.0182 -159026 -151840 -624.607 20803.6 -223.57 -14645.7 -7.41517 
787 1 8.65066 7.19802 7.42016 6.00292 -186787 -122759 -5865.1 14960.5 14062.2 -12947.3 -7.41544 
789 1 8.60312 4.74115 7.41483 6.01022 -176388 -133677 -4627.81 25562.1 7411.07 -15332.4 -7.41531 
791 1 8.55434 2.28497 7.41144 6.01479 -165693 -144740 -2429.64 31853.9 815.813 -17468.8 -7.41532 
786 1 9.38066 8.41351 7.4255 6.00499 -211395 -98943.1 7613.88 -5139.39 16022.9 -27766.7 -7.41652 
788 1 9.33448 5.95589 7.41953 6.01189 -196271 -114688 6622.59 6823.06 13902.4 -26417 -7.41625 
790 1 9.28681 3.49907 7.4152 6.01666 -180140 -131056 4437.61 14957 10516.1 -24632.1 -7.41594 
792 1 9.23821 1.04307 7.41297 6.01157 -163139 -147820 1514.93 18788.6 5942.67 -22407.8 -7.41566 
939 1 10.7979 8.38807 7.42959 5.99588 -199878 -108139 -10544.9 22425.3 14295.5 -13622.6 -7.41549 
940 1 11.482 7.146 7.42903 6.00529 -210334 -100388 11340.6 13013.3 16177 -31249 -7.41693 
941 1 10.7518 5.93047 7.42392 6.00376 -187416 -121482 -8675.9 35158.5 7863.86 -16527.3 -7.41539 
942 1 11.4357 4.68845 7.42421 6.01201 -192588 -118563 8349.27 23250.4 13760.1 -29430.6 -7.41656 
943 1 10.7042 3.47367 7.4199 6.01052 -174541 -135186 -5565.59 43736.3 1377.13 -19175.9 -7.41544 
944 1 11.3882 2.23184 7.42124 6.0078 -173616 -137308 4331.09 29342.3 10065 -27145.3 -7.41618 
945 1 10.6556 1.01768 7.41792 6.0124 -161194 -148997 -1701.36 47737.7 -4796.98 -21571.8 -7.41561 
1092 1 13.6281 8.33849 7.43872 5.99862 -224417 -85589 17407.9 20115.5 18123.7 -35210.9 -7.41772 
1093 1 12.8992 7.12208 7.43342 5.99755 -199406 -107822 -14134.4 45114.5 7872.96 -16863.7 -7.4154 
1094 1 13.5834 5.88017 7.43357 6.00593 -205824 -104986 13659.9 32477.2 16703.5 -33433.4 -7.4173 
1095 1 12.853 4.66461 7.42895 6.00645 -184839 -123596 -10135.8 56056.5 1541 -19906.6 -7.41549 
1096 1 13.5372 3.42288 7.43005 6.00459 -185670 -125171 8587.23 40857.2 13947.7 -31169.9 -7.41682 
1097 1 12.8056 2.20805 7.42633 6.00949 -169628 -139569 -5077.14 62422.4 -4602.58 -22695.4 -7.41571 
1098 1 13.4902 0.966643 7.42847 5.99871 -164602 -145796 2711.08 44566.6 9937.11 -28443.5 -7.41636 
1245 1 15.0453 8.31617 7.44279 5.99176 -211634 -93833 -20865.2 54870.8 7552.25 -16504.3 -7.41532 
1246 1 15.7298 7.07441 7.44274 5.99984 -219073 -91385 20243.2 42102.7 19250.8 -36526.4 -7.41811 
1247 1 15.0006 5.85799 7.438 6.0009 -196038 -111013 -16081.8 68169.4 1415.49 -19827.9 -7.41546 
1248 1 15.6851 4.61641 7.43881 6.00012 -198401 -112377 14238.4 52782.7 17471.2 -34357.9 -7.41757 
1249 1 14.9546 3.40081 7.4349 6.00735 -179612 -128651 -9922.57 77019.4 -4657.64 -22898.4 -7.41573 
1250 1 15.6394 2.15952 7.43672 5.99486 -176409 -134026 7118.02 58974.4 14333.4 -31722.4 -7.41699 
1251 1 14.9076 0.944619 7.43372 6.0026 -162686 -146489 -2952.47 80884.6 -10296.8 -25735.3 -7.41613 
1398 1 17.8749 8.27123 7.45136 5.99406 -231663 -78273.8 27841.6 51602.4 21315.1 -38633.7 -7.41899 
1399 1 17.147 7.05395 7.4466 5.99583 -207209 -98094.8 -23200.3 79598.3 1107.86 -19100.9 -7.41534 
1400 1 17.8319 5.81253 7.44707 5.99558 -211090 -99512.1 21092.8 64634.7 20521.3 -36622.7 -7.41838 
1401 1 17.1024 4.59612 7.44312 6.00492 -190135 -116784 -16111.2 90951 -4853.33 -22353.8 -7.41567 
1402 1 17.7875 3.35498 7.44458 5.99176 -188851 -121585 12919.4 73350.7 18305.3 -34144.8 -7.41772 
1403 1 17.0567 2.13935 7.44153 5.99937 -172272 -135730 -7888.86 97392.6 -10518.7 -25370.1 -7.41612 
1404 1 17.7423 0.898603 7.44399 5.98546 -165572 -144169 3896.92 76999.9 14773.6 -31241.2 -7.41705 
1551 1 19.2921 8.25248 7.45445 5.99147 -217817 -85549.4 -31177.5 89879.8 704.485 -17876.7 -7.41515 
1552 1 19.9774 7.01129 7.45455 5.9916 -222915 -87275.3 28845.8 75855.8 23006 -37923.6 -7.41923 
1553 1 19.2491 5.79404 7.45063 6.00106 -200642 -104722 -23386.4 103686 -5097.99 -21224.3 -7.41551 
1554 1 19.9345 4.55309 7.45169 5.98753 -201070 -109267 19864.9 87025.7 21733.5 -35656.1 -7.4185 
1555 1 19.2048 3.33667 7.4487 5.99685 -182507 -124381 -14146.6 112742 -10745.3 -24333.9 -7.41601 
1556 1 19.8907 2.09608 7.4508 5.98208 -177863 -131896 9727.31 93350.7 19047 -32971.1 -7.41774 
1557 1 19.1597 0.880386 7.44869 5.98936 -163709 -144223 -4075.01 116474 -15867.5 -27233.8 -7.41663 
1704 1 22.1216 8.21262 7.46113 5.98816 -233381 -76228.3 37131.7 85964.5 24869.4 -38278.8 -7.4201 
1705 1 21.3946 6.99453 7.45725 5.99635 -210404 -93213.7 -31405.5 114827 -5326.9 -19659.6 -7.41529 
1706 1 22.0804 5.75382 7.4579 5.9834 -212565 -97673.2 27617.4 99589 24530.2 -36253.1 -7.41931 
1707 1 21.3518 4.5366 7.45497 5.99502 -192517 -112995 -21427.8 126448 -10904.1 -22790.7 -7.41583 
1708 1 22.038 3.2962 7.45669 5.97958 -190005 -119890 16657.4 108542 22724.2 -33826.3 -7.41847 
1709 1 21.308 2.07976 7.45472 5.98637 -173759 -133095 -10308.4 132873 -16107.7 -25704.6 -7.41648 
1710 1 21.9947 0.839772 7.45741 5.97328 -166249 -142609 4847.84 112164 19590.9 -31041.6 -7.41763 
1857 1 23.5388 8.19751 7.46295 5.99233 -218869 -82629.5 -39792.5 123986 -5502.17 -17800.9 -7.41501 
1858 1 24.2252 6.95707 7.4632 5.98004 -222370 -87153.5 35811.2 110554 26654.3 -35991.7 -7.42013 
1859 1 23.4976 5.73906 7.4603 5.99213 -201778 -102086 -29373.9 138133 -10954.6 -20889.7 -7.41557 
1860 1 24.1842 4.49888 7.46162 5.976 -201086 -108604 24332.6 122069 25733.3 -33841.7 -7.41924 
1861 1 23.4553 3.28169 7.45975 5.98421 -183603 -122082 -17525 147245 -16182.5 -23763.1 -7.41625 
1862 1 24.1422 2.04187 7.46212 5.97071 -178354 -130669 11724.1 128462 23402.2 -31353.9 -7.41831 
1863 1 23.4121 0.825391 7.46115 5.97648 -164588 -142287 -4871 150853 -20825.1 -26445.5 -7.41705 
2010 1 26.3688 8.16268 7.4677 5.9775 -230394 -78250 44098 119573 28108.9 -34980.2 -7.42093 
2011 1 25.6424 6.94392 7.46476 5.98928 -209526 -92306.9 -37621.7 147459 -10882 -18765.9 -7.41526 
2012 1 26.3294 5.704 7.46569 5.97265 -210711 -98464.2 32394.8 133614 28047.2 -33102.4 -7.42001 
2013 1 25.6015 4.48607 7.46383 5.98279 -192394 -111632 -25362.1 159249 -16073.7 -21552.8 -7.41596 
2014 1 26.2888 3.24646 7.46585 5.96902 -189338 -119483 19305.9 142716 26538.1 -30917.4 -7.41902 
2015 1 25.5596 2.02926 7.46502 5.97411 -174326 -131335 -12016 165646 -20837.9 -24145.9 -7.41678 
2016 1 26.2474 0.79005 7.46793 5.96302 -166693 -140986 5412.21 146350 23744.4 -28460.6 -7.41804 
2163 1 27.786 8.15099 7.46853 5.98714 -215628 -83996.2 -45846.1 154310 -10691.4 -16540.1 -7.41493 
2164 1 28.4736 6.91137 7.4691 5.97018 -218555 -89931.3 40523.2 142836 29682.6 -31731.3 -7.42076 
2165 1 27.7466 5.69273 7.46714 5.98143 -199896 -102383 -33472.4 168646 -15787.6 -19198.1 -7.41562 
2166 1 28.4344 4.45336 7.4688 5.96623 -199000 -109614 27249.3 154607 28986.7 -29835.4 -7.41974 
2167 1 27.7061 3.23547 7.46797 5.97257 -183026 -121271 -19759.1 177814 -20608.4 -21673.3 -7.41645 
2168 1 28.3942 1.99643 7.47059 5.96119 -177961 -129925 12922.5 161080 26938.4 -27697.7 -7.4187 
2169 1 27.6648 0.779222 7.4707 5.96502 -165192 -140392 -5297.03 181341 -24810.9 -23978.9 -7.41737 
2316 1 30.6168 8.12076 7.4721 5.96854 -224439 -83373.1 48465.7 149639 30689.2 -29870.5 -7.42148 
2317 1 29.8907 6.90148 7.46993 5.97928 -205769 -94757.1 -41560.6 175335 -15345.2 -16803.8 -7.41527 
2318 1 30.579 5.66237 7.47124 5.96382 -207023 -101420 35262.7 163952 30772.9 -28233.7 -7.42045 
2319 1 29.8516 4.44384 7.47025 5.97177 -190492 -112473 -27771 187216 -20158.4 -19134.9 -7.41608 
2320 1 30.5401 3.205 7.47255 5.95943 -187893 -120244 20786.1 173200 29477.6 -26393.6 -7.41937 
2321 1 29.8115 1.98715 7.47264 5.96343 -174153 -130483 -12983.6 193592 -24512.1 -21303.9 -7.417 
2322 1 30.5005 0.748666 7.47568 5.95441 -167363 -139493 5575.55 176824 26973.1 -24373.4 -7.4183 
2469 1 32.0339 8.11207 7.47244 5.97786 -209713 -88779.4 -49402.9 179354 -14773.1 -14455.4 -7.41491 
2470 1 32.7227 6.87327 7.47344 5.96225 -212627 -95006.3 43124.9 170628 31947.4 -26244.5 -7.42113 
2471 1 31.9962 5.65414 7.47215 5.97157 -196354 -105115 -35782.4 193764 -19519.1 -16616.8 -7.41569 
2472 1 32.6851 4.41553 7.47413 5.958 -195794 -112115 28739.4 182536 31391.3 -24668.4 -7.42004 
2473 1 31.9573 3.19708 7.474 5.96262 -181771 -121855 -20944.2 202944 -23956.7 -18636.4 -7.41659 
2474 1 32.6465 1.95876 7.47678 5.95265 -177422 -129845 13401.6 189041 29567.5 -22945.9 -7.41893 
2475 1 31.9178 0.740908 7.47763 5.95558 -166054 -138824 -5421.4 206385 -27767.8 -20513.8 -7.4176 
2622 1 34.8656 8.0858 7.47564 5.96149 -215820 -90460.9 50684.9 174707 32574.3 -23989.9 -7.42179 
2623 1 34.1399 6.86614 7.47396 5.97079 -199888 -99417.2 -43595.4 197544 -18725 -14185.8 -7.4153 
2624 1 34.8293 5.62779 7.47562 5.95694 -201430 -105724 36587.5 189126 32725.1 -22638.8 -7.42069 
2625 1 34.1023 4.4088 7.47513 5.96244 -187381 -114671 -28933.4 209406 -23182.5 -16041.4 -7.41618 
2626 1 34.7918 3.17066 7.47759 5.95157 -185345 -121666 21341.7 198450 31585.9 -21178.4 -7.41956 
2627 1 34.0638 1.95227 7.4782 5.95476 -173671 -130146 -13366.8 215759 -27169.5 -17771.8 -7.41716 
2628 1 34.7537 0.714423 7.48119 5.94725 -167765 -138012 5440.28 202081 29319 -19620.8 -7.41844 
2775 1 36.2828 8.0796 7.47589 5.97017 -201211 -95607.8 -51078.5 198697 -17810.1 -11891.1 -7.41493 
2776 1 36.9727 6.84154 7.47725 5.95625 -204761 -101261 44195.6 193060 33534.5 -20406.9 -7.42132 
2777 1 36.2465 5.62206 7.47629 5.96273 -190875 -109185 -36774.1 213082 -22229.4 -13567.5 -7.41576 
2778 1 36.9364 4.38414 7.47842 5.95064 -191210 -115330 29221.5 204996 33067.7 -19169.7 -7.42019 
2779 1 36.2091 3.16525 7.47862 5.95457 -179319 -123120 -21370.6 222232 -26325.8 -15144.3 -7.41671 
2780 1 36.8992 1.92755 7.48132 5.94623 -176100 -129854 13392.1 211553 31419.5 -17866.2 -7.41905 
2781 1 36.1711 0.70917 7.48252 5.94828 -166501 -137186 -5341.88 225685 -29808.4 -16610 -7.41775 
2927 1 38.425 9.29427 7.47807 5.97023 -200290 -93644.7 -58157.2 197439 -16804.4 -9764.93 -7.41458 
2928 1 39.1156 8.05652 7.47919 5.9563 -205753 -98881 51481.7 194375 33876.8 -18053.6 -7.42193 
2929 1 38.3899 6.83663 7.47772 5.96344 -192226 -105641 -44348.3 214063 -21135.4 -11249.3 -7.41536 
2930 1 39.0803 5.59896 7.47953 5.9503 -194833 -110913 36921.4 208829 34057 -17003.3 -7.4208 
2931 1 38.3536 4.37963 7.4792 5.95489 -182981 -117822 -29272.4 225904 -25279.3 -12662.6 -7.41626 
2932 1 39.0441 3.1421 7.48157 5.94553 -182251 -123557 21325.3 218170 33033.5 -15915.6 -7.41965 
2933 1 38.3165 1.92328 7.48232 5.94807 -172485 -130218 -13371.6 232241 -28959.7 -13987.2 -7.41727 
2934 1 39.0072 0.685964 7.485 5.94219 -168013 -136505 5142.82 221904 30953 -14794.1 -7.41851 
3080 1 41.2578 9.27249 7.48152 5.95702 -204457 -98393.9 58401.2 193349 33807.2 -15635.8 -7.42251 
3081 1 40.5328 8.05226 7.47953 5.96408 -191333 -103937 -51586.2 212594 -19933.7 -9108.52 -7.41498 
3082 1 41.2237 6.81485 7.48106 5.95038 -196078 -108597 44366.2 210026 34599.5 -14742.2 -7.4214 
3083 1 40.4975 5.59516 7.48014 5.95562 -184509 -114453 -36965.3 226851 -24069.5 -10348.8 -7.41583 
3084 1 41.1884 4.35783 7.48218 5.94511 -186078 -119213 29132.9 222020 34194.6 -13835.9 -7.42025 
3085 1 40.4613 3.13863 7.48235 5.94839 -176377 -125103 -21342.4 236032 -27883.8 -11526.2 -7.41679 
3086 1 41.1523 1.90143 7.48473 5.94173 -174563 -130301 13126.5 228659 32680.6 -12919.5 -7.41909 
3087 1 40.4245 0.68264 7.48589 5.94298 -166844 -135890 -5142.34 239563 -31110.8 -12622.8 -7.41785 
3233 1 42.6751 9.26872 7.48178 5.96485 -188244 -103927 -58453.3 208856 -18652 -7157.02 -7.41463 
3234 1 43.3666 8.0316 7.48307 5.95078 -194813 -108059 51511.4 208846 34737.7 -12429.3 -7.42198 
3235 1 42.6409 6.81161 7.48157 5.95665 -183682 -112856 -44385.8 225373 -22731.5 -8215.91 -7.41542 
3236 1 43.3322 5.5745 7.4833 5.9451 -187496 -116876 36747.1 223255 34935.1 -11675.8 -7.42084 
3237 1 42.6056 4.35498 7.48283 5.94908 -177985 -121851 -29158.3 237151 -26620.5 -9238.2 -7.41633 
3238 1 43.2968 3.11794 7.48488 5.94122 -178564 -125985 21034.2 232690 33999 -10932.1 -7.41968 
3239 1 42.5695 1.89882 7.48544 5.94323 -171040 -130833 -13168.8 243608 -30065.1 -10202.9 -7.41734 
3240 1 43.2609 0.66191 7.48759 5.93896 -168079 -135402 4788.95 236581 32058.3 -10196.7 -7.41854 
3387 1 44.7838 8.02875 7.48352 5.95738 -180512 -113030 -51498.1 221563 -21295.2 -6269.87 -7.41503 
3389 1 44.7494 5.57211 7.48388 5.95008 -177243 -120335 -36760.3 235797 -25205.5 -7128.83 -7.41589 
3391 1 44.7141 3.11586 7.48549 5.94385 -172760 -127692 -21090.8 245010 -28806.8 -7954.14 -7.41685 
3393 1 44.6782 0.659975 7.48815 5.93941 -166895 -134991 -4879.22 248726 -31853.5 -8724.2 -7.4179 
3386 1 45.5091 9.24896 7.48556 5.95154 -191300 -109366 58331.2 205415 34509.7 -10086.9 -7.42254 
3388 1 45.4756 6.79188 7.48498 5.9454 -186516 -116331 44123.1 222085 35285.8 -9466.13 -7.42142 
3390 1 45.441 4.33524 7.4856 5.94108 -180269 -123616 28804.1 234088 34929.1 -8868.37 -7.42026 
3392 1 45.4056 1.87906 7.48733 5.93863 -172470 -131145 12769.4 240904 33515.6 -8295.75 -7.4191 
3539 1 46.9264 9.24636 7.48595 5.95838 -175227 -114887 -58283.4 215648 -19784.8 -4510.38 -7.41468 
3540 1 47.6187 8.00975 7.48721 5.94606 -183309 -117703 51230.9 218603 35273.5 -7220.67 -7.42199 
3541 1 46.8928 6.7898 7.48551 5.95079 -174292 -120737 -44113 232102 -23669.8 -5199.34 -7.41547 
3542 1 47.5848 5.55313 7.48695 5.94125 -179683 -123204 36392 233071 35489.7 -6749.85 -7.42084 
3543 1 46.8582 4.33355 7.48616 5.94479 -172292 -126427 -28854.4 243933 -27371.1 -5876.62 -7.41638 
3544 1 47.55 3.09687 7.48768 5.93835 -174527 -128915 20662.8 242620 34621.1 -6315.22 -7.41968 
3545 1 46.8229 1.87758 7.48782 5.93992 -169013 -132010 -12875.5 250510 -30652.9 -6520.8 -7.41739 
3546 1 47.5147 0.640958 7.48929 5.9372 -167812 -134754 4438.22 246712 32780 -5914.95 -7.41854 
3692 1 49.7615 9.2279 7.48989 5.94711 -177731 -120694 58049.1 213031 34921.7 -4937.63 -7.42254 
3693 1 49.036 8.00783 7.4877 5.95179 -169119 -122722 -51193.1 226220 -22038.1 -3447.37 -7.41508 
3694 1 49.7284 6.77138 7.48891 5.9418 -176622 -124544 43767.4 229716 35697.3 -4583.82 -7.42142 
3695 1 49.0021 5.55166 7.48748 5.94543 -169534 -126866 -36423.8 240486 -25788.1 -3968.35 -7.41593 
3696 1 49.6942 4.31513 7.48871 5.93834 -174131 -128527 28428.4 241831 35383.1 -4269.41 -7.42025 
3697 1 48.9673 3.09569 7.48814 5.94076 -168799 -130905 -20766.2 249811 -29247.2 -4476.85 -7.41689 
3698 1 49.6592 1.85915 7.4893 5.93686 -170186 -132650 12411.2 248801 34042.4 -3999.79 -7.4191 
3699 1 48.932 0.639915 7.48961 5.93729 -166690 -134763 -4589.46 253679 -32183.7 -4950.21 -7.41794 
3845 1 51.1789 9.22599 7.49031 5.95307 -161661 -126189 -57983.8 218260 -20329 -1868.73 -7.41471 
3846 1 51.8718 7.98977 7.49137 5.94274 -171241 -127548 50903.3 224112 35565.2 -2364.35 -7.42198 
3847 1 51.1457 6.76998 7.4894 5.94639 -164405 -129024 -43774.6 234744 -24082.5 -2225.46 -7.41551 
3848 1 51.8382 5.53363 7.49039 5.93874 -171339 -129923 36035.2 238681 35807.7 -2160.61 -7.42083 
3849 1 51.1115 4.3141 7.48916 5.94132 -166144 -131502 -28516.8 246676 -27664.5 -2587.9 -7.41641 
3850 1 51.8036 3.07767 7.49002 5.93669 -169966 -132325 20309.4 248375 34991.5 -2005.15 -7.41967 
3851 1 51.0765 1.85833 7.48961 5.93799 -166699 -133731 -12562.6 253398 -30852.4 -2934.97 -7.41742 
3852 1 51.7686 0.621883 7.49029 5.9365 -167133 -134760 4111.07 252642 33214.5 -1899.27 -7.41853 
3998 1 54.0152 9.20811 7.49418 5.94409 -163806 -132370 57770.1 216406 35103.8 -74.1666 -7.42253 
3999 1 53.2892 7.9883 7.4918 5.94768 -157062 -132861 -50882.5 226797 -22273 -644.386 -7.41511 
4000 1 53.9821 6.75215 7.49262 5.93956 -166269 -133131 43451.5 233204 35898.7 19.82 -7.4214 
4001 1 53.2555 5.53259 7.49081 5.9422 -161217 -133911 -36099.7 241164 -25928.5 -850.142 -7.41596 
4002 1 53.9479 4.29629 7.49143 5.93691 -167485 -133878 28100 245510 35623.9 70.1529 -7.42024 
4003 1 53.2209 3.07692 7.49033 5.93846 -164219 -134578 -20448.7 250645 -29312.6 -1058.16 -7.41692 
4004 1 53.9131 1.84053 7.49072 5.93616 -167316 -134595 12088.9 252658 34331.1 65.9562 -7.41908 
4005 1 53.1859 0.62126 7.49042 5.9365 -165953 -135051 -4291.49 254716 -32201.9 -1246.55 -7.41796 
4151 1 55.4326 9.20641 7.4945 5.94928 -147743 -138444 -57718.7 216702 -20371.6 777.258 -7.41473 
4152 1 56.126 7.97048 7.49523 5.94078 -159032 -138174 50642.2 225503 35657.7 2290.47 -7.42197 
4153 1 55.3995 6.75096 7.49299 5.94343 -154067 -138113 -43487.3 233366 -24057.1 738.832 -7.41553 
4154 1 56.0923 5.51481 7.49342 5.93756 -162777 -137339 35749.5 240266 35934.4 2236.43 -7.42082 
4155 1 55.3653 4.29546 7.49172 5.93922 -159540 -137321 -28218.2 245460 -27585.3 683.305 -7.41644 
4156 1 56.0577 3.05916 7.49186 5.93609 -165168 -136394 20010.5 250181 35156 2130.58 -7.41965 
4157 1 55.3304 1.83991 7.49086 5.93684 -163871 -136162 -12261.6 252409 -30741.9 629.973 -7.41744 
4158 1 56.0226 0.603512 7.49071 5.93589 -166140 -135443 3809.52 254675 33408.4 1965.83 -7.41851 
4304 1 58.27 9.18841 7.49801 5.94242 -149632 -145024 57560 215678 35084.6 4678.57 -7.42252 
4305 1 57.5435 7.96898 7.49549 5.94499 -144793 -144062 -50643.6 223306 -22061.1 2178.19 -7.41512 
4306 1 58.2366 6.73302 7.49582 5.93862 -155700 -142594 43218.7 232725 35916.3 4512.03 -7.42139 
4307 1 57.5096 5.51375 7.49366 5.94034 -152606 -141796 -35838.3 237906 -25686.3 2289.44 -7.41597 
4308 1 58.2023 4.27756 7.4936 5.93637 -160675 -140054 27841.1 245242 35675.7 4305.47 -7.42023 
4309 1 57.475 3.05838 7.49198 5.93746 -159445 -139176 -20165.7 247612 -29057.9 2387.63 -7.41693 
4310 1 58.1672 1.82203 7.49157 5.93564 -164324 -137408 11807.2 252672 34404.3 4039.98 -7.41907 
4311 1 57.4399 0.602853 7.49065 5.93648 -164991 -136206 -3991.66 251940 -31956.6 2492.8 -7.41798 
4457 1 59.6876 9.18646 7.49807 5.9469 -133452 -151761 -57518.2 211034 -19944.1 3461.51 -7.41474 
4458 1 60.3812 7.9507 7.4984 5.94013 -146417 -149664 50451.7 222920 35561.1 6923.02 -7.42196 
4459 1 59.6541 6.73157 7.49595 5.94181 -143383 -148095 -43269 227974 -23624.6 3755.24 -7.41554 
4460 1 60.347 5.49552 7.49577 5.93705 -153807 -145520 35536.7 237950 35875.4 6607.83 -7.4208 
4461 1 59.6196 4.27648 7.49367 5.93843 -152636 -143947 -27967.2 240366 -27161.9 4023.12 -7.41644 
4462 1 60.3121 3.0402 7.49304 5.93575 -160001 -141281 19764 248122 35115.6 6242.57 -7.41963 
4463 1 59.5845 1.82114 7.49149 5.93692 -160853 -139433 -11974.8 247557 -30346 4281.96 -7.41745 
4464 1 60.2766 0.584696 7.49051 5.93645 -164812 -136897 3528.11 252905 33359.5 5811.95 -7.41849 
4610 1 62.526 9.16764 7.50085 5.94196 -135226 -158554 57365 210950 34858.8 9500.48 -7.4225 
4611 1 61.7987 7.94871 7.49831 5.94368 -132045 -156192 -50448.8 215730 -21402.3 5068.89 -7.41512 
4612 1 62.492 6.71283 7.49812 5.93817 -144733 -152859 43032.3 228301 35738.5 9061.14 -7.42137 
4613 1 61.7645 5.49397 7.49571 5.93979 -143542 -150582 -35618.4 230642 -25060.3 5526.04 -7.41598 
4614 1 62.4571 4.25779 7.49495 5.93627 -153392 -146983 27630 241129 35520.1 8588.75 -7.4202 
4615 1 61.7294 3.03893 7.4929 5.93773 -154188 -144492 -19901.5 240641 -28480.7 5960.59 -7.41694 
4616 1 62.4216 1.8025 7.49169 5.93639 -160838 -140929 11555.5 248796 34237 8056.67 -7.41904 
4617 1 61.6939 0.583541 7.49023 5.9371 -163636 -138085 -3680.73 245208 -31443.4 6389.62 -7.41798 
4763 1 63.9436 9.16496 7.50046 5.94599 -118916 -166100 -57285.9 201200 -19014.4 6209.08 -7.41473 
4764 1 64.6374 7.92927 7.50034 5.93981 -133747 -162002 50231.3 216349 35248 11692.8 -7.42192 
4765 1 63.9096 6.71066 7.49784 5.94157 -132314 -159061 -43050.1 218511 -22753.2 6877.94 -7.41553 
4766 1 64.6025 5.4746 7.49704 5.93728 -144693 -154598 35330.5 231681 35594.3 11098.2 -7.42077 
4767 1 63.8746 4.25598 7.49467 5.93895 -145312 -151474 -27717.7 231165 -26363.1 7512.04 -7.41644 
4768 1 64.5668 3.01961 7.4933 5.93676 -154548 -146887 19534.8 242147 34825.4 10458.1 -7.4196 
4769 1 63.8389 1.80089 7.49132 5.9377 -157334 -143401 -11676.8 238633 -29634.1 8126.01 -7.41745 
4770 1 64.5307 0.564271 7.48955 5.93833 -163168 -139064 3260.77 247147 33013.8 9748.71 -7.41845 
4916 1 66.783 9.14465 7.50206 5.94203 -121130 -172934 56993.5 202155 34387.7 14531.3 -7.42245 
4917 1 66.055 7.92632 7.49971 5.94385 -119238 -169257 -50156.2 203928 -20233.7 8049.97 -7.41511 
4918 1 66.7483 6.69041 7.49897 5.93884 -133887 -163865 42756.4 219819 35314 13793.6 -7.42132 
4919 1 66.02 5.47209 7.49651 5.94064 -134298 -160171 -35342.4 219170 -23989.8 8910.38 -7.41597 
4920 1 66.7125 4.2358 7.49507 5.93764 -146042 -154666 27382.7 232909 35094.2 13031 -7.42016 
4921 1 65.9842 3.01737 7.49277 5.93883 -148693 -150636 -19600.4 229428 -27522.6 9736.86 -7.41693 
4922 1 66.6761 1.78076 7.49081 5.93856 -157145 -145168 11301.1 240867 33755.5 12209.7 -7.41899 
4923 1 65.948 0.562149 7.48898 5.93868 -161994 -140639 -3342.7 234248 -30606.1 10542.4 -7.41798 
5069 1 68.2008 9.14075 7.50096 5.94668 -104633 -181134 -56781.3 187030 -17487.5 9002.28 -7.41472 
5070 1 68.8944 7.90503 7.50037 5.94105 -121469 -174864 49748.4 205554 34656.7 16697.8 -7.42185 
5071 1 68.1659 6.68704 7.49806 5.94287 -121301 -170629 -42656.5 204611 -21351.4 10117.6 -7.41552 
5072 1 68.8586 5.45085 7.49666 5.93912 -135555 -164061 34975.2 221190 35013.4 15791.9 -7.4207 
5073 1 68.13 4.23278 7.49426 5.94055 -137806 -159574 -27359.6 217614 -25100.8 11187.4 -7.41643 
5074 1 68.8219 2.9962 7.4922 5.93933 -148954 -153065 19241.5 231919 34193.2 14845.2 -7.41954 
5075 1 68.0934 1.77794 7.49003 5.93967 -153571 -147971 -11320.3 225305 -28522.2 12221.1 -7.41743 
5076 1 68.7848 0.541034 7.48757 5.94173 -161163 -141725 2995.43 237148 32267.7 13826.5 -7.41839 
5222 1 71.0411 9.11824 7.50087 5.944 -107774 -187385 56085.2 189066 33606.3 19826.8 -7.42232 
5223 1 70.3122 7.90062 7.49896 5.94572 -106768 -182678 -49484.1 187626 -18432.2 11084.8 -7.4151 
5224 1 71.0052 6.66458 7.49768 5.94133 -123466 -175087 42132.5 206947 34555 18755.2 -7.42122 
5225 1 70.2762 5.44688 7.49544 5.94299 -125045 -170191 -34819.4 203138 -22356.2 12429.3 -7.41595 
5226 1 70.9683 4.21037 7.49338 5.94075 -138854 -162582 26941.1 220314 34291.5 17663 -7.42006 
5227 1 70.2394 2.9925 7.49111 5.94133 -143011 -157123 -19159.2 213646 -26070.2 13724.8 -7.41691 
5228 1 70.9308 1.75559 7.48851 5.94241 -153378 -149710 10979.9 228464 32838.3 16514 -7.41891 
5229 1 70.2022 0.537438 7.48658 5.94183 -159970 -143562 -2960.75 218653 -29337.4 14976.9 -7.41795 
5375 1 72.4589 9.11263 7.49881 5.94925 -91132.4 -196204 -55582.6 168374 -15211.2 11751 -7.41472 
5376 1 73.1524 7.87676 7.49775 5.94434 -110162 -187531 48609.2 190324 33697.9 21926.3 -7.42167 
5377 1 72.4229 6.65947 7.49592 5.94599 -110765 -182337 -41784.6 186103 -19271.3 13403.7 -7.4155 
5378 1 73.1153 5.42306 7.49396 5.94294 -127228 -173557 34200.6 206108 34017.7 20666.9 -7.42056 
5379 1 72.3859 4.20562 7.49184 5.94375 -130570 -167864 -26707.4 199284 -23233.4 14994.6 -7.4164 
5380 1 73.0773 2.96872 7.48919 5.94378 -143723 -159330 18736.3 217007 33084.4 19368.6 -7.41941 
5381 1 72.3482 1.75102 7.48716 5.94342 -149806 -152824 -10834.7 207127 -26874.8 16527.1 -7.4174 
5382 1 73.0389 0.513712 7.48417 5.94693 -159199 -144759 2709.22 222359 30972.2 17996.7 -7.41828 
5528 1 75.3 9.08721 7.49652 5.94823 -96088 -201130 54088.1 171454 32434.6 25288.9 -7.42205 
5529 1 74.5702 7.87035 7.49531 5.94962 -95382.4 -195780 -47986.9 166657 -15825.2 14040.4 -7.4151 
5530 1 75.2628 6.63406 7.49354 5.94601 -114367 -185788 40750.9 189347 33346.4 23848.2 -7.421 
5531 1 74.5329 5.41708 7.49183 5.94704 -116648 -179993 -33748.6 182211 -19992.5 15960.1 -7.41592 
5532 1 75.2245 4.18023 7.48924 5.94597 -132532 -170246 26044.9 202777 32969.4 22380.7 -7.41988 
5533 1 74.4948 2.96301 7.48735 5.94581 -137744 -163602 -18425 192811 -23962.7 17807.1 -7.41686 
5534 1 75.1855 1.72567 7.48427 5.94827 -149981 -154320 10487.1 210976 31324 20856.2 -7.41875 
5535 1 74.4563 0.508099 7.4826 5.94689 -158076 -146769 -2528.96 197921 -27481.5 19576.9 -7.41789 
5681 1 76.718 9.07933 7.49335 5.95351 -79405.1 -210312 -53080.4 145004 -11996 14262.1 -7.41475 
5682 1 77.411 7.84319 7.49181 5.95006 -100686 -198963 46251.2 170170 32267.9 27171.6 -7.42135 
5683 1 76.6806 6.62668 7.49071 5.95033 -101580 -193268 -39992.1 162613 -16328 16541.5 -7.41549 
5684 1 77.3724 5.3899 7.48827 5.94911 -120098 -182180 32613.9 185870 32465.4 25523.9 -7.42029 
5685 1 76.6421 4.17319 7.48677 5.94906 -124189 -175648 -25494.4 175747 -20580.1 18734.6 -7.41635 
5686 1 77.3329 2.93584 7.48369 5.95048 -139154 -165099 17807.3 196744 31331.8 23829.6 -7.41919 
5687 1 76.603 1.71881 7.48216 5.94928 -146413 -157452 -10133.4 183643 -24515 20834.7 -7.41732 
5688 1 77.2929 0.480962 7.47886 5.95423 -157259 -147750 2371.13 202106 28947.4 22059.7 -7.4181 
5834 1 79.5596 9.05028 7.48859 5.95517 -87053.7 -212720 50300.1 148844 30798.1 30554 -7.42158 
5835 1 78.8288 7.83423 7.48823 5.95411 -85899 -207429 -45069.4 140738 -12224.7 16655 -7.41512 
5836 1 79.5209 6.59755 7.48598 5.9533 -107103 -194811 38083.2 166476 31561.4 28739.1 -7.4206 
5837 1 78.7901 5.38135 7.48507 5.95205 -109464 -188645 -31730.6 156092 -16711.9 19220.3 -7.41589 
5838 1 79.481 4.14402 7.48207 5.95367 -127317 -176715 24358.8 179739 30966.4 26869.3 -7.41956 
5839 1 78.7504 2.92754 7.48091 5.95207 -133167 -169364 -17202.9 166619 -21013.2 21677.3 -7.41677 
5840 1 79.4403 1.68965 7.47754 5.95645 -146947 -158314 9689.11 187892 29033 24934.5 -7.41849 
5841 1 78.7103 0.47275 7.47654 5.95418 -156136 -149621 -2058.11 171723 -24852.4 24009.4 -7.41775 
5987 1 80.9777 9.03957 7.4843 5.95888 -70606.2 -222222 -48556.3 117087 -7678.51 16220.9 -7.41483 
5989 1 80.9387 6.58732 7.48203 5.95604 -94481.9 -202537 -36751.5 134194 -12352.2 19174.7 -7.41549 
5991 1 80.8986 4.13412 7.47854 5.95517 -119093 -182268 -23407.4 147102 -16966.4 22007.2 -7.41628 
5993 1 80.8578 1.6799 7.4745 5.9565 -143495 -161469 -9124.76 154875 -21262.9 24698.4 -7.41717 
5988 1 81.67 7.80303 7.48226 5.9586 -94330.2 -207955 42043.1 144874 30274.3 31915.1 -7.4208 
5990 1 81.6297 5.35005 7.47917 5.95795 -115143 -188972 29768 160250 30217.8 29889.8 -7.41983 
5992 1 81.5885 2.8962 7.47518 5.95967 -135797 -169792 16212.1 170923 28770.2 27791.4 -7.41882 
5994 1 81.5467 0.441416 7.47109 5.96383 -155647 -150388 1958.37 176150 26020 25609.8 -7.41781 
6140 1 83.8196 9.00619 7.47722 5.96502 -82289.6 -220903 44084.8 121526 28657.5 34871.2 -7.42084 
6141 1 83.0879 7.79095 7.47762 5.96107 -79876.7 -216681 -40133.3 110585 -7515.39 18520.8 -7.41517 
6142 1 83.7792 6.55376 7.4749 5.96336 -103136 -201347 33631.4 138551 29104.1 32752.8 -7.41999 
6143 1 83.0475 5.33836 7.47487 5.95932 -104798 -195685 -28358.6 125414 -12384.6 21734.7 -7.41584 
6144 1 83.7374 4.10045 7.47157 5.96396 -124318 -181626 21563.3 151420 28151.1 30520.9 -7.41905 
6145 1 83.0061 2.88474 7.47136 5.95971 -130051 -174171 -15300 135621 -17078.7 24793 -7.41663 
6146 1 83.695 1.64619 7.46787 5.96699 -145068 -161663 8469.01 159290 25819.2 28200.4 -7.4181 
6147 1 82.9642 0.430044 7.46785 5.96239 -154749 -152297 -1576.1 140548 -21293.9 27665.2 -7.41752 
6293 1 85.2377 8.99215 7.47207 5.96718 -66384.2 -230560 -41470.7 85856.1 -2245.39 17206.7 -7.41496 
6294 1 85.9292 7.75507 7.46945 5.96991 -92028.9 -213182 35567.7 115161 27684 35253.3 -7.41999 
6295 1 85.197 6.54016 7.46995 5.96458 -90867.8 -209076 -31646.7 102127 -7304.47 20789.9 -7.41549 