ITEM: TIMESTEP
0
ITEM: NUMBER OF ATOMS
15608
ITEM: BOX BOUNDS pp pp pp
0.0000000000000000e+00 1.0848182700000000e+02
0.0000000000000000e+00 1.8789603600000001e+02
0.0000000000000000e+00 1.8399999999999999e+01
ITEM: ATOMS id type x y z c_csym c_2[1] c_2[2] c_2[3] c_2[4] c_2[5] c_2[6] c_3 
173 1 0.806246 8.58742 7.5 6.03193 -145107 -128937 -103860 -740.997 19172.4 -2404.32 -7.41335 
174 1 0.0834048 7.36753 7.5 6.03192 -131228 -142919 -104068 219.166 20154.9 -292.127 -7.41334 
175 1 0.778445 6.13158 7.5 6.03193 -142473 -130959 -106526 -720.468 14564.5 -2283.2 -7.4132 
176 1 0.0556032 4.91169 7.5 6.03192 -132598 -140753 -107293 149.346 13410.6 -194.357 -7.41316 
177 1 0.750643 3.67574 7.5 6.03193 -139890 -133076 -108496 -692.861 9185.72 -2137.3 -7.41309 
178 1 0.0278016 2.45584 7.5 6.03192 -134342 -138546 -109162 76.0494 6625.69 -95.7914 -7.41305 
179 1 0.722842 1.2199 7.5 6.03191 -137444 -135262 -109568 -658.817 3176 -1965.37 -7.41303 
180 1 0 0 7.5 6.03191 -136432 -136425 -109760 53.5367 0.0263064 0.0568679 -7.41302 
327 1 2.22413 8.57137 7.5 6.03194 -130667 -143959 -101738 2432.14 23181.7 -4516.59 -7.41348 
328 1 2.91917 7.33543 7.5 6.03194 -143740 -130227 -104301 -2263.59 16982.4 -8584.64 -7.41333 
329 1 2.19633 6.11553 7.5 6.03194 -131843 -141842 -105582 2311.83 16540.7 -4882.76 -7.41326 
330 1 2.89137 4.87958 7.5 6.03194 -141118 -132282 -106724 -2374.69 12017.3 -8283.93 -7.41319 
331 1 2.16852 3.65969 7.5 6.03194 -133409 -139668 -108052 2167.52 9767.3 -5201.76 -7.41311 
332 1 2.86356 2.42374 7.5 6.03192 -138590 -134420 -108353 -2470.08 6348.42 -7900.73 -7.4131 
333 1 2.14072 1.20384 7.5 6.03192 -135347 -137569 -109210 2056.44 3054.5 -5471.3 -7.41305 
480 1 5.05989 8.53927 7.5 6.03194 -145028 -129808 -100701 -3632.16 19256.1 -14832.3 -7.41354 
481 1 4.33705 7.31937 7.5 6.03194 -131265 -143001 -103101 4491.55 19226.7 -9013.13 -7.4134 
482 1 5.03209 6.08343 7.5 6.03194 -142391 -131776 -103598 -3886.46 14776.8 -14431 -7.41337 
483 1 4.30925 4.86353 7.5 6.03194 -132650 -140901 -106054 4298.07 12548.7 -9786.12 -7.41323 
484 1 5.00429 3.62758 7.5 6.03194 -139803 -133831 -105817 -4116.56 9534.35 -13895.8 -7.41324 
485 1 4.28145 2.40769 7.5 6.03192 -134402 -138763 -107672 4064.54 5841.21 -10465.3 -7.41313 
486 1 4.97649 1.17174 7.5 6.03192 -137378 -136043 -107158 -4373.82 3664.37 -13222.3 -7.41316 
633 1 6.47777 8.52322 7.5 6.03194 -130773 -144177 -100059 6631.74 21413.7 -12483.1 -7.41357 
634 1 7.17281 7.28727 7.5 6.03194 -143692 -131576 -99074.4 -5204.02 17384.9 -20412.9 -7.41363 
635 1 6.44997 6.06738 7.5 6.03194 -131976 -142189 -103369 6412.03 14901.1 -13727.7 -7.41338 
636 1 7.14501 4.83143 7.5 6.03194 -141067 -133531 -101900 -5571.37 12642.5 -19779.8 -7.41347 
637 1 6.42217 3.61153 7.5 6.03194 -133565 -140141 -105336 6131.15 8280.21 -14844.3 -7.41327 
638 1 7.11721 2.37559 7.5 6.03192 -138532 -135558 -103968 -5903.98 7204.21 -18960.3 -7.41335 
639 1 6.39437 1.15569 7.5 6.03192 -135518 -138160 -106029 5848.47 1738.78 -15819 -7.41323 
787 1 8.59069 7.27122 7.5 6.03194 -131383 -143475 -100213 8454.91 16778.6 -16943.3 -7.41356 
789 1 8.56289 4.81538 7.5 6.03194 -132802 -141561 -102411 8150.38 10311.3 -18506.2 -7.41344 
791 1 8.53509 2.35954 7.5 6.03192 -134581 -139601 -103320 7772.4 3845.95 -19897.4 -7.41338 
786 1 9.31353 8.49112 7.5 6.03194 -145009 -131683 -93150.5 -6311.24 19775.8 -26084.8 -7.41398 
788 1 9.28573 6.03527 7.5 6.03194 -142371 -133520 -96578.9 -6812.69 15592.9 -25399.6 -7.41378 
790 1 9.25793 3.57943 7.5 6.03194 -139779 -135427 -99385.2 -7273.82 10660.4 -24488.5 -7.41361 
792 1 9.23013 1.12359 7.5 6.03192 -137345 -137474 -101367 -7742.57 5104.93 -23345.5 -7.4135 
939 1 10.7314 8.47506 7.5 6.03194 -130867 -144703 -96801.5 10376.2 18160 -19391.3 -7.41376 
940 1 11.4265 7.23912 7.5 6.03194 -143699 -133797 -89871.8 -7827.88 18319.9 -30626.7 -7.41417 
941 1 10.7036 6.01922 7.5 6.03194 -132114 -142955 -99113.7 10069.7 11897.3 -21389.9 -7.41362 
942 1 11.3987 4.78328 7.5 6.03194 -141073 -135574 -93406.6 -8413.41 13952.6 -29669.5 -7.41396 
943 1 10.6758 3.56338 7.5 6.03194 -133741 -141140 -100132 9671.99 5570.69 -23198.5 -7.41357 
944 1 11.3709 2.32743 7.5 6.03192 -138531 -137402 -96254.3 -8948.06 8899.33 -28446.2 -7.4138 
945 1 10.648 1.10754 7.5 6.03192 -135723 -139382 -99936.9 9244.3 -641.794 -24794.5 -7.41358 
1092 1 13.5672 8.44296 7.5 6.03194 -145037 -134348 -81830.8 -8610.59 20772.9 -35359.6 -7.41464 
1093 1 12.8443 7.22307 7.5 6.03194 -131498 -144271 -95661.9 11842.3 13025.3 -23476.2 -7.41382 
1094 1 13.5394 5.98712 7.5 6.03194 -142401 -135984 -86067.5 -9312.83 17015.1 -34392.7 -7.41439 
1095 1 12.8165 4.76722 7.5 6.03194 -132964 -142637 -96682.9 11446.2 6884.49 -25684.8 -7.41376 
1096 1 13.5116 3.53128 7.5 6.03194 -139806 -137667 -89765.7 -9960.1 12522.8 -33134.8 -7.41417 
1097 1 12.7887 2.31138 7.5 6.03192 -134782 -140949 -96479.5 10951.6 792.254 -27668 -7.41378 
1098 1 13.4838 1.07543 7.5 6.03192 -137361 -139469 -92720.6 -10599.1 7410.65 -31580.4 -7.414 
1245 1 14.9851 8.42691 7.5 6.03194 -130954 -145463 -92260.1 13427.6 13704.9 -24784.3 -7.41401 
1246 1 15.6801 7.19096 7.5 6.03194 -143747 -136645 -77434.5 -9968.85 19796.7 -38574.4 -7.41489 
1247 1 14.9573 5.97107 7.5 6.03194 -132255 -144036 -93185.2 13051.4 7781.91 -27359.4 -7.41396 
1248 1 15.6523 4.73512 7.5 6.03194 -141122 -138179 -81949.6 -10720.4 15909.6 -37318.7 -7.41463 
1249 1 14.9295 3.51523 7.5 6.03194 -133928 -142533 -92879.9 12562.8 1852.28 -29706.6 -7.41398 
1250 1 15.6245 2.27928 7.5 6.03192 -138573 -139741 -85870.6 -11408 11344.5 -35747.3 -7.4144 
1251 1 14.9017 1.05938 7.5 6.03192 -135946 -141074 -91439.7 12024.9 -3918.12 -31798.7 -7.41407 
1398 1 17.8208 8.39481 7.5 6.03194 -145096 -137539 -67601.6 -10383.9 22259.2 -42154.7 -7.41547 
1399 1 17.098 7.17491 7.5 6.03194 -131615 -145295 -89835.1 14452.1 8278.34 -28259.6 -7.41415 
1400 1 17.793 5.93897 7.5 6.03194 -142465 -138918 -72884.5 -11228.6 19007.8 -40930.2 -7.41516 
1401 1 17.0702 4.71907 7.5 6.03194 -133133 -144005 -89342.8 13987.3 2539.82 -30933.4 -7.41419 
1402 1 17.7652 3.48312 7.5 6.03194 -139869 -140319 -77730.6 -12008.2 15033.7 -39379.1 -7.41487 
1403 1 17.0424 2.26323 7.5 6.03192 -134992 -142651 -87702.6 13408.6 -3095.42 -33354.4 -7.41428 
1404 1 17.7374 1.02728 7.5 6.03192 -137415 -141818 -81931.9 -12768.2 10439 -37498.4 -7.41463 
1551 1 19.2387 8.37876 7.5 6.03194 -131046 -146386 -86805.9 15621.2 8405.65 -28448.4 -7.41433 
1552 1 19.9337 7.14281 7.5 6.03194 -143820 -139866 -62673.9 -11490.4 21777.7 -43921.9 -7.41576 
1553 1 19.2109 5.92291 7.5 6.03194 -132402 -145325 -86053.5 15193 2875.04 -31400.9 -7.41437 
1554 1 19.9059 4.68697 7.5 6.03194 -141198 -141110 -68388.5 -12350.2 18425.8 -42421.3 -7.41542 
1555 1 19.1831 3.46707 7.5 6.03194 -134121 -144181 -84142.3 14641.8 -2600.26 -34110.5 -7.41449 
1556 1 19.8781 2.23113 7.5 6.03192 -138647 -142360 -73614.1 -13137.8 14399.1 -40584.8 -7.41511 
1557 1 19.1553 1.01123 7.5 6.03192 -136172 -143071 -81183.7 14030.9 -7867.01 -36549.2 -7.41467 
1704 1 22.0745 8.34665 7.5 6.03194 -145171 -141005 -51442.5 -11515.4 24188 -46259.6 -7.41642 
1705 1 21.3516 7.12676 7.5 6.03194 -131741 -146469 -83171.5 16157.2 2892.29 -31181.7 -7.41454 
1706 1 22.0467 5.89081 7.5 6.03194 -142547 -142091 -57955.3 -12442.6 21479.5 -44835.1 -7.41604 
1707 1 21.3238 4.67092 7.5 6.03194 -133306 -145555 -80930.9 15645.8 -2408.29 -34130.8 -7.41467 
1708 1 22.0189 3.43497 7.5 6.03194 -139955 -143176 -64140.8 -13298.5 18053.1 -43074.1 -7.41567 
1709 1 21.296 2.21507 7.5 6.03192 -135202 -144567 -77624.4 15015.4 -7549.91 -36822.1 -7.41487 
1710 1 21.9911 0.979127 7.5 6.03192 -137497 -144338 -69786.7 -14130.2 14000.5 -40977 -7.41533 
1857 1 23.4923 8.3306 7.5 6.03194 -131155 -147424 -80827.6 16864.6 2634.94 -30358 -7.41467 
1858 1 24.1874 7.09466 7.5 6.03194 -143902 -143244 -46562.3 -12298.2 24161.4 -46591.3 -7.41671 
1859 1 23.4645 5.87476 7.5 6.03194 -132559 -146746 -78213.4 16401.5 -2483.32 -33493.1 -7.41483 
1860 1 24.1596 4.63881 7.5 6.03194 -141288 -144173 -53629.3 -13209.6 21358.1 -44932.7 -7.41629 
1861 1 23.4367 3.41892 7.5 6.03194 -134315 -145980 -74515.3 15814.1 -7487.02 -36387.2 -7.41505 
1862 1 24.1318 2.18297 7.5 6.03192 -138742 -145088 -60315.3 -14045.9 17876.7 -42940.2 -7.41589 
1863 1 23.4089 0.963076 7.5 6.03192 -136392 -145237 -69859.9 15166 -12234.1 -39014.6 -7.41533 
2010 1 26.3281 8.2985 7.5 6.03194 -145248 -144550 -34358.8 -11933.8 26443.5 -47664.6 -7.41743 
2011 1 25.6053 7.07861 7.5 6.03194 -131885 -147746 -76104.9 16896.8 -2782.08 -32280.4 -7.41495 
2012 1 26.3003 5.84266 7.5 6.03194 -142636 -145328 -42216.8 -12886.1 24278.9 -46132.5 -7.41696 
2013 1 25.5775 4.62276 7.5 6.03194 -133488 -147213 -71985.8 16360.4 -7640.68 -35324.4 -7.41519 
2014 1 26.2725 3.38682 7.5 6.03194 -140054 -146085 -49856.4 -13766.4 21393.7 -44272.4 -7.41651 
2015 1 25.5497 2.16692 7.5 6.03192 -135410 -146599 -66883.7 15707.6 -12289.1 -38120.1 -7.4155 
2016 1 26.2447 0.930973 7.5 6.03192 -137601 -146900 -57060.8 -14623.9 17871.7 -42087.8 -7.41608 
2163 1 27.746 8.28245 7.5 6.03194 -131291 -148551 -74690.2 17124.9 -3258.44 -30574.9 -7.41503 
2164 1 28.441 7.0465 7.5 6.03194 -143983 -146620 -30058.9 -12347.9 26786 -46647.5 -7.41769 
2165 1 27.7182 5.82661 7.5 6.03194 -132731 -148253 -70135.6 16644.4 -7967.91 -33714.7 -7.4153 
2166 1 28.4132 4.59066 7.5 6.03194 -141385 -147232 -38553.1 -13257.9 24514.9 -44944.6 -7.41718 
2167 1 27.6904 3.37076 7.5 6.03194 -134512 -147860 -64572 16046.1 -12510.9 -36626.2 -7.41563 
2168 1 28.3854 2.13482 7.5 6.03192 -138851 -147812 -46770.7 -14096.7 21556.8 -42924.5 -7.41669 
2169 1 27.6626 0.914922 7.5 6.03192 -136603 -147483 -58139.4 15393.2 -16754.2 -39286.9 -7.41601 
2316 1 30.5818 8.25035 7.5 6.03194 -145319 -148024 -17328.5 -11618.8 28854.3 -46452.3 -7.41844 
2317 1 29.8589 7.03045 7.5 6.03194 -132052 -149098 -69034 16662 -8423.89 -31636.5 -7.41536 
2318 1 30.554 5.7945 7.5 6.03194 -142724 -148502 -26567.3 -12542.8 27209.6 -44928.7 -7.41789 
2319 1 29.8311 4.57461 7.5 6.03194 -133679 -148935 -63009 16122.9 -12856.8 -34610.7 -7.41572 
2320 1 30.5262 3.33866 7.5 6.03194 -140161 -148940 -35690.5 -13400.2 24835.8 -43097.7 -7.41735 
2321 1 29.8033 2.11877 7.5 6.03192 -135613 -148684 -56081.6 15476.6 -17035.6 -37354.6 -7.41613 
2322 1 30.4984 0.882819 7.5 6.03192 -137726 -149421 -44477.3 -14241.9 21811.6 -40964.3 -7.41682 
2469 1 31.9996 8.2343 7.5 6.03194 -131456 -149746 -68720.3 16411.6 -8964.02 -29163.5 -7.41538 
2470 1 32.6947 6.99835 7.5 6.03194 -144059 -149868 -14078.8 -11647.2 29452.4 -44198.3 -7.41864 
2471 1 31.9718 5.77845 7.5 6.03194 -132919 -149813 -62249.3 15935.2 -13283 -32147.8 -7.41576 
2472 1 32.6669 4.54251 7.5 6.03194 -141483 -150183 -23989.2 -12507.6 27677.5 -42577.4 -7.41804 
2473 1 31.944 3.32261 7.5 6.03194 -134712 -149776 -54841.7 15352.1 -17392.5 -34922.7 -7.4162 
2474 1 32.6391 2.08666 7.5 6.03192 -138973 -150448 -33719.7 -13305.4 25203.4 -40664.9 -7.41746 
2475 1 31.9162 0.866768 7.5 6.03192 -136803 -149745 -46648.9 14726.3 -21166.1 -37469.2 -7.41669 
2622 1 34.8354 8.20219 7.5 6.03194 -145379 -151298 -1284.65 -10600.6 31224.4 -42731.7 -7.4194 
2623 1 34.1126 6.9823 7.5 6.03194 -132239 -150492 -62317.9 15483.2 -13746.2 -29308.9 -7.41576 
2624 1 34.8076 5.74635 7.5 6.03194 -142808 -151504 -11853.7 -11446.9 30057.1 -41337.6 -7.41877 
2625 1 34.0848 4.52646 7.5 6.03194 -133876 -150677 -54460 14967.7 -17781.9 -32062.4 -7.41623 
2626 1 34.7798 3.29051 7.5 6.03194 -140274 -151652 -22400.9 -12237.4 28149.6 -39665.2 -7.41814 
2627 1 34.057 2.07061 7.5 6.03192 -135810 -150763 -45775.4 14357.9 -21527.6 -34609.2 -7.41674 
2628 1 34.752 0.834665 7.5 6.03192 -137867 -151827 -32701.6 -13023.6 25577.6 -37719.6 -7.41752 
2775 1 36.2533 8.18614 7.5 6.03194 -131640 -150967 -63211 14768.9 -14203.4 -26164.8 -7.41571 
2776 1 36.9483 6.9502 7.5 6.03194 -144127 -152866 512.08 -10251.6 31957.2 -39360.3 -7.41951 
2777 1 36.2255 5.7303 7.5 6.03194 -133116 -151374 -54947.5 14323.3 -18161.1 -28844.5 -7.4162 
2778 1 36.9205 4.49435 7.5 6.03194 -141581 -152920 -10715.2 -11017.2 30626.5 -37941.7 -7.41883 
2779 1 36.1977 3.27446 7.5 6.03194 -134908 -151665 -45815.5 13786.1 -21874.7 -31339.6 -7.41674 
2780 1 36.8927 2.03851 7.5 6.03192 -139105 -152906 -21849 -11732.6 28584.6 -36264.7 -7.41817 
2781 1 36.1699 0.818614 7.5 6.03192 -136987 -151947 -35975.4 13220.7 -25222.7 -33634.5 -7.41733 
2927 1 38.394 9.38999 7.5 6.03194 -131122 -151236 -64895.3 13797 -14611.5 -22789.7 -7.41561 
2928 1 39.089 8.15404 7.5 6.03194 -145428 -154230 12889.8 -8954.94 33369 -36641.2 -7.42025 
2929 1 38.3662 6.93414 7.5 6.03194 -132432 -151863 -56286.7 13424.2 -18487.7 -25342.2 -7.41612 
2930 1 39.0612 5.6982 7.5 6.03194 -142889 -154206 1126.98 -9678.28 32618.9 -35483 -7.41954 
2931 1 38.3384 4.4783 7.5 6.03194 -134071 -152364 -46766.8 12962.9 -22165 -27732.9 -7.41668 
2932 1 39.0334 3.24235 7.5 6.03194 -140390 -154106 -10695.5 -10358.3 31118.2 -34084.8 -7.41883 
2933 1 38.3106 2.02246 7.5 6.03192 -135993 -152751 -36489.4 12424.4 -25523.7 -29947.2 -7.4173 
2934 1 39.0056 0.786512 7.5 6.03192 -138020 -154016 -22350.4 -11048.5 28941.1 -32450.3 -7.41814 
3080 1 41.2298 9.35788 7.5 6.03194 -146707 -155549 25050.1 -7593.28 34294.1 -33194.9 -7.42098 
3081 1 40.5069 8.13799 7.5 6.03194 -131823 -152140 -58430.3 12276.3 -18718.3 -21634.7 -7.416 
3082 1 41.202 6.90204 7.5 6.03194 -144188 -155467 12902.6 -8257.25 34121.5 -32295.4 -7.42025 
3083 1 40.4791 5.68215 7.5 6.03194 -133304 -152848 -48597.6 11894 -22356.3 -23867.2 -7.41658 
3084 1 41.1742 4.4462 7.5 6.03194 -141677 -155307 542.828 -8884.99 33166 -31178.1 -7.41951 
3085 1 40.4513 3.2263 7.5 6.03194 -135088 -153425 -37956.9 11437.5 -25722.7 -25948.6 -7.41721 
3086 1 41.1464 1.99036 7.5 6.03192 -139240 -155061 -11796.7 -9476.51 31489.9 -29845.2 -7.41877 
3087 1 40.4235 0.77046 7.5 6.03192 -137148 -153978 -26675.6 10969.3 -28699.8 -27866.1 -7.41788 
3233 1 42.6476 9.34183 7.5 6.03194 -131287 -152204 -61301.8 10890.1 -18808.4 -17809.9 -7.41583 
3234 1 43.3427 8.10589 7.5 6.03194 -145470 -156655 24379.9 -6791.32 35139.6 -28407.3 -7.42094 
3235 1 42.6198 6.88599 7.5 6.03194 -132606 -153114 -51246.9 10588.2 -22405.3 -19829 -7.41642 
3236 1 43.3149 5.65004 7.5 6.03194 -142963 -156453 11639.7 -7349.5 34726.3 -27563.9 -7.42017 
3237 1 42.592 4.43015 7.5 6.03194 -134241 -153883 -40332.4 10216.9 -25777.4 -21723.6 -7.41707 
3238 1 43.2871 3.1942 7.5 6.03194 -140502 -156158 -1226.73 -7878.2 33555 -26530.2 -7.4194 
3239 1 42.5642 1.9743 7.5 6.03192 -136149 -154522 -28718.9 9785.79 -28808.1 -23482.2 -7.41776 
3240 1 43.2593 0.738358 7.5 6.03192 -138172 -155856 -13990.6 -8432.08 31699.3 -25307.3 -7.41864 
3387 1 44.7606 8.08983 7.5 6.03194 -131975 -153162 -54623.7 9058.72 -22267.3 -15714.4 -7.41623 
3389 1 44.7328 5.63399 7.5 6.03194 -133457 -154115 -43540.2 8773.71 -25644.6 -17367.7 -7.41688 
3391 1 44.705 3.17815 7.5 6.03194 -135231 -154922 -31697.7 8434.26 -28728.8 -18914.5 -7.41759 
3393 1 44.6772 0.722307 7.5 6.03192 -137273 -155689 -19268.6 8100.28 -31404.9 -20344.8 -7.41833 
3386 1 45.4834 9.30973 7.5 6.03194 -146733 -157724 35324.3 -5317.43 35689.9 -23871.9 -7.4216 
3388 1 45.4556 6.85389 7.5 6.03194 -144241 -157499 22363.4 -5789.87 35808.2 -23286.1 -7.42082 
3390 1 45.4278 4.39804 7.5 6.03194 -141765 -157180 9131.52 -6240.09 35138.3 -22539.5 -7.42002 
3392 1 45.4 1.9422 7.5 6.03192 -139365 -156761 -4137.26 -6668.98 33742.3 -21631.9 -7.41923 
3539 1 46.9013 9.29368 7.5 6.03194 -131406 -152999 -58607.8 7324.29 -21896.9 -11628.5 -7.416 
3540 1 47.5963 8.05773 7.5 6.03194 -145506 -158398 32483 -4243.23 36432 -18413.8 -7.42143 
3541 1 46.8735 6.83784 7.5 6.03194 -132732 -154125 -47475.2 7124.93 -25280.3 -12985.7 -7.41665 
3542 1 47.5685 5.60189 7.5 6.03194 -143027 -158074 19048.8 -4600.1 36253.1 -17933.1 -7.42062 
3543 1 46.8457 4.38199 7.5 6.03194 -134364 -155096 -35521.7 6877.57 -28419.1 -14267.5 -7.41736 
3544 1 47.5407 3.14605 7.5 6.03194 -140599 -157643 5440.35 -4941.46 35312.8 -17324 -7.4198 
3545 1 46.8179 1.92615 7.5 6.03192 -136258 -155923 -22913.2 6589.31 -31199.2 -15465.2 -7.41811 
3546 1 47.5129 0.690204 7.5 6.03192 -138305 -157190 -8113.16 -5322.5 33684.6 -16585.1 -7.41899 
3692 1 49.7371 9.26158 7.5 6.03194 -146753 -159108 41775.1 -2744.04 36627.9 -13039.8 -7.42199 
3693 1 49.0142 8.04168 7.5 6.03194 -132063 -153923 -52003.3 5292.74 -24640.4 -8690.02 -7.41639 
3694 1 49.7093 6.80573 7.5 6.03194 -144284 -158795 28300.5 -2994.49 36922.7 -12795.6 -7.42117 
3695 1 48.9864 5.58584 7.5 6.03194 -133548 -155045 -40071 5135.35 -27836.1 -9654.71 -7.41709 
3696 1 49.6815 4.34989 7.5 6.03194 -141836 -158378 14517.2 -3235.77 36427.7 -12459.2 -7.42035 
3697 1 48.9586 3.13 7.5 6.03194 -135316 -156007 -27412.8 4943.87 -30723.2 -10569 -7.41784 
3698 1 49.6537 1.89405 7.5 6.03192 -139466 -157847 659.652 -3469.47 35205.3 -12028.2 -7.41952 
3699 1 48.9308 0.674153 7.5 6.03192 -137345 -156917 -14204.2 4776.17 -33188.2 -11425.7 -7.41863 
3845 1 51.1549 9.24553 7.5 6.03194 -131448 -153529 -56963.6 3306.79 -23682.8 -4595.06 -7.4161 
3846 1 51.85 8.00958 7.5 6.03194 -145533 -159307 36673.7 -1456.79 37179.7 -7233.28 -7.42168 
3847 1 51.1271 6.78968 7.5 6.03194 -132782 -154782 -45197.8 3233.67 -26938 -5194.15 -7.41679 
3848 1 51.8222 5.55374 7.5 6.03194 -143075 -158919 22877.8 -1586.94 37113.6 -7136.48 -7.42085 
3849 1 51.0993 4.33384 7.5 6.03194 -134414 -155870 -32632.8 3136.07 -29935.6 -5776.33 -7.41753 
3850 1 51.7944 3.09789 7.5 6.03194 -140670 -158415 8881.41 -1715.11 36286.7 -6983.32 -7.42001 
3851 1 51.0715 1.878 7.5 6.03192 -136304 -156805 -19437.3 3017.05 -32562.5 -6336.62 -7.41832 
3852 1 51.7666 0.64205 7.5 6.03192 -138399 -157880 -5086.49 -1896.23 34772.6 -6770.21 -7.41917 
3998 1 53.9907 9.21342 7.5 6.03194 -146771 -159577 43973.5 -17.0904 37063.2 -1368.15 -7.42212 
3999 1 53.2679 7.99353 7.5 6.03194 -132064 -154333 -50729.2 1205.7 -25686.2 -1002.34 -7.41646 
4000 1 53.9629 6.75758 7.5 6.03194 -144314 -159232 30321.6 -27.1637 37404.8 -1472.68 -7.4213 
4001 1 53.2401 5.53768 7.5 6.03194 -133556 -155526 -38411.5 1194.43 -28797.5 -1208.77 -7.41719 
4002 1 53.9351 4.30174 7.5 6.03194 -141880 -158777 16347 -41.1759 36958.3 -1560.9 -7.42046 
4003 1 53.2123 3.08184 7.5 6.03194 -135326 -156556 -25380.6 1170.69 -31590.9 -1428.19 -7.41797 
4004 1 53.9073 1.84589 7.5 6.03192 -139527 -158204 2283.52 -60.0929 35786.9 -1628.62 -7.41961 
4005 1 53.1845 0.625999 7.5 6.03192 -137355 -157528 -11814.1 1188.68 -33953.2 -1656.88 -7.41877 
4151 1 55.4086 9.19737 7.5 6.03194 -131397 -153730 -56472.2 -908.818 -24047.9 2812.5 -7.41613 
4152 1 56.1036 7.96142 7.5 6.03194 -145551 -159293 36670 1415.46 37341.2 4403.63 -7.42168 
4153 1 55.3808 6.74153 7.5 6.03194 -132740 -155004 -44564.6 -845.139 -27274.5 3018.01 -7.41683 
4154 1 56.0758 5.50558 7.5 6.03194 -143099 -158900 22870.7 1522.63 37256.1 4114.57 -7.42085 
4155 1 55.353 4.28569 7.5 6.03194 -134381 -156113 -31859.3 -782.354 -30237.8 3177.91 -7.41758 
4156 1 56.048 3.04974 7.5 6.03194 -140702 -158389 8868.93 1619.34 36413.9 3805.56 -7.42001 
4157 1 55.3252 1.82984 7.5 6.03192 -136277 -157067 -18526.2 -720.367 -32824.1 3293.15 -7.41837 
4158 1 56.0202 0.593897 7.5 6.03192 -138441 -157846 -5107.11 1650.13 34888.8 3482.08 -7.41917 
4304 1 58.2443 9.16527 7.5 6.03194 -146782 -159086 41770.3 2717.6 36966 10359 -7.42198 
4305 1 57.5215 7.94537 7.5 6.03194 -131971 -154341 -50890.7 -2941.07 -25339.7 6800.99 -7.41645 
4306 1 58.2165 6.70943 7.5 6.03194 -144325 -158763 28290.8 2949.92 37220.4 9911.59 -7.42117 
4307 1 57.4937 5.48953 7.5 6.03194 -133474 -155503 -38678.2 -2804.31 -28473.5 7369.99 -7.41718 
4308 1 58.1887 4.25358 7.5 6.03194 -141891 -158334 14499.3 3166.11 36691.1 9404.11 -7.42035 
4309 1 57.4659 3.03369 7.5 6.03194 -135256 -156504 -25743.8 -2658 -31286.7 7862.05 -7.41794 
4310 1 58.1609 1.79774 7.5 6.03192 -139539 -157789 628.968 3364.8 35442.6 8842.28 -7.41951 
4311 1 57.4381 0.577845 7.5 6.03192 -137297 -157450 -12265.6 -2451.71 -33665.5 8277.19 -7.41875 
4457 1 59.6622 9.14922 7.5 6.03194 -131254 -153579 -57177.7 -5046.58 -22976 10056 -7.41608 
4458 1 60.3573 7.91327 7.5 6.03194 -145554 -158358 32474 4219.22 36893.7 15698.3 -7.42142 
4459 1 59.6344 6.69338 7.5 6.03194 -132609 -154766 -45628.4 -4852.68 -26277 11053.4 -7.41676 
4460 1 60.3295 5.45743 7.5 6.03194 -143096 -158019 19030.9 4557.54 36659.4 15036.1 -7.42062 
4461 1 59.6066 4.23753 7.5 6.03194 -134265 -155796 -33262.4 -4635.88 -29316.5 11945.9 -7.4175 
4462 1 60.3017 3.00159 7.5 6.03194 -140691 -157567 5408.13 4873.41 35674.3 14280.8 -7.4198 
4463 1 59.5788 1.78169 7.5 6.03192 -136179 -156677 -20249.1 -4400.39 -31979.2 12730.4 -7.41827 
4464 1 60.2739 0.545743 7.5 6.03192 -138423 -157090 -8167.55 5109.89 34014.2 13439.5 -7.41899 
4610 1 62.498 9.11712 7.5 6.03194 -146782 -157682 35318.4 5312.9 36319.9 21348 -7.4216 
4611 1 61.7751 7.89722 7.5 6.03194 -131795 -153949 -52493.7 -6880.64 -23637.9 14155.4 -7.41636 
4612 1 62.4702 6.66127 7.5 6.03194 -144313 -157438 22349.7 5774.4 36360.7 20574.5 -7.42082 
4613 1 61.7473 5.44138 7.5 6.03194 -133312 -154979 -40866.3 -6611.24 -26898.2 15461.2 -7.41704 
4614 1 62.4424 4.20543 7.5 6.03194 -141865 -157095 9104.33 6207.17 35625.1 19671.1 -7.42002 
4615 1 61.7195 2.98553 7.5 6.03194 -135116 -155859 -28487.8 -6310.29 -29842.4 16632.8 -7.41778 
4616 1 62.4146 1.74959 7.5 6.03192 -139499 -156647 -4186.07 6609.23 34178.8 18645 -7.41923 
4617 1 61.6917 0.529692 7.5 6.03192 -137182 -156696 -15535.1 -5931.04 -32354.3 17666.4 -7.41855 
4763 1 63.9159 9.10106 7.5 6.03194 -131041 -153098 -59059.2 -8839.85 -20557.9 16628.7 -7.41597 
4764 1 64.6109 7.86512 7.5 6.03194 -145538 -156594 24372.9 6800.96 35837.6 25900.5 -7.42094 
4765 1 63.8881 6.64522 7.5 6.03194 -132408 -154102 -48337.1 -8537.97 -24027.6 18348.9 -7.4166 
4766 1 64.5831 5.40927 7.5 6.03194 -143061 -156366 11622 7349.78 35336.7 24893.5 -7.42017 
4767 1 63.8603 4.18938 7.5 6.03194 -134084 -154961 -36761.6 -8190.16 -27245.4 19914.6 -7.41728 
4768 1 64.5553 2.95343 7.5 6.03194 -140637 -156039 -1262.83 7863.33 34094.4 23729.5 -7.4194 
4769 1 63.8325 1.73354 7.5 6.03192 -136026 -155687 -24499.2 -7804.02 -30092.7 21318.4 -7.41801 
4770 1 64.5275 0.497589 7.5 6.03192 -138350 -155698 -14056.5 8284.06 32187.8 22417 -7.41864 
4916 1 66.7516 9.06896 7.5 6.03194 -146763 -155494 25050.8 7625.33 35133 30905.9 -7.42098 
4917 1 66.0288 7.84907 7.5 6.03194 -131563 -153211 -55460.5 -10369.6 -20712.8 20575.8 -7.41617 
4918 1 66.7238 6.61312 7.5 6.03194 -144274 -155384 12897.1 8288.29 34851.1 29838.6 -7.42025 
4919 1 66.001 5.39322 7.5 6.03194 -133098 -154024 -44850.7 -9995.74 -24189.8 22531.6 -7.4168 
4920 1 66.696 4.15728 7.5 6.03194 -141803 -155190 524.179 8910.22 33802.6 28582.6 -7.41951 
4921 1 65.9732 2.93738 7.5 6.03194 -134928 -154703 -33443.5 -9570.27 -27361.9 24307.6 -7.41748 
4922 1 66.6682 1.70143 7.5 6.03192 -139412 -154903 -11838.5 9488.19 32055 27146.7 -7.41877 
4923 1 65.9454 0.481538 7.5 6.03192 -137027 -155354 -21413.4 -9047.78 -30109.9 25896.1 -7.4182 
5069 1 68.1695 9.05291 7.5 6.03194 -130793 -152351 -62033.6 -12061.2 -16973.5 22133.8 -7.41578 
5070 1 68.8646 7.81696 7.5 6.03194 -145496 -154158 12897.2 9012.77 34210.3 34408.2 -7.42025 
5071 1 68.1417 6.59707 7.5 6.03194 -132170 -153094 -52543 -11682.9 -20688.9 24465.5 -7.41634 
5072 1 68.8368 5.36112 7.5 6.03194 -142996 -154100 1128.05 9739.8 33345.2 33105.1 -7.41954 
5073 1 68.1139 4.14122 7.5 6.03194 -133868 -153710 -42148.6 -11238.1 -24168.7 26605.3 -7.41696 
5074 1 68.809 2.90528 7.5 6.03194 -140544 -153957 -10709.1 10418.2 31750.8 31593.3 -7.41883 
5075 1 68.0861 1.68538 7.5 6.03192 -135841 -154209 -31012.4 -10736 -27290.9 28541.9 -7.41762 
5076 1 68.7811 0.449435 7.5 6.03192 -138230 -153816 -22391.6 10990.4 29505.7 29882.8 -7.41814 
5222 1 71.0053 9.02081 7.5 6.03194 -146716 -152701 11622.2 9516.14 33456.7 38514.9 -7.42017 
5223 1 70.2824 7.80091 7.5 6.03194 -131315 -152214 -59640.4 -13209.4 -16767.3 25720.6 -7.41592 
5224 1 70.9775 6.56496 7.5 6.03194 -144205 -152779 532.771 10344.1 32763.8 37208.4 -7.41951 
5225 1 70.2546 5.34507 7.5 6.03194 -132865 -152746 -50405.7 -12766.6 -20531 28206.9 -7.41647 
5226 1 70.9497 4.10912 7.5 6.03194 -141707 -152790 -10699.2 11118.5 31316.6 35667.2 -7.41883 
5227 1 70.2268 2.88923 7.5 6.03194 -134721 -153160 -40315.3 -12253.4 -24007.7 30479.8 -7.41707 
5228 1 70.9219 1.65328 7.5 6.03192 -139287 -152724 -21847.6 11836.2 29184.2 33901 -7.41817 
5229 1 70.199 0.433384 7.5 6.03192 -136855 -153563 -29539.3 -11625.7 -27074.4 32527.8 -7.41771 
5375 1 72.4232 9.00476 7.5 6.03194 -130549 -151421 -65964.2 -14536.8 -12459.2 26320.7 -7.41555 
5376 1 73.1182 7.76881 7.5 6.03194 -145421 -151239 -1246.75 10718.3 32100.6 40812.9 -7.4194 
5377 1 72.3954 6.54891 7.5 6.03194 -131932 -151851 -58022.5 -14117 -16476.9 29127.9 -7.41602 
5378 1 73.0904 5.31297 7.5 6.03194 -142896 -151403 -11809.7 11583.9 30794.3 39288 -7.41877 
5379 1 72.3676 4.09307 7.5 6.03194 -133649 -152168 -49117.8 -13612.7 -20282 31717.3 -7.41654 
5380 1 73.0626 2.85712 7.5 6.03194 -140417 -151499 -22357.5 12389 28772.5 37514.3 -7.41814 
5381 1 72.3398 1.63723 7.5 6.03192 -135651 -152384 -39405.7 -13033.2 -23748.4 34073 -7.41712 
5382 1 73.0348 0.401281 7.5 6.03192 -138076 -151613 -32671.1 13074.2 26116.2 35502.6 -7.41752 
5528 1 75.2589 8.97265 7.5 6.03194 -146633 -149490 -4164.94 10861.6 31398 43845.7 -7.41923 
5529 1 74.5361 7.75276 7.5 6.03194 -131086 -151058 -64827 -15254.2 -12043.4 29399.6 -7.41561 
5530 1 75.2311 6.51681 7.5 6.03194 -144100 -149807 -14011.5 11811.6 30225.9 42382 -7.41864 
5531 1 74.5083 5.29692 7.5 6.03194 -132645 -151263 -57233.8 -14778.2 -16144.6 32278.6 -7.41606 
5532 1 75.2033 4.06097 7.5 6.03194 -141576 -150073 -23907.9 12697.7 28312.3 40648.3 -7.41805 
5533 1 74.4805 2.84107 7.5 6.03194 -134523 -151365 -48718.8 -14214.9 -19982.9 34920.4 -7.41657 
5534 1 75.1755 1.60513 7.5 6.03192 -139132 -150278 -33632.2 13515.4 25729.1 38654.5 -7.41747 
5535 1 74.4527 0.38523 7.5 6.03192 -136686 -151471 -39445.9 -13520.8 -23431.5 37308.9 -7.41712 
5681 1 76.6768 8.9566 7.5 6.03194 -130345 -150394 -70671.5 -16148.1 -7275.39 29064.4 -7.41526 
5682 1 77.3718 7.72066 7.5 6.03194 -145308 -148013 -17245.8 11802.6 29653.2 44879.7 -7.41845 
5683 1 76.649 6.50076 7.5 6.03194 -131726 -150474 -64498.6 -15718.5 -11634.6 32200.1 -7.41563 
5684 1 77.344 5.26481 7.5 6.03194 -142760 -148445 -26456.1 12762.8 27845.7 43232.5 -7.4179 
5685 1 76.6212 4.04492 7.5 6.03194 -133453 -150455 -57298.9 -15189.2 -15811.1 35100 -7.41606 
5686 1 77.3162 2.80897 7.5 6.03194 -140258 -148826 -35554.2 13653.5 25336.5 41305.6 -7.41735 
5687 1 76.5934 1.58907 7.5 6.03192 -135476 -150348 -49219.2 -14569.7 -19674.4 37743.3 -7.41654 
5688 1 77.2884 0.353128 7.5 6.03192 -137897 -149240 -44325 14413.1 22210.7 39109.3 -7.41683 
5834 1 79.5126 8.9245 7.5 6.03194 -146507 -146033 -21424.1 11563.1 29116.8 46714.5 -7.4182 
5835 1 78.7897 7.7046 7.5 6.03194 -130908 -149826 -70771.5 -16406.4 -6798.36 31525.6 -7.41526 
5836 1 79.4848 6.46866 7.5 6.03194 -143956 -146627 -29930.1 12588.3 27413.8 45198.5 -7.41769 
5837 1 78.7619 5.24876 7.5 6.03194 -132465 -149674 -64988.5 -15927.8 -11273.3 34650.2 -7.4156 
5838 1 79.457 4.01281 7.5 6.03194 -141413 -147187 -38380.4 13543 24980.4 43386.1 -7.41719 
5839 1 78.7341 2.79292 7.5 6.03194 -134352 -149429 -58213.3 -15348.3 -15516.6 37519.7 -7.41601 
5840 1 79.4292 1.55697 7.5 6.03192 -138949 -147702 -46557.3 14420.3 21892.6 41285.9 -7.4167 
5841 1 78.7063 0.337076 7.5 6.03192 -136534 -149203 -50601.4 -14624.1 -19396.4 40113.4 -7.41646 
5987 1 80.9304 8.90845 7.5 6.03194 -130207 -149332 -75938.1 -16820.9 -1689.23 30304.2 -7.41495 
5989 1 80.9026 6.45261 7.5 6.03194 -131573 -149040 -71654 -16407.4 -6416.98 33614.4 -7.41521 
5991 1 80.8748 3.99676 7.5 6.03194 -133299 -148657 -66277.2 -15882.5 -10999.8 36675.9 -7.41553 
5993 1 80.847 1.54092 7.5 6.03192 -135330 -148197 -59943.6 -15255.6 -15301.6 39463 -7.41591 
5988 1 81.6255 7.6725 7.5 6.03194 -145152 -144630 -34228.7 12181.8 27055.1 46479.3 -7.41744 
5990 1 81.5977 5.21666 7.5 6.03194 -142587 -145362 -42025.5 13190.3 24700.9 44826.5 -7.41697 
5992 1 81.5699 2.76082 7.5 6.03194 -140070 -146060 -49601.1 14123.8 21656.2 42870.5 -7.41652 
5994 1 81.5421 0.304974 7.5 6.03192 -137698 -146806 -56745.7 14919.2 18012.9 40620.5 -7.4161 
6140 1 83.7662 8.87635 7.5 6.03194 -146337 -142472 -39221.9 11559.7 26802.6 47012.3 -7.41714 
6141 1 83.0434 7.65645 7.5 6.03194 -130794 -148569 -77186.9 -16608 -1296.96 32039.6 -7.41488 
6142 1 83.7384 6.4205 7.5 6.03194 -143771 -143366 -46375.1 12608 24533.7 45558.5 -7.41672 
6143 1 83.0156 5.20061 7.5 6.03194 -132337 -148041 -73283.7 -16151.3 -6172.32 35253.2 -7.41512 
6144 1 83.7106 3.96466 7.5 6.03194 -141215 -144245 -53356.5 13585.4 21540.3 43791.3 -7.4163 
6145 1 82.9878 2.74477 7.5 6.03194 -134220 -147428 -68315.7 -15584.3 -10855 38199 -7.41541 
6146 1 83.6828 1.50882 7.5 6.03192 -138743 -145095 -59953.6 14481.9 17905.4 41716.3 -7.41591 
6147 1 82.96 0.288923 7.5 6.03192 -136407 -146844 -62428 -14863.4 -15205.9 40851.4 -7.41576 
6293 1 85.1841 8.8603 7.5 6.03194 -130141 -148268 -81506.1 -16516.8 4024.13 29977.3 -7.41463 
6294 1 85.8791 7.62435 7.5 6.03194 -144955 -141219 -51286.5 11815.2 24507.4 45519.4 -7.41643 
6295 1 85.1563 6.40445 7.5 6.03194 -131482 -147591 -79130.2 -16138.5 -1090.25 33296.3 -7.41477 
6296 1 85.8513 5.16851 7.5 6.03194 -142378 -142265 -57695.4 12821 21577.4 43978.7 -7.41605 
6297 1 85.1285 3.94861 7.5 6.03194 -133191 -146829 -75595.7 -15642.8 -6105.93 36359.7 -7.41498 
6298 1 85.8235 2.71266 7.5 6.03194 -139853 -143295 -63765.7 13752.2 17963.5 42121.8 -7.41569 
6299 1 85.1007 1.49277 7.5 6.03192 -135216 -145999 -71025.4 -15038.7 -10879.1 39136.8 -7.41526 
6300 1 85.7957 0.25682 7.5 6.03192 -137481 -144389 -69293.2 14543.7 13767 39955.1 -7.41536 
6446 1 88.0199 8.82819 7.5 6.03194 -146128 -138950 -56591.2 10837.4 24639.5 44657.4 -7.41612 
6447 1 87.297 7.6083 7.5 6.03194 -130748 -147316 -83740.6 -15832.8 4181.33 30855.5 -7.4145 
6448 1 87.9921 6.37235 7.5 6.03194 -143550 -140144 -62461.9 11853.3 21790.7 43370.8 -7.41577 