(written by TR)

15608	atoms
2	atom types
0	108.481827	xlo xhi
0	187.896036	ylo yhi
0	18.4	zlo zhi


Masses

1	12
2	12

Atoms

1 1 1 0 0.69503994 186.66009188 7.50000000 0 0 0
2 1 1 0 0.66723835 184.20424924 7.50000000 0 0 0
3 1 1 0 0.63943675 181.74840660 7.50000000 0 0 0
4 1 1 0 0.61163515 179.29256396 7.50000000 0 0 0
5 1 1 0 0.58383356 176.83672132 7.50000000 0 0 0
6 1 1 0 0.55603196 174.38087868 7.50000000 0 0 0
7 1 1 0 0.52823036 171.92503604 7.50000000 0 0 0
8 1 1 0 0.50042877 169.46919340 7.50000000 0 0 0
9 1 1 0 0.47262717 167.01335076 7.50000000 0 0 0
10 1 1 0 0.44482557 164.55750812 7.50000000 0 0 0
11 1 1 0 0.41702398 162.10166548 7.50000000 0 0 0
12 1 1 0 0.38922238 159.64582284 7.50000000 0 0 0
13 1 1 0 0.36142078 157.18998020 7.50000000 0 0 0
14 1 1 0 0.33361919 154.73413756 7.50000000 0 0 0
15 1 1 0 0.30581759 152.27829492 7.50000000 0 0 0
16 1 1 0 0.27801599 149.82245228 7.50000000 0 0 0
17 1 1 0 0.25021440 147.36660964 7.50000000 0 0 0
18 1 1 0 0.22241280 144.91076700 7.50000000 0 0 0
19 1 1 0 0.19461120 142.45492436 7.50000000 0 0 0
20 1 1 0 0.16680960 139.99908173 7.50000000 0 0 0
21 1 1 0 0.13900801 137.54323909 7.50000000 0 0 0
22 1 1 0 0.11120641 135.08739645 7.50000000 0 0 0
23 1 1 0 0.08340481 132.63155381 7.50000000 0 0 0
24 1 1 0 0.05560322 130.17571117 7.50000000 0 0 0
25 1 1 0 0.02780162 127.71986853 7.50000000 0 0 0
26 1 1 0 0.00000002 125.26402589 7.50000000 0 0 0
27 1 1 0 2.83576286 187.86393631 7.50000000 0 0 0
28 1 1 0 2.11292135 186.64404062 7.50000000 0 0 0
29 1 1 0 2.80796126 185.40809367 7.50000000 0 0 0
30 1 1 0 2.08511976 184.18819798 7.50000000 0 0 0
31 1 1 0 2.78015966 182.95225103 7.50000000 0 0 0
32 1 1 0 2.05731816 181.73235534 7.50000000 0 0 0
33 1 1 0 2.75235806 180.49640839 7.50000000 0 0 0
34 1 1 0 2.02951656 179.27651270 7.50000000 0 0 0
35 1 1 0 2.72455647 178.04056575 7.50000000 0 0 0
36 1 1 0 2.00171497 176.82067006 7.50000000 0 0 0
37 1 1 0 2.69675487 175.58472311 7.50000000 0 0 0
38 1 1 0 1.97391337 174.36482742 7.50000000 0 0 0
39 1 1 0 2.66895327 173.12888047 7.50000000 0 0 0
40 1 1 0 1.94611177 171.90898478 7.50000000 0 0 0
41 1 1 0 2.64115168 170.67303783 7.50000000 0 0 0
42 1 1 0 1.91831017 169.45314214 7.50000000 0 0 0
43 1 1 0 2.61335008 168.21719519 7.50000000 0 0 0
44 1 1 0 1.89050858 166.99729950 7.50000000 0 0 0
45 1 1 0 2.58554848 165.76135255 7.50000000 0 0 0
46 1 1 0 1.86270698 164.54145686 7.50000000 0 0 0
47 1 1 0 2.55774689 163.30550991 7.50000000 0 0 0
48 1 1 0 1.83490538 162.08561422 7.50000000 0 0 0
49 1 1 0 2.52994529 160.84966727 7.50000000 0 0 0
50 1 1 0 1.80710379 159.62977158 7.50000000 0 0 0
51 1 1 0 2.50214369 158.39382463 7.50000000 0 0 0
52 1 1 0 1.77930219 157.17392894 7.50000000 0 0 0
53 1 1 0 2.47434210 155.93798199 7.50000000 0 0 0
54 1 1 0 1.75150059 154.71808630 7.50000000 0 0 0
55 1 1 0 2.44654050 153.48213935 7.50000000 0 0 0
56 1 1 0 1.72369900 152.26224366 7.50000000 0 0 0
57 1 1 0 2.41873890 151.02629672 7.50000000 0 0 0
58 1 1 0 1.69589740 149.80640102 7.50000000 0 0 0
59 1 1 0 2.39093731 148.57045408 7.50000000 0 0 0
60 1 1 0 1.66809580 147.35055839 7.50000000 0 0 0
61 1 1 0 2.36313571 146.11461144 7.50000000 0 0 0
62 1 1 0 1.64029421 144.89471575 7.50000000 0 0 0
63 1 1 0 2.33533411 143.65876880 7.50000000 0 0 0
64 1 1 0 1.61249261 142.43887311 7.50000000 0 0 0
65 1 1 0 2.30753252 141.20292616 7.50000000 0 0 0
66 1 1 0 1.58469101 139.98303047 7.50000000 0 0 0
67 1 1 0 2.27973092 138.74708352 7.50000000 0 0 0
68 1 1 0 1.55688942 137.52718783 7.50000000 0 0 0
69 1 1 0 2.25192932 136.29124088 7.50000000 0 0 0
70 1 1 0 1.52908782 135.07134519 7.50000000 0 0 0
71 1 1 0 2.22412773 133.83539824 7.50000000 0 0 0
72 1 1 0 1.50128622 132.61550255 7.50000000 0 0 0
73 1 1 0 2.19632613 131.37955560 7.50000000 0 0 0
74 1 1 0 1.47348463 130.15965991 7.50000000 0 0 0
75 1 1 0 2.16852453 128.92371296 7.50000000 0 0 0
76 1 1 0 1.44568303 127.70381727 7.50000000 0 0 0
77 1 1 0 2.14072294 126.46787032 7.50000000 0 0 0
78 1 1 0 1.41788143 125.24797463 7.50000000 0 0 0
79 1 1 0 2.11292134 124.01202768 7.50000000 0 0 0
80 1 1 0 1.39007984 122.79213199 7.50000000 0 0 0
81 1 1 0 2.08511974 121.55618504 7.50000000 0 0 0
82 1 1 0 1.36227824 120.33628935 7.50000000 0 0 0
83 1 1 0 2.05731815 119.10034240 7.50000000 0 0 0
84 1 1 0 1.33447664 117.88044671 7.50000000 0 0 0
85 1 1 0 2.02951655 116.64449976 7.50000000 0 0 0
86 1 1 0 1.30667505 115.42460407 7.50000000 0 0 0
87 1 1 0 2.00171495 114.18865712 7.50000000 0 0 0
88 1 1 0 1.27887345 112.96876143 7.50000000 0 0 0
89 1 1 0 1.97391336 111.73281448 7.50000000 0 0 0
90 1 1 0 1.25107185 110.51291879 7.50000000 0 0 0
91 1 1 0 1.94611176 109.27697184 7.50000000 0 0 0
92 1 1 0 1.22327026 108.05707615 7.50000000 0 0 0
93 1 1 0 1.91831016 106.82112920 7.50000000 0 0 0
94 1 1 0 1.19546866 105.60123351 7.50000000 0 0 0
95 1 1 0 1.89050857 104.36528656 7.50000000 0 0 0
96 1 1 0 1.16766706 103.14539087 7.50000000 0 0 0
97 1 1 0 1.86270697 101.90944392 7.50000000 0 0 0
98 1 1 0 1.13986547 100.68954823 7.50000000 0 0 0
99 1 1 0 1.83490537 99.45360128 7.50000000 0 0 0
100 1 1 0 1.11206387 98.23370559 7.50000000 0 0 0
101 1 1 0 1.80710378 96.99775864 7.50000000 0 0 0
102 1 1 0 1.08426227 95.77786295 7.50000000 0 0 0
103 1 1 0 1.77930218 94.54191600 7.50000000 0 0 0
104 1 1 0 1.05646068 93.32202031 7.50000000 0 0 0
105 1 1 0 1.75150058 92.08607336 7.50000000 0 0 0
106 1 1 0 1.02865908 90.86617767 7.50000000 0 0 0
107 1 1 0 1.72369899 89.63023072 7.50000000 0 0 0
108 1 1 0 1.00085748 88.41033503 7.50000000 0 0 0
109 1 1 0 1.69589739 87.17438808 7.50000000 0 0 0
110 1 1 0 0.97305589 85.95449239 7.50000000 0 0 0
111 1 1 0 1.66809579 84.71854544 7.50000000 0 0 0
112 1 1 0 0.94525429 83.49864975 7.50000000 0 0 0
113 1 1 0 1.64029420 82.26270280 7.50000000 0 0 0
114 1 1 0 0.91745269 81.04280711 7.50000000 0 0 0
115 1 1 0 1.61249260 79.80686016 7.50000000 0 0 0
116 1 1 0 0.88965110 78.58696447 7.50000000 0 0 0
117 1 1 0 1.58469100 77.35101752 7.50000000 0 0 0
118 1 1 0 0.86184950 76.13112183 7.50000000 0 0 0
119 1 1 0 1.55688941 74.89517488 7.50000000 0 0 0
120 1 1 0 0.83404790 73.67527919 7.50000000 0 0 0
121 1 1 0 1.52908781 72.43933224 7.50000000 0 0 0
122 1 1 0 0.80624631 71.21943655 7.50000000 0 0 0
123 1 1 0 1.50128621 69.98348960 7.50000000 0 0 0
124 1 1 0 0.77844471 68.76359391 7.50000000 0 0 0
125 1 1 0 1.47348461 67.52764696 7.50000000 0 0 0
126 1 1 0 0.75064311 66.30775127 7.50000000 0 0 0
127 1 1 0 1.44568302 65.07180432 7.50000000 0 0 0
128 1 1 0 0.72284152 63.85190863 7.50000000 0 0 0
129 1 1 0 1.41788142 62.61596168 7.50000000 0 0 0
130 1 1 0 0.69503992 61.39606599 7.50000000 0 0 0
131 1 1 0 1.39007982 60.16011904 7.50000000 0 0 0
132 1 1 0 0.66723832 58.94022335 7.50000000 0 0 0
133 1 1 0 1.36227823 57.70427640 7.50000000 0 0 0
134 1 1 0 0.63943672 56.48438071 7.50000000 0 0 0
135 1 1 0 1.33447663 55.24843376 7.50000000 0 0 0
136 1 1 0 0.61163513 54.02853807 7.50000000 0 0 0
137 1 1 0 1.30667503 52.79259112 7.50000000 0 0 0
138 1 1 0 0.58383353 51.57269543 7.50000000 0 0 0
139 1 1 0 1.27887344 50.33674849 7.50000000 0 0 0
140 1 1 0 0.55603193 49.11685280 7.50000000 0 0 0
141 1 1 0 1.25107184 47.88090585 7.50000000 0 0 0
142 1 1 0 0.52823034 46.66101016 7.50000000 0 0 0
143 1 1 0 1.22327024 45.42506321 7.50000000 0 0 0
144 1 1 0 0.50042874 44.20516752 7.50000000 0 0 0
145 1 1 0 1.19546865 42.96922057 7.50000000 0 0 0
146 1 1 0 0.47262714 41.74932488 7.50000000 0 0 0
147 1 1 0 1.16766705 40.51337793 7.50000000 0 0 0
148 1 1 0 0.44482555 39.29348224 7.50000000 0 0 0
149 1 1 0 1.13986545 38.05753529 7.50000000 0 0 0
150 1 1 0 0.41702395 36.83763960 7.50000000 0 0 0
151 1 1 0 1.11206386 35.60169265 7.50000000 0 0 0
152 1 1 0 0.38922235 34.38179696 7.50000000 0 0 0
153 1 1 0 1.08426226 33.14585001 7.50000000 0 0 0
154 1 1 0 0.36142076 31.92595432 7.50000000 0 0 0
155 1 1 0 1.05646066 30.69000737 7.50000000 0 0 0
156 1 1 0 0.33361916 29.47011168 7.50000000 0 0 0
157 1 1 0 1.02865907 28.23416473 7.50000000 0 0 0
158 1 1 0 0.30581756 27.01426904 7.50000000 0 0 0
159 1 1 0 1.00085747 25.77832209 7.50000000 0 0 0
160 1 1 0 0.27801597 24.55842640 7.50000000 0 0 0
161 1 1 0 0.97305587 23.32247945 7.50000000 0 0 0
162 1 1 0 0.25021437 22.10258376 7.50000000 0 0 0
163 1 1 0 0.94525428 20.86663681 7.50000000 0 0 0
164 1 1 0 0.22241277 19.64674112 7.50000000 0 0 0
165 1 1 0 0.91745268 18.41079417 7.50000000 0 0 0
166 1 1 0 0.19461118 17.19089848 7.50000000 0 0 0
167 1 1 0 0.88965108 15.95495153 7.50000000 0 0 0
168 1 1 0 0.16680958 14.73505584 7.50000000 0 0 0
169 1 1 0 0.86184949 13.49910889 7.50000000 0 0 0
170 1 1 0 0.13900798 12.27921320 7.50000000 0 0 0
171 1 1 0 0.83404789 11.04326625 7.50000000 0 0 0
172 1 1 0 0.11120639 9.82337056 7.50000000 0 0 0
173 1 1 0 0.80624629 8.58742361 7.50000000 0 0 0
174 1 1 0 0.08340479 7.36752792 7.50000000 0 0 0
175 1 1 0 0.77844470 6.13158097 7.50000000 0 0 0
176 1 1 0 0.05560319 4.91168528 7.50000000 0 0 0
177 1 1 0 0.75064310 3.67573833 7.50000000 0 0 0
178 1 1 0 0.02780160 2.45584264 7.50000000 0 0 0
179 1 1 0 0.72284150 1.21989569 7.50000000 0 0 0
180 1 1 0 0.00000000 0.00000000 7.50000000 0 0 0
181 1 1 0 4.25364426 187.84788505 7.50000000 0 0 0
182 1 1 0 4.94868417 186.61193810 7.50000000 0 0 0
183 1 1 0 4.22584267 185.39204241 7.50000000 0 0 0
184 1 1 0 4.92088257 184.15609546 7.50000000 0 0 0
185 1 1 0 4.19804107 182.93619977 7.50000000 0 0 0
186 1 1 0 4.89308098 181.70025282 7.50000000 0 0 0
187 1 1 0 4.17023947 180.48035713 7.50000000 0 0 0
188 1 1 0 4.86527938 179.24441018 7.50000000 0 0 0
189 1 1 0 4.14243788 178.02451449 7.50000000 0 0 0
190 1 1 0 4.83747778 176.78856754 7.50000000 0 0 0
191 1 1 0 4.11463628 175.56867185 7.50000000 0 0 0
192 1 1 0 4.80967619 174.33272490 7.50000000 0 0 0
193 1 1 0 4.08683468 173.11282921 7.50000000 0 0 0
194 1 1 0 4.78187459 171.87688226 7.50000000 0 0 0
195 1 1 0 4.05903309 170.65698657 7.50000000 0 0 0
196 1 1 0 4.75407299 169.42103962 7.50000000 0 0 0
197 1 1 0 4.03123149 168.20114393 7.50000000 0 0 0
198 1 1 0 4.72627140 166.96519698 7.50000000 0 0 0
199 1 1 0 4.00342989 165.74530129 7.50000000 0 0 0
200 1 1 0 4.69846980 164.50935434 7.50000000 0 0 0
201 1 1 0 3.97562830 163.28945865 7.50000000 0 0 0
202 1 1 0 4.67066820 162.05351170 7.50000000 0 0 0
203 1 1 0 3.94782670 160.83361601 7.50000000 0 0 0
204 1 1 0 4.64286661 159.59766907 7.50000000 0 0 0
205 1 1 0 3.92002510 158.37777337 7.50000000 0 0 0
206 1 1 0 4.61506501 157.14182643 7.50000000 0 0 0
207 1 1 0 3.89222351 155.92193074 7.50000000 0 0 0
208 1 1 0 4.58726341 154.68598379 7.50000000 0 0 0
209 1 1 0 3.86442191 153.46608810 7.50000000 0 0 0
210 1 1 0 4.55946182 152.23014115 7.50000000 0 0 0
211 1 1 0 3.83662031 151.01024546 7.50000000 0 0 0
212 1 1 0 4.53166022 149.77429851 7.50000000 0 0 0
213 1 1 0 3.80881872 148.55440282 7.50000000 0 0 0
214 1 1 0 4.50385862 147.31845587 7.50000000 0 0 0
215 1 1 0 3.78101712 146.09856018 7.50000000 0 0 0
216 1 1 0 4.47605703 144.86261323 7.50000000 0 0 0
217 1 1 0 3.75321552 143.64271754 7.50000000 0 0 0
218 1 1 0 4.44825543 142.40677059 7.50000000 0 0 0
219 1 1 0 3.72541393 141.18687490 7.50000000 0 0 0
220 1 1 0 4.42045383 139.95092795 7.50000000 0 0 0
221 1 1 0 3.69761233 138.73103226 7.50000000 0 0 0
222 1 1 0 4.39265224 137.49508531 7.50000000 0 0 0
223 1 1 0 3.66981073 136.27518962 7.50000000 0 0 0
224 1 1 0 4.36485064 135.03924267 7.50000000 0 0 0
225 1 1 0 3.64200914 133.81934698 7.50000000 0 0 0
226 1 1 0 4.33704904 132.58340003 7.50000000 0 0 0
227 1 1 0 3.61420754 131.36350434 7.50000000 0 0 0
228 1 1 0 4.30924745 130.12755739 7.50000000 0 0 0
229 1 1 0 3.58640594 128.90766170 7.50000000 0 0 0
230 1 1 0 4.28144585 127.67171475 7.50000000 0 0 0
231 1 1 0 3.55860435 126.45181906 7.50000000 0 0 0
232 1 1 0 4.25364425 125.21587211 7.50000000 0 0 0
233 1 1 0 3.53080275 123.99597642 7.50000000 0 0 0
234 1 1 0 4.22584266 122.76002947 7.50000000 0 0 0
235 1 1 0 3.50300115 121.54013378 7.50000000 0 0 0
236 1 1 0 4.19804106 120.30418683 7.50000000 0 0 0
237 1 1 0 3.47519956 119.08429114 7.50000000 0 0 0
238 1 1 0 4.17023946 117.84834419 7.50000000 0 0 0
239 1 1 0 3.44739796 116.62844850 7.50000000 0 0 0
240 1 1 0 4.14243786 115.39250155 7.50000000 0 0 0
241 1 1 0 3.41959636 114.17260586 7.50000000 0 0 0
242 1 1 0 4.11463627 112.93665891 7.50000000 0 0 0
243 1 1 0 3.39179477 111.71676322 7.50000000 0 0 0
244 1 1 0 4.08683467 110.48081627 7.50000000 0 0 0
245 1 1 0 3.36399317 109.26092058 7.50000000 0 0 0
246 1 1 0 4.05903307 108.02497363 7.50000000 0 0 0
247 1 1 0 3.33619157 106.80507794 7.50000000 0 0 0
248 1 1 0 4.03123148 105.56913099 7.50000000 0 0 0
249 1 1 0 3.30838998 104.34923530 7.50000000 0 0 0
250 1 1 0 4.00342988 103.11328835 7.50000000 0 0 0
251 1 1 0 3.28058838 101.89339266 7.50000000 0 0 0
252 1 1 0 3.97562828 100.65744571 7.50000000 0 0 0
253 1 1 0 3.25278678 99.43755002 7.50000000 0 0 0
254 1 1 0 3.94782669 98.20160307 7.50000000 0 0 0
255 1 1 0 3.22498518 96.98170738 7.50000000 0 0 0
256 1 1 0 3.92002509 95.74576043 7.50000000 0 0 0
257 1 1 0 3.19718359 94.52586474 7.50000000 0 0 0
258 1 1 0 3.89222349 93.28991779 7.50000000 0 0 0
259 1 1 0 3.16938199 92.07002210 7.50000000 0 0 0
260 1 1 0 3.86442190 90.83407515 7.50000000 0 0 0
261 1 1 0 3.14158039 89.61417946 7.50000000 0 0 0
262 1 1 0 3.83662030 88.37823251 7.50000000 0 0 0
263 1 1 0 3.11377880 87.15833682 7.50000000 0 0 0
264 1 1 0 3.80881870 85.92238987 7.50000000 0 0 0
265 1 1 0 3.08597720 84.70249418 7.50000000 0 0 0
266 1 1 0 3.78101711 83.46654723 7.50000000 0 0 0
267 1 1 0 3.05817560 82.24665154 7.50000000 0 0 0
268 1 1 0 3.75321551 81.01070459 7.50000000 0 0 0
269 1 1 0 3.03037401 79.79080890 7.50000000 0 0 0
270 1 1 0 3.72541391 78.55486195 7.50000000 0 0 0
271 1 1 0 3.00257241 77.33496626 7.50000000 0 0 0
272 1 1 0 3.69761232 76.09901931 7.50000000 0 0 0
273 1 1 0 2.97477081 74.87912362 7.50000000 0 0 0
274 1 1 0 3.66981072 73.64317667 7.50000000 0 0 0
275 1 1 0 2.94696922 72.42328098 7.50000000 0 0 0
276 1 1 0 3.64200912 71.18733403 7.50000000 0 0 0
277 1 1 0 2.91916762 69.96743834 7.50000000 0 0 0
278 1 1 0 3.61420753 68.73149139 7.50000000 0 0 0
279 1 1 0 2.89136602 67.51159570 7.50000000 0 0 0
280 1 1 0 3.58640593 66.27564875 7.50000000 0 0 0
281 1 1 0 2.86356443 65.05575306 7.50000000 0 0 0
282 1 1 0 3.55860433 63.81980611 7.50000000 0 0 0
283 1 1 0 2.83576283 62.59991042 7.50000000 0 0 0
284 1 1 0 3.53080274 61.36396348 7.50000000 0 0 0
285 1 1 0 2.80796123 60.14406778 7.50000000 0 0 0
286 1 1 0 3.50300114 58.90812084 7.50000000 0 0 0
287 1 1 0 2.78015964 57.68822515 7.50000000 0 0 0
288 1 1 0 3.47519954 56.45227820 7.50000000 0 0 0
289 1 1 0 2.75235804 55.23238251 7.50000000 0 0 0
290 1 1 0 3.44739795 53.99643556 7.50000000 0 0 0
291 1 1 0 2.72455644 52.77653987 7.50000000 0 0 0
292 1 1 0 3.41959635 51.54059292 7.50000000 0 0 0
293 1 1 0 2.69675485 50.32069723 7.50000000 0 0 0
294 1 1 0 3.39179475 49.08475028 7.50000000 0 0 0
295 1 1 0 2.66895325 47.86485459 7.50000000 0 0 0
296 1 1 0 3.36399316 46.62890764 7.50000000 0 0 0
297 1 1 0 2.64115165 45.40901195 7.50000000 0 0 0
298 1 1 0 3.33619156 44.17306500 7.50000000 0 0 0
299 1 1 0 2.61335006 42.95316931 7.50000000 0 0 0
300 1 1 0 3.30838996 41.71722236 7.50000000 0 0 0
301 1 1 0 2.58554846 40.49732667 7.50000000 0 0 0
302 1 1 0 3.28058837 39.26137972 7.50000000 0 0 0
303 1 1 0 2.55774686 38.04148403 7.50000000 0 0 0
304 1 1 0 3.25278677 36.80553708 7.50000000 0 0 0
305 1 1 0 2.52994527 35.58564139 7.50000000 0 0 0
306 1 1 0 3.22498517 34.34969444 7.50000000 0 0 0
307 1 1 0 2.50214367 33.12979875 7.50000000 0 0 0
308 1 1 0 3.19718358 31.89385180 7.50000000 0 0 0
309 1 1 0 2.47434207 30.67395611 7.50000000 0 0 0
310 1 1 0 3.16938198 29.43800916 7.50000000 0 0 0
311 1 1 0 2.44654048 28.21811347 7.50000000 0 0 0
312 1 1 0 3.14158038 26.98216652 7.50000000 0 0 0
313 1 1 0 2.41873888 25.76227083 7.50000000 0 0 0
314 1 1 0 3.11377879 24.52632388 7.50000000 0 0 0
315 1 1 0 2.39093728 23.30642819 7.50000000 0 0 0
316 1 1 0 3.08597719 22.07048124 7.50000000 0 0 0
317 1 1 0 2.36313569 20.85058555 7.50000000 0 0 0
318 1 1 0 3.05817559 19.61463860 7.50000000 0 0 0
319 1 1 0 2.33533409 18.39474291 7.50000000 0 0 0
320 1 1 0 3.03037400 17.15879596 7.50000000 0 0 0
321 1 1 0 2.30753249 15.93890027 7.50000000 0 0 0
322 1 1 0 3.00257240 14.70295332 7.50000000 0 0 0
323 1 1 0 2.27973090 13.48305763 7.50000000 0 0 0
324 1 1 0 2.97477080 12.24711068 7.50000000 0 0 0
325 1 1 0 2.25192930 11.02721499 7.50000000 0 0 0
326 1 1 0 2.94696921 9.79126804 7.50000000 0 0 0
327 1 1 0 2.22412770 8.57137235 7.50000000 0 0 0
328 1 1 0 2.91916761 7.33542540 7.50000000 0 0 0
329 1 1 0 2.19632611 6.11552971 7.50000000 0 0 0
330 1 1 0 2.89136601 4.87958276 7.50000000 0 0 0
331 1 1 0 2.16852451 3.65968707 7.50000000 0 0 0
332 1 1 0 2.86356442 2.42374012 7.50000000 0 0 0
333 1 1 0 2.14072291 1.20384443 7.50000000 0 0 0
334 1 1 0 7.08940708 187.81578253 7.50000000 0 0 0
335 1 1 0 6.36656558 186.59588684 7.50000000 0 0 0
336 1 1 0 7.06160549 185.35993989 7.50000000 0 0 0
337 1 1 0 6.33876398 184.14004420 7.50000000 0 0 0
338 1 1 0 7.03380389 182.90409725 7.50000000 0 0 0
339 1 1 0 6.31096239 181.68420156 7.50000000 0 0 0
340 1 1 0 7.00600229 180.44825461 7.50000000 0 0 0
341 1 1 0 6.28316079 179.22835892 7.50000000 0 0 0
342 1 1 0 6.97820070 177.99241197 7.50000000 0 0 0
343 1 1 0 6.25535919 176.77251628 7.50000000 0 0 0
344 1 1 0 6.95039910 175.53656933 7.50000000 0 0 0
345 1 1 0 6.22755760 174.31667364 7.50000000 0 0 0
346 1 1 0 6.92259750 173.08072669 7.50000000 0 0 0
347 1 1 0 6.19975600 171.86083100 7.50000000 0 0 0
348 1 1 0 6.89479591 170.62488405 7.50000000 0 0 0
349 1 1 0 6.17195440 169.40498836 7.50000000 0 0 0
350 1 1 0 6.86699431 168.16904142 7.50000000 0 0 0
351 1 1 0 6.14415281 166.94914572 7.50000000 0 0 0
352 1 1 0 6.83919271 165.71319878 7.50000000 0 0 0
353 1 1 0 6.11635121 164.49330309 7.50000000 0 0 0
354 1 1 0 6.81139112 163.25735614 7.50000000 0 0 0
355 1 1 0 6.08854961 162.03746045 7.50000000 0 0 0
356 1 1 0 6.78358952 160.80151350 7.50000000 0 0 0
357 1 1 0 6.06074802 159.58161781 7.50000000 0 0 0
358 1 1 0 6.75578792 158.34567086 7.50000000 0 0 0
359 1 1 0 6.03294642 157.12577517 7.50000000 0 0 0
360 1 1 0 6.72798632 155.88982822 7.50000000 0 0 0
361 1 1 0 6.00514482 154.66993253 7.50000000 0 0 0
362 1 1 0 6.70018473 153.43398558 7.50000000 0 0 0
363 1 1 0 5.97734323 152.21408989 7.50000000 0 0 0
364 1 1 0 6.67238313 150.97814294 7.50000000 0 0 0
365 1 1 0 5.94954163 149.75824725 7.50000000 0 0 0
366 1 1 0 6.64458153 148.52230030 7.50000000 0 0 0
367 1 1 0 5.92174003 147.30240461 7.50000000 0 0 0
368 1 1 0 6.61677994 146.06645766 7.50000000 0 0 0
369 1 1 0 5.89393843 144.84656197 7.50000000 0 0 0
370 1 1 0 6.58897834 143.61061502 7.50000000 0 0 0
371 1 1 0 5.86613684 142.39071933 7.50000000 0 0 0
372 1 1 0 6.56117674 141.15477238 7.50000000 0 0 0
373 1 1 0 5.83833524 139.93487669 7.50000000 0 0 0
374 1 1 0 6.53337515 138.69892974 7.50000000 0 0 0
375 1 1 0 5.81053364 137.47903405 7.50000000 0 0 0
376 1 1 0 6.50557355 136.24308710 7.50000000 0 0 0
377 1 1 0 5.78273205 135.02319141 7.50000000 0 0 0
378 1 1 0 6.47777195 133.78724446 7.50000000 0 0 0
379 1 1 0 5.75493045 132.56734877 7.50000000 0 0 0
380 1 1 0 6.44997036 131.33140182 7.50000000 0 0 0
381 1 1 0 5.72712885 130.11150613 7.50000000 0 0 0
382 1 1 0 6.42216876 128.87555918 7.50000000 0 0 0
383 1 1 0 5.69932726 127.65566349 7.50000000 0 0 0
384 1 1 0 6.39436716 126.41971654 7.50000000 0 0 0
385 1 1 0 5.67152566 125.19982085 7.50000000 0 0 0
386 1 1 0 6.36656557 123.96387390 7.50000000 0 0 0
387 1 1 0 5.64372406 122.74397821 7.50000000 0 0 0
388 1 1 0 6.33876397 121.50803126 7.50000000 0 0 0
389 1 1 0 5.61592247 120.28813557 7.50000000 0 0 0
390 1 1 0 6.31096237 119.05218862 7.50000000 0 0 0
391 1 1 0 5.58812087 117.83229293 7.50000000 0 0 0
392 1 1 0 6.28316078 116.59634598 7.50000000 0 0 0
393 1 1 0 5.56031927 115.37645029 7.50000000 0 0 0
394 1 1 0 6.25535918 114.14050334 7.50000000 0 0 0
395 1 1 0 5.53251768 112.92060765 7.50000000 0 0 0
396 1 1 0 6.22755758 111.68466070 7.50000000 0 0 0
397 1 1 0 5.50471608 110.46476501 7.50000000 0 0 0
398 1 1 0 6.19975599 109.22881806 7.50000000 0 0 0
399 1 1 0 5.47691448 108.00892237 7.50000000 0 0 0
400 1 1 0 6.17195439 106.77297542 7.50000000 0 0 0
401 1 1 0 5.44911289 105.55307973 7.50000000 0 0 0
402 1 1 0 6.14415279 104.31713278 7.50000000 0 0 0
403 1 1 0 5.42131129 103.09723709 7.50000000 0 0 0
404 1 1 0 6.11635120 101.86129014 7.50000000 0 0 0
405 1 1 0 5.39350969 100.64139445 7.50000000 0 0 0
406 1 1 0 6.08854960 99.40544750 7.50000000 0 0 0
407 1 1 0 5.36570810 98.18555181 7.50000000 0 0 0
408 1 1 0 6.06074800 96.94960486 7.50000000 0 0 0
409 1 1 0 5.33790650 95.72970917 7.50000000 0 0 0
410 1 1 0 6.03294641 94.49376222 7.50000000 0 0 0
411 1 1 0 5.31010490 93.27386653 7.50000000 0 0 0
412 1 1 0 6.00514481 92.03791958 7.50000000 0 0 0
413 1 1 0 5.28230331 90.81802389 7.50000000 0 0 0
414 1 1 0 5.97734321 89.58207694 7.50000000 0 0 0
415 1 1 0 5.25450171 88.36218125 7.50000000 0 0 0
416 1 1 0 5.94954162 87.12623430 7.50000000 0 0 0
417 1 1 0 5.22670011 85.90633861 7.50000000 0 0 0
418 1 1 0 5.92174002 84.67039166 7.50000000 0 0 0
419 1 1 0 5.19889852 83.45049597 7.50000000 0 0 0
420 1 1 0 5.89393842 82.21454902 7.50000000 0 0 0
421 1 1 0 5.17109692 80.99465333 7.50000000 0 0 0
422 1 1 0 5.86613683 79.75870638 7.50000000 0 0 0
423 1 1 0 5.14329532 78.53881069 7.50000000 0 0 0
424 1 1 0 5.83833523 77.30286374 7.50000000 0 0 0
425 1 1 0 5.11549373 76.08296805 7.50000000 0 0 0
426 1 1 0 5.81053363 74.84702110 7.50000000 0 0 0
427 1 1 0 5.08769213 73.62712541 7.50000000 0 0 0
428 1 1 0 5.78273204 72.39117846 7.50000000 0 0 0
429 1 1 0 5.05989053 71.17128277 7.50000000 0 0 0
430 1 1 0 5.75493044 69.93533583 7.50000000 0 0 0
431 1 1 0 5.03208894 68.71544013 7.50000000 0 0 0
432 1 1 0 5.72712884 67.47949319 7.50000000 0 0 0
433 1 1 0 5.00428734 66.25959750 7.50000000 0 0 0
434 1 1 0 5.69932725 65.02365055 7.50000000 0 0 0
435 1 1 0 4.97648574 63.80375486 7.50000000 0 0 0
436 1 1 0 5.67152565 62.56780791 7.50000000 0 0 0
437 1 1 0 4.94868415 61.34791222 7.50000000 0 0 0
438 1 1 0 5.64372405 60.11196527 7.50000000 0 0 0
439 1 1 0 4.92088255 58.89206958 7.50000000 0 0 0
440 1 1 0 5.61592246 57.65612263 7.50000000 0 0 0
441 1 1 0 4.89308095 56.43622694 7.50000000 0 0 0
442 1 1 0 5.58812086 55.20027999 7.50000000 0 0 0
443 1 1 0 4.86527936 53.98038430 7.50000000 0 0 0
444 1 1 0 5.56031926 52.74443735 7.50000000 0 0 0
445 1 1 0 4.83747776 51.52454166 7.50000000 0 0 0
446 1 1 0 5.53251767 50.28859471 7.50000000 0 0 0
447 1 1 0 4.80967616 49.06869902 7.50000000 0 0 0
448 1 1 0 5.50471607 47.83275207 7.50000000 0 0 0
449 1 1 0 4.78187457 46.61285638 7.50000000 0 0 0
450 1 1 0 5.47691447 45.37690943 7.50000000 0 0 0
451 1 1 0 4.75407297 44.15701374 7.50000000 0 0 0
452 1 1 0 5.44911287 42.92106679 7.50000000 0 0 0
453 1 1 0 4.72627137 41.70117110 7.50000000 0 0 0
454 1 1 0 5.42131128 40.46522415 7.50000000 0 0 0
455 1 1 0 4.69846978 39.24532846 7.50000000 0 0 0
456 1 1 0 5.39350968 38.00938151 7.50000000 0 0 0
457 1 1 0 4.67066818 36.78948582 7.50000000 0 0 0
458 1 1 0 5.36570808 35.55353887 7.50000000 0 0 0
459 1 1 0 4.64286658 34.33364318 7.50000000 0 0 0
460 1 1 0 5.33790649 33.09769623 7.50000000 0 0 0
461 1 1 0 4.61506499 31.87780054 7.50000000 0 0 0
462 1 1 0 5.31010489 30.64185359 7.50000000 0 0 0
463 1 1 0 4.58726339 29.42195790 7.50000000 0 0 0
464 1 1 0 5.28230329 28.18601095 7.50000000 0 0 0
465 1 1 0 4.55946179 26.96611526 7.50000000 0 0 0
466 1 1 0 5.25450170 25.73016831 7.50000000 0 0 0
467 1 1 0 4.53166019 24.51027262 7.50000000 0 0 0
468 1 1 0 5.22670010 23.27432567 7.50000000 0 0 0
469 1 1 0 4.50385860 22.05442998 7.50000000 0 0 0
470 1 1 0 5.19889850 20.81848303 7.50000000 0 0 0
471 1 1 0 4.47605700 19.59858734 7.50000000 0 0 0
472 1 1 0 5.17109691 18.36264039 7.50000000 0 0 0
473 1 1 0 4.44825540 17.14274470 7.50000000 0 0 0
474 1 1 0 5.14329531 15.90679775 7.50000000 0 0 0
475 1 1 0 4.42045381 14.68690206 7.50000000 0 0 0
476 1 1 0 5.11549371 13.45095511 7.50000000 0 0 0
477 1 1 0 4.39265221 12.23105942 7.50000000 0 0 0
478 1 1 0 5.08769212 10.99511247 7.50000000 0 0 0
479 1 1 0 4.36485061 9.77521678 7.50000000 0 0 0
480 1 1 0 5.05989052 8.53926983 7.50000000 0 0 0
481 1 1 0 4.33704902 7.31937414 7.50000000 0 0 0
482 1 1 0 5.03208892 6.08342719 7.50000000 0 0 0
483 1 1 0 4.30924742 4.86353150 7.50000000 0 0 0
484 1 1 0 5.00428733 3.62758455 7.50000000 0 0 0
485 1 1 0 4.28144582 2.40768886 7.50000000 0 0 0
486 1 1 0 4.97648573 1.17174191 7.50000000 0 0 0
487 1 1 0 8.50728849 187.79973127 7.50000000 0 0 0
488 1 1 0 9.20232840 186.56378432 7.50000000 0 0 0
489 1 1 0 8.47948689 185.34388863 7.50000000 0 0 0
490 1 1 0 9.17452680 184.10794168 7.50000000 0 0 0
491 1 1 0 8.45168530 182.88804599 7.50000000 0 0 0
492 1 1 0 9.14672520 181.65209904 7.50000000 0 0 0
493 1 1 0 8.42388370 180.43220335 7.50000000 0 0 0
494 1 1 0 9.11892361 179.19625641 7.50000000 0 0 0
495 1 1 0 8.39608210 177.97636071 7.50000000 0 0 0
496 1 1 0 9.09112201 176.74041377 7.50000000 0 0 0
497 1 1 0 8.36828051 175.52051808 7.50000000 0 0 0
498 1 1 0 9.06332041 174.28457113 7.50000000 0 0 0
499 1 1 0 8.34047891 173.06467544 7.50000000 0 0 0
500 1 1 0 9.03551882 171.82872849 7.50000000 0 0 0
501 1 1 0 8.31267731 170.60883280 7.50000000 0 0 0
502 1 1 0 9.00771722 169.37288585 7.50000000 0 0 0
503 1 1 0 8.28487572 168.15299016 7.50000000 0 0 0
504 1 1 0 8.97991562 166.91704321 7.50000000 0 0 0
505 1 1 0 8.25707412 165.69714752 7.50000000 0 0 0
506 1 1 0 8.95211403 164.46120057 7.50000000 0 0 0
507 1 1 0 8.22927252 163.24130488 7.50000000 0 0 0
508 1 1 0 8.92431243 162.00535793 7.50000000 0 0 0
509 1 1 0 8.20147093 160.78546224 7.50000000 0 0 0
510 1 1 0 8.89651083 159.54951529 7.50000000 0 0 0
511 1 1 0 8.17366933 158.32961960 7.50000000 0 0 0
512 1 1 0 8.86870924 157.09367265 7.50000000 0 0 0
513 1 1 0 8.14586773 155.87377696 7.50000000 0 0 0
514 1 1 0 8.84090764 154.63783001 7.50000000 0 0 0
515 1 1 0 8.11806614 153.41793432 7.50000000 0 0 0
516 1 1 0 8.81310604 152.18198737 7.50000000 0 0 0
517 1 1 0 8.09026454 150.96209168 7.50000000 0 0 0
518 1 1 0 8.78530445 149.72614473 7.50000000 0 0 0
519 1 1 0 8.06246294 148.50624904 7.50000000 0 0 0
520 1 1 0 8.75750285 147.27030209 7.50000000 0 0 0
521 1 1 0 8.03466135 146.05040640 7.50000000 0 0 0
522 1 1 0 8.72970125 144.81445945 7.50000000 0 0 0
523 1 1 0 8.00685975 143.59456376 7.50000000 0 0 0
524 1 1 0 8.70189966 142.35861681 7.50000000 0 0 0
525 1 1 0 7.97905815 141.13872112 7.50000000 0 0 0
526 1 1 0 8.67409806 139.90277417 7.50000000 0 0 0
527 1 1 0 7.95125656 138.68287848 7.50000000 0 0 0
528 1 1 0 8.64629646 137.44693153 7.50000000 0 0 0
529 1 1 0 7.92345496 136.22703584 7.50000000 0 0 0
530 1 1 0 8.61849487 134.99108889 7.50000000 0 0 0
531 1 1 0 7.89565336 133.77119320 7.50000000 0 0 0
532 1 1 0 8.59069327 132.53524625 7.50000000 0 0 0
533 1 1 0 7.86785177 131.31535056 7.50000000 0 0 0
534 1 1 0 8.56289167 130.07940361 7.50000000 0 0 0
535 1 1 0 7.84005017 128.85950792 7.50000000 0 0 0
536 1 1 0 8.53509008 127.62356097 7.50000000 0 0 0
537 1 1 0 7.81224857 126.40366528 7.50000000 0 0 0
538 1 1 0 8.50728848 125.16771833 7.50000000 0 0 0
539 1 1 0 7.78444698 123.94782264 7.50000000 0 0 0
540 1 1 0 8.47948688 122.71187569 7.50000000 0 0 0
541 1 1 0 7.75664538 121.49198000 7.50000000 0 0 0
542 1 1 0 8.45168529 120.25603305 7.50000000 0 0 0
543 1 1 0 7.72884378 119.03613736 7.50000000 0 0 0
544 1 1 0 8.42388369 117.80019041 7.50000000 0 0 0
545 1 1 0 7.70104219 116.58029472 7.50000000 0 0 0
546 1 1 0 8.39608209 115.34434777 7.50000000 0 0 0
547 1 1 0 7.67324059 114.12445208 7.50000000 0 0 0
548 1 1 0 8.36828050 112.88850513 7.50000000 0 0 0
549 1 1 0 7.64543899 111.66860944 7.50000000 0 0 0
550 1 1 0 8.34047890 110.43266249 7.50000000 0 0 0
551 1 1 0 7.61763740 109.21276680 7.50000000 0 0 0
552 1 1 0 8.31267730 107.97681985 7.50000000 0 0 0
553 1 1 0 7.58983580 106.75692416 7.50000000 0 0 0
554 1 1 0 8.28487571 105.52097721 7.50000000 0 0 0
555 1 1 0 7.56203420 104.30108152 7.50000000 0 0 0
556 1 1 0 8.25707411 103.06513457 7.50000000 0 0 0
557 1 1 0 7.53423261 101.84523888 7.50000000 0 0 0
558 1 1 0 8.22927251 100.60929193 7.50000000 0 0 0
559 1 1 0 7.50643101 99.38939624 7.50000000 0 0 0
560 1 1 0 8.20147092 98.15344929 7.50000000 0 0 0
561 1 1 0 7.47862941 96.93355360 7.50000000 0 0 0
562 1 1 0 8.17366932 95.69760665 7.50000000 0 0 0
563 1 1 0 7.45082782 94.47771096 7.50000000 0 0 0
564 1 1 0 8.14586772 93.24176401 7.50000000 0 0 0
565 1 1 0 7.42302622 92.02186832 7.50000000 0 0 0
566 1 1 0 8.11806613 90.78592137 7.50000000 0 0 0
567 1 1 0 7.39522462 89.56602568 7.50000000 0 0 0
568 1 1 0 8.09026453 88.33007873 7.50000000 0 0 0
569 1 1 0 7.36742303 87.11018304 7.50000000 0 0 0
570 1 1 0 8.06246293 85.87423609 7.50000000 0 0 0
571 1 1 0 7.33962143 84.65434040 7.50000000 0 0 0
572 1 1 0 8.03466133 83.41839345 7.50000000 0 0 0
573 1 1 0 7.31181983 82.19849776 7.50000000 0 0 0
574 1 1 0 8.00685974 80.96255081 7.50000000 0 0 0
575 1 1 0 7.28401824 79.74265512 7.50000000 0 0 0
576 1 1 0 7.97905814 78.50670818 7.50000000 0 0 0
577 1 1 0 7.25621664 77.28681249 7.50000000 0 0 0
578 1 1 0 7.95125654 76.05086554 7.50000000 0 0 0
579 1 1 0 7.22841504 74.83096985 7.50000000 0 0 0
580 1 1 0 7.92345495 73.59502290 7.50000000 0 0 0
581 1 1 0 7.20061344 72.37512721 7.50000000 0 0 0
582 1 1 0 7.89565335 71.13918026 7.50000000 0 0 0
583 1 1 0 7.17281185 69.91928457 7.50000000 0 0 0
584 1 1 0 7.86785175 68.68333762 7.50000000 0 0 0
585 1 1 0 7.14501025 67.46344193 7.50000000 0 0 0
586 1 1 0 7.84005016 66.22749498 7.50000000 0 0 0
587 1 1 0 7.11720865 65.00759929 7.50000000 0 0 0
588 1 1 0 7.81224856 63.77165234 7.50000000 0 0 0
589 1 1 0 7.08940706 62.55175665 7.50000000 0 0 0
590 1 1 0 7.78444696 61.31580970 7.50000000 0 0 0
591 1 1 0 7.06160546 60.09591401 7.50000000 0 0 0
592 1 1 0 7.75664537 58.85996706 7.50000000 0 0 0
593 1 1 0 7.03380386 57.64007137 7.50000000 0 0 0