ITEM: TIMESTEP
0
ITEM: NUMBER OF ATOMS
6536
ITEM: BOX BOUNDS pp pp pp
0.0000000000000000e+00 7.0200368299999994e+01
0.0000000000000000e+00 1.2159060500000000e+02
0.0000000000000000e+00 1.5000000000000000e+01
ITEM: ATOMS id type x y z c_csym c_2[1] c_2[2] c_2[3] c_2[4] c_2[5] c_2[6] c_3 
109 1 0.172 9.822 3 6.02026 -112571 -153773 -8857.48 13924.5 44437.8 -3997.28 -7.41449 
110 1 0.859 8.582 3 6.0272 -158002 -165883 -31303 -6244.89 39857.2 -2199.2 -7.4135 
111 1 0.129 7.367 3 6.02457 -122257 -183574 -27746.2 -5496.61 53381.9 -3567.32 -7.41363 
112 1 0.816 6.127 3 6.02091 -144788 -133972 -42383.7 12278.4 47320.7 -4479.5 -7.41296 
113 1 0.086 4.911 3 6.02214 -159519 -146191 -45850 14700.7 49316 -2101.01 -7.41312 
114 1 0.773 3.671 3 6.02542 -149926 -165771 -54725.2 -4182.97 38680.8 -7378.61 -7.41262 
115 1 0.043 2.456 3 6.02189 -163364 -142150 -59563.1 -16893.9 29740.5 -750.052 -7.41206 
116 1 0.73 1.215 3 6.02027 -137301 -136289 -62987.4 -19790.6 15014.2 -8986.14 -7.41184 
117 1 0 0 3 6.02658 -166700 -151215 -64437.2 -12473.4 15.4664 -25.5646 -7.41212 
209 1 3.007 9.773 3 6.02402 -147801 -130594 -23059.8 10528.8 26411.9 -11234.1 -7.4143 
210 1 2.277 8.557 3 6.02234 -131416 -151224 -18017.7 18106.2 48480 -11475.4 -7.41415 
211 1 2.964 7.317 3 6.0247 -151841 -168501 -31571.7 -7099.09 39402 -18435.2 -7.41389 
212 1 2.234 6.102 3 6.02677 -141343 -181512 -36197 -1335.07 51704.8 -17275.1 -7.41319 
213 1 2.921 4.862 3 6.0199 -137073 -137702 -42977.4 12140.1 39868.8 -26336.7 -7.41332 
214 1 2.191 3.646 3 6.02402 -130778 -145528 -51617.6 17826.5 39897 -22053.6 -7.41247 
215 1 2.878 2.406 3 6.0247 -141118 -173292 -53903 -6562.73 25326.5 -32118.6 -7.41282 
216 1 2.148 1.191 3 6.02242 -128006 -141900 -60109.1 -21285.4 14656.3 -24726.6 -7.4117 
308 1 4.425 9.748 3 6.02721 -131824 -168613 -11002.8 -9183.42 35928.5 -9782.55 -7.41465 
309 1 5.113 8.508 3 6.02107 -175535 -105226 -17334.9 12602 25176.2 -23087.9 -7.41441 
310 1 4.382 7.292 3 6.02225 -112422 -122517 -25611.6 22224 44157.8 -20838.1 -7.41342 
311 1 5.07 6.052 3 6.02406 -182204 -142469 -26359.9 -6748.08 32628.9 -34339.8 -7.41369 
312 1 4.339 4.837 3 6.02611 -122414 -153203 -39532.3 2645.57 40901.2 -31404 -7.41268 
313 1 5.027 3.597 3 6.02137 -167310 -112207 -37285.7 11924.3 28167.3 -44270.8 -7.41317 
314 1 4.296 2.381 3 6.02369 -113560 -116276 -48852.4 21112 23985.2 -39099.9 -7.4123 
315 1 4.984 1.141 3 6.02466 -168499 -125937 -45366.4 1929.98 11916.1 -49621 -7.41279 
407 1 7.261 9.698 3 6.01959 -179796 -106621 -4079.33 -21176.2 10035.4 -21218.1 -7.41447 
408 1 6.53 8.483 3 6.02433 -169559 -152152 -18945.1 7425.02 29816 -14297.9 -7.41446 
409 1 7.218 7.243 3 6.0238 -174445 -109322 -9179.94 11253.3 20505.6 -31880.3 -7.41459 
410 1 6.487 6.027 3 6.02137 -160096 -121020 -28668.9 25433.1 32745.5 -27434.9 -7.41366 
411 1 7.175 4.787 3 6.02406 -180733 -145105 -17993.8 -8816.15 23571.3 -43234.1 -7.41409 
412 1 6.444 3.572 3 6.02406 -170697 -152414 -36706.4 5484.96 25040.6 -39027.8 -7.41321 
413 1 7.132 2.332 3 6.02137 -165629 -116074 -27546.9 9300.73 16761.6 -51566.6 -7.41362 
414 1 6.401 1.116 3 6.02195 -166085 -130333 -39378.4 29993.2 7295.45 -46556.9 -7.41312 
506 1 8.678 9.674 3 6.01959 -161592 -121027 -17364.7 -7365.42 14304.6 -3570.78 -7.41384 
507 1 9.366 8.433 3 6.02088 -130697 -110298 5571.83 -22789.9 8865.79 -24506.1 -7.41457 
508 1 8.635 7.218 3 6.02406 -167904 -152408 -23064.6 8925.31 19353.4 -15305.2 -7.41428 
509 1 9.323 5.978 3 6.02545 -124089 -113877 -281.32 8296.36 15604.8 -33405.7 -7.41464 
510 1 8.592 4.762 3 6.02137 -158877 -121991 -27726.2 26679.8 18127.5 -27236.5 -7.41374 
511 1 9.28 3.522 3 6.02611 -130390 -149743 -8872.2 -12051.3 15848.1 -41574.7 -7.41417 
512 1 8.549 2.307 3 6.02152 -169867 -152998 -28591.7 6155.9 8837.36 -37019.6 -7.41379 
513 1 9.237 1.067 3 6.0246 -129850 -147669 -18353.8 -14973.1 9533.45 -45476 -7.41388 
3282 2 0.559 8.607 6.4 6.02028 -173592 -154324 -18093.2 16038.7 49223.3 1171.77 -7.41471 
3283 2 0.601 6.151 6.4 6.02005 -120257 -140154 -37175.2 -12747.9 52486.5 -2163.16 -7.41326 
3284 2 0.644 3.696 6.4 6.02462 -130015 -168076 -53506.5 6414.32 40520 -6001.84 -7.41259 
3285 2 0.687 1.24 6.4 6.02167 -125273 -135776 -62865.4 -18435.7 15230.4 -8604.11 -7.4122 
3286 2 0 0 6.4 6.02711 -166486 -152226 -64419.3 -8932.92 -13.5459 5.2016 -7.41213 
3377 2 2.664 9.872 6.4 6.02385 -162420 -121344 -9358.22 -11503.9 37840 -1852.77 -7.41457 
3378 2 1.976 8.632 6.4 6.02211 -179848 -100662 -28907.7 -13819.9 40170.9 -14790.8 -7.41373 
3379 2 2.707 7.416 6.4 6.02137 -159953 -121696 -26400.9 -9831.88 46078.7 -11251 -7.41372 
3380 2 2.019 6.176 6.4 6.02672 -134402 -139916 -39497.3 4372.12 47664.9 -19731.7 -7.41283 
3381 2 2.75 4.961 6.4 6.02406 -168986 -152513 -43310.1 8727.22 42672.3 -21507.7 -7.41285 
3382 2 2.062 3.721 6.4 6.02175 -119048 -109317 -51296.1 -15733 38944.1 -23659.7 -7.41225 
3383 2 2.793 2.505 6.4 6.0238 -158990 -116752 -54597.5 -11247.1 25529.2 -29777.3 -7.41228 
3384 2 2.105 1.265 6.4 6.02715 -124406 -142785 -59706.2 186.65 15488.5 -25270.7 -7.41201 
3385 2 2.836 0.05 6.4 6.01807 -165812 -125034 -58256.9 14111.3 -309.829 -33659.4 -7.41222 
3476 2 4.081 9.897 6.4 6.02385 -178884 -102895 -18517.9 -16725.8 27223.5 -18663.8 -7.41415 
3477 2 4.812 8.681 6.4 6.02217 -112247 -124527 -17567.2 -7260.02 32708.8 -10166.2 -7.41372 
3478 2 4.124 7.441 6.4 6.02406 -185406 -139338 -25567 3725.23 40177.8 -27810.1 -7.41375 
3479 2 4.855 6.226 6.4 6.02433 -169959 -154013 -31006.6 11858.7 35567 -24873 -7.41348 
3480 2 4.167 4.986 6.4 6.02137 -171520 -108295 -36150.1 -17465.7 40824.8 -36106.1 -7.41324 
3481 2 4.898 3.77 6.4 6.0238 -159911 -118943 -42443.5 -7917.18 27778.1 -38622.5 -7.41295 
3482 2 4.21 2.53 6.4 6.02406 -176483 -141006 -46470.2 -1339.66 26444.7 -41636.1 -7.41304 
3483 2 4.941 1.315 6.4 6.01959 -164366 -116754 -47472.2 22372.8 9599.18 -47707.6 -7.41225 
3484 2 4.253 0.074 6.4 6.01902 -169353 -123818 -51457.1 16576.1 1605.95 -42792.2 -7.41248 
3575 2 6.917 9.947 6.4 6.02009 -131252 -151075 -13236.4 27639.3 17535.8 -2380.3 -7.41431 
3576 2 6.23 8.706 6.4 6.02137 -145525 -138055 -11101.1 20376.8 26420.1 -26281.2 -7.41434 
3577 2 6.96 7.491 6.4 6.02676 -132413 -168344 -22859.3 27339.9 22897.8 -17298.6 -7.41386 
3578 2 6.272 6.251 6.4 6.01864 -172484 -108537 -18131.8 -18292.1 33948.1 -36306.8 -7.41435 
3579 2 7.003 5.035 6.4 6.02545 -111383 -122687 -31087.5 -4775.9 21752.4 -33407.5 -7.41319 
3580 2 6.315 3.795 6.4 6.02406 -177939 -143321 -27732 -2400.69 29780.6 -44466.7 -7.41397 
3581 2 7.046 2.58 6.4 6.02088 -116217 -120344 -35438.4 25908.4 12225.2 -46584.6 -7.41258 
3582 2 6.358 1.339 6.4 6.0189 -168509 -113840 -35955.7 9662.53 13810.9 -48428 -7.41295 
3583 2 7.089 0.124 6.4 6.02504 -119975 -129629 -34372.6 20020.5 -2796.13 -53073 -7.413 
3674 2 8.335 9.971 6.4 6.02186 -150869 -135665 1390.09 12971.2 11541.2 -20916.9 -7.41474 
3675 2 9.065 8.756 6.4 6.02615 -138172 -181113 -19946.9 13220.6 10127 -4997.26 -7.41443 
3676 2 8.378 7.516 6.4 6.02265 -142964 -139550 -1660.67 -16953 22235.9 -28620.6 -7.41517 
3677 2 9.108 6.3 6.4 6.02402 -129108 -150997 -24791.7 -3189.55 12069.7 -19165 -7.4139 
3678 2 8.421 5.06 6.4 6.0247 -147124 -173216 -8719.26 -1982.01 25560.3 -36375.5 -7.41534 
3679 2 9.151 3.845 6.4 6.02186 -134154 -149757 -26621.9 28285.5 8622.3 -32936.5 -7.41343 
3680 2 8.464 2.604 6.4 6.02106 -137091 -145160 -18013.8 10513.9 19253.2 -41640.4 -7.41421 
3681 2 9.194 1.389 6.4 6.02623 -141458 -180570 -24475.4 13428.2 417.665 -42619 -7.41414 
3682 2 8.507 0.149 6.4 6.02226 -133043 -164487 -25074.7 -14447.2 5728.15 -42040.6 -7.41394 
605 1 11.514 9.624 3 6.02676 -146700 -155527 16687 -23836.2 2555.27 -19344.1 -7.41601 
606 1 10.784 8.409 3 6.0196 -127459 -150890 -22916.3 -7724.41 6545.31 -2855.96 -7.4138 
607 1 11.471 7.168 3 6.02186 -147637 -140764 13676.8 -25568.2 9218.96 -22412.1 -7.41534 
608 1 10.741 5.953 3 6.0247 -134856 -180379 -24213.7 7685.66 8054.14 -11450.1 -7.41466 
609 1 11.428 4.713 3 6.02402 -140670 -144183 6428.61 5359.27 12926.7 -27044.3 -7.41535 
610 1 10.698 3.497 3 6.0199 -126478 -150277 -22627.8 25296.9 4609.31 -20036.9 -7.41442 
611 1 11.385 2.257 3 6.02721 -148102 -178192 -3255.93 -14813.3 11967.2 -30301.6 -7.41491 
612 1 10.655 1.042 3 6.02298 -135266 -161913 -17664 -8072.26 -3471.16 -26473.6 -7.41433 
704 1 12.932 9.599 3 6.02265 -124705 -146201 -26269.6 21168.5 -865.336 2551.16 -7.41396 
705 1 13.619 8.359 3 6.02615 -154335 -171445 24050.9 -12930.2 8006.27 -17666.6 -7.41655 
706 1 12.889 7.144 3 6.02186 -132131 -145753 -25787.8 -7265.82 -244.552 -344.039 -7.41344 
707 1 13.576 5.903 3 6.02186 -145969 -142302 18079.7 -27233.4 12168.3 -16407 -7.41556 
708 1 12.846 4.688 3 6.02615 -139864 -177420 -22229.2 7488.67 -1329.61 -4854.37 -7.4143 
709 1 13.533 3.448 3 6.02265 -138883 -145078 8482.26 3770.21 13561.1 -16254.5 -7.41546 
710 1 12.803 2.232 3 6.02402 -133076 -145923 -15931.9 25017.2 -5379.22 -9595.13 -7.41437 
711 1 13.49 0.992 3 6.02516 -140492 -158234 -2148.28 -4231.37 11501.7 -15219.8 -7.41497 
803 1 15.767 9.55 3 6.02127 -145053 -141908 33201 4184.71 12255.3 -21782.4 -7.41674 
804 1 15.037 8.334 3 6.02265 -126886 -143776 -29168.5 22670.8 -3070.62 1173.98 -7.41358 
805 1 15.724 7.094 3 6.02615 -153124 -172847 27131.5 -13856.7 15648.2 -14871.8 -7.41673 
806 1 14.994 5.879 3 6.02186 -132341 -143767 -25427.6 -7790.25 -4764.22 1923.33 -7.41341 
807 1 15.681 4.638 3 6.02186 -144361 -142976 17876.5 -28059.6 17253 -9959.07 -7.41555 
808 1 14.951 3.423 3 6.02615 -140600 -175376 -18665.3 6881.2 -7594 847.281 -7.41444 
809 1 15.638 2.183 3 6.02265 -136519 -145820 6373.3 3156.29 16005.9 -6457.66 -7.41529 
810 1 14.908 0.967 3 6.0255 -138206 -157716 -9352.69 32178.8 -11733.4 -1504.33 -7.41462 
902 1 17.185 9.525 3 6.02616 -136340 -175314 -30854.5 2317.51 -88.2087 -6129.79 -7.41339 
903 1 17.872 8.285 3 6.02127 -144211 -143612 36862.8 4040.9 22369.6 -22277 -7.41695 
904 1 17.142 7.069 3 6.02265 -127039 -142684 -28619.6 22259.8 -3343.57 -1680.36 -7.41357 
905 1 17.829 5.829 3 6.02615 -151708 -173932 26603.2 -13862.7 23831.3 -13741.5 -7.41671 
906 1 17.099 4.614 3 6.02186 -132835 -142441 -23008.8 -8429.46 -7024.19 1141.77 -7.41349 
907 1 17.786 3.373 3 6.02106 -140219 -143784 14253.7 -29597.7 22398.2 -7141.3 -7.41558 
908 1 17.056 2.158 3 6.02623 -141004 -174862 -14053.8 6270.86 -11604.4 1643.11 -7.41458 
909 1 17.743 0.918 3 6.02225 -133888 -159496 977.73 -4023.82 17985 -2533.97 -7.4154 
1001 1 20.02 9.475 3 6.0247 -150706 -179930 49546.1 -14079 29307.6 -33702.6 -7.41805 
1002 1 19.29 8.26 3 6.02677 -136468 -175656 -28878.5 2181.62 1958.58 -11947 -7.41347 
1003 1 19.977 7.02 3 6.0199 -138345 -146403 37557.4 4643.23 31583.1 -24372.7 -7.41742 
1004 1 19.247 5.804 3 6.02402 -127389 -142754 -25262.1 21791.2 -2760.28 -7297.56 -7.4137 
1005 1 19.934 4.564 3 6.0247 -145127 -178199 23779 -13462.1 30505.9 -16233.8 -7.41678 
1006 1 19.204 3.349 3 6.02194 -124793 -128484 -18026.4 -21584.5 -8703.7 -4348.22 -7.41352 
1007 1 19.892 2.108 3 6.01607 -169552 -112465 9476.05 -25301.6 25478.4 -10109.1 -7.41539 
1008 1 19.161 0.893 3 6.02504 -119607 -126084 -7355.38 -3274.43 -15336.8 -4155.91 -7.41427 
3773 2 11.17 10.021 6.4 6.02615 -136801 -178610 -22232.6 12322.5 2318.28 4303.72 -7.41428 
3774 2 10.483 8.781 6.4 6.02265 -145763 -139024 11575.2 -20532 10607.3 -20787.1 -7.4156 
3775 2 11.213 7.565 6.4 6.02265 -127821 -149151 -23963.4 -3792.38 3546.51 -4178.81 -7.41391 
3776 2 10.526 6.325 6.4 6.02615 -153402 -171774 7133.09 -3602.23 17888.8 -24564.7 -7.4157 
3777 2 11.256 5.11 6.4 6.02186 -133104 -148763 -23541.9 28403.2 2851.56 -14677.9 -7.41358 
3778 2 10.569 3.869 6.4 6.02186 -143962 -143565 -881.097 9381.39 18708.3 -28128 -7.41463 
3779 2 11.299 2.654 6.4 6.02615 -140992 -179626 -19707.3 14500.9 -1070.72 -24081 -7.41444 
3780 2 10.612 1.414 6.4 6.02265 -135860 -147770 -10103.9 -23244.7 12957.2 -29178.2 -7.41451 
3781 2 11.342 0.198 6.4 6.0255 -138341 -160887 -12575 -11102.3 -6970.51 -29759.7 -7.41448 
3872 2 12.588 10.046 6.4 6.02265 -146008 -139104 21512.1 -21939.6 3854 -19346.4 -7.41611 
3873 2 13.318 8.83 6.4 6.02127 -126537 -146139 -27109.5 -5102.76 168.606 3599.37 -7.41371 
3874 2 12.631 7.59 6.4 6.02615 -156082 -171530 19165.8 -3261.62 11254.8 -17304.3 -7.41605 
3875 2 13.361 6.375 6.4 6.02368 -131059 -146014 -25139.5 32453.3 -917.249 -947.837 -7.41346 
3876 2 12.674 5.134 6.4 6.02009 -144235 -141796 12354.3 10170 15830.2 -16498.3 -7.41553 
3877 2 13.404 3.919 6.4 6.02615 -139662 -177693 -20259.8 14125.9 -3341.04 -6863.37 -7.41439 
3878 2 12.717 2.679 6.4 6.02265 -138468 -145252 3124.21 -23893.2 15506.5 -15524.1 -7.4152 
3879 2 13.447 1.463 6.4 6.02402 -133152 -145998 -12476.4 -3034.16 -7420.48 -12089.3 -7.41453 
3880 2 12.76 0.223 6.4 6.02516 -140165 -158352 -7088.99 -17082.9 11113.3 -13407.8 -7.41474 
3971 2 15.423 10.095 6.4 6.0199 -121062 -144675 -30077.7 -6096.3 2723.98 1414.33 -7.41393 
3972 2 14.736 8.855 6.4 6.02677 -155452 -173874 28570.4 -3767.74 9340.86 -18854.9 -7.41644 
3973 2 15.466 7.64 6.4 6.0247 -131994 -178279 -28814.8 14145.6 -59.7011 2694.41 -7.41397 
3974 2 14.779 6.4 6.4 6.02234 -143836 -142536 22753 -23654 14489.4 -12951.5 -7.41605 
3975 2 15.509 5.184 6.4 6.02465 -128014 -143284 -24011 -2853.17 -3274.67 1857.89 -7.41406 
3976 2 14.822 3.944 6.4 6.02402 -141733 -141078 13276.5 -24165.6 16778.2 -8315.21 -7.41582 
3977 2 15.552 2.728 6.4 6.02127 -130579 -145480 -16239.2 -3874.7 -7555.03 -503.968 -7.41423 
3978 2 14.865 1.488 6.4 6.02615 -147900 -176324 2155.35 -5282.53 15415.2 -4576.43 -7.41517 
3979 2 15.595 0.273 6.4 6.02383 -137847 -158424 -5716.61 27522.5 -12342.1 -3362.1 -7.41465 
4070 2 16.841 10.12 6.4 6.02611 -137582 -146911 38341.8 -4292.79 12748.7 -28127.8 -7.41662 
4071 2 17.572 8.905 6.4 6.02406 -164109 -147603 -30693.5 11579.9 4899.67 -3498.47 -7.4134 
4072 2 16.884 7.665 6.4 6.02225 -125753 -114297 32126.8 -24602.2 17018.2 -18900.7 -7.41631 
4073 2 17.615 6.449 6.4 6.02102 -156602 -110631 -27554.4 -6981.96 465.169 -350.022 -7.41394 
4074 2 16.927 5.209 6.4 6.02721 -135218 -126802 22321.6 -11830.9 19614.2 -10789.6 -7.41598 
4075 2 17.657 3.993 6.4 6.0199 -124568 -147163 -20922.3 -4499.72 -5108.18 908.59 -7.41405 
4076 2 16.97 2.753 6.4 6.02677 -148685 -176529 10190.9 -4873.02 19311.6 -4435.81 -7.41549 
4077 2 17.7 1.538 6.4 6.0247 -136501 -179282 -11221.4 15027.2 -11679.3 122.306 -7.41477 
4078 2 17.013 0.298 6.4 6.0246 -138499 -157952 -2427 -16333.8 16225 -225.324 -7.41481 
4170 2 18.989 8.93 6.4 6.02137 -174906 -114667 43206.3 -24380.5 22875.1 -30401.7 -7.4173 
4171 2 19.72 7.714 6.4 6.0238 -155369 -114018 -27924 -8094.89 6596.69 -10124.9 -7.41355 
4172 2 19.032 6.474 6.4 6.02433 -182535 -144489 32258.2 -7632.66 25182.7 -21097.5 -7.41703 
4173 2 19.763 5.259 6.4 6.01959 -158450 -113435 -23455.2 26310 144.874 -6945.3 -7.41366 
4174 2 19.075 4.018 6.4 6.02371 -124613 -114794 19269.3 11985.5 24752.2 -12934.2 -7.41525 
4175 2 19.806 2.803 6.4 6.02406 -169302 -146312 -15419.1 11685.3 -8238.33 -5504.98 -7.41428 
4176 2 19.118 1.563 6.4 6.02225 -117180 -116667 5562.83 -24099.1 21221.4 -7090.38 -7.41486 
4177 2 19.849 0.347 6.4 6.02195 -165618 -128613 -4124.84 -14322.3 -17425.2 -6505.52 -7.4148 
1100 1 21.438 9.45 3 6.02225 -107868 -116545 -25669 22950.9 7926.82 -22484 -7.41329 
1101 1 22.126 8.21 3 6.02406 -182543 -152745 52451.9 -11258.5 37341 -35641 -7.41779 
1102 1 21.395 6.995 3 6.02611 -118089 -149045 -23818.5 2723.88 3457.76 -18861.8 -7.41334 
1103 1 22.083 5.755 3 6.02137 -169578 -119214 36946.7 7658.62 38136.3 -28480.1 -7.41696 
1104 1 21.352 4.539 3 6.0246 -109244 -116167 -18810.4 22004.2 -3085.11 -15525.6 -7.41364 
1105 1 22.04 3.299 3 6.02406 -176553 -148041 20727.2 -10827 33928.8 -22337.3 -7.4164 
1106 1 21.309 2.084 3 6.02097 -163193 -115374 -10185.1 -8289.42 -11482.3 -13846.5 -7.41403 
1107 1 21.997 0.843 3 6.01792 -169908 -126961 5625.81 -29064.1 25064.4 -18106 -7.4153 
1199 1 24.274 9.401 3 6.0238 -174567 -121428 71063.5 10390 38132.1 -41312.6 -7.41884 
1200 1 23.543 8.185 3 6.02137 -156277 -117609 -19382.2 23505.4 8323.73 -27229.1 -7.41398 
1201 1 24.231 6.945 3 6.02433 -182128 -153861 53827.7 -9818.03 42509.4 -37557.9 -7.41784 
1202 1 23.5 5.73 3 6.02406 -166036 -150845 -15881.8 1981.65 3035.3 -25863.7 -7.41412 
1203 1 24.188 4.49 3 6.02217 -120377 -121677 35840.6 8548.25 41003.5 -33405.1 -7.41651 
1204 1 23.457 3.274 3 6.0238 -156731 -118703 -9270.82 22064 -5662.22 -24550.7 -7.4145 
1205 1 24.145 2.034 3 6.0261 -125727 -152137 19007.2 -8943.86 33340.3 -29985.1 -7.41589 
1206 1 23.414 0.819 3 6.02085 -164408 -132082 667.602 -3765.57 -16586.6 -24689.1 -7.41492 
1298 1 25.691 9.376 3 6.02406 -166108 -151704 -14936.4 6950.24 8947.73 -28282.7 -7.41457 
1299 1 26.379 8.136 3 6.02545 -124986 -124787 73899.2 10901.8 41499.4 -39172.9 -7.41859 
1300 1 25.648 6.92 3 6.01864 -155585 -119696 -10599.3 22444.6 6653.01 -30424.1 -7.41467 
1301 1 26.336 5.68 3 6.02677 -141785 -171700 54311.8 -22315.2 44437.3 -38446.7 -7.41766 
1302 1 25.606 4.465 3 6.02385 -132788 -185865 -5066.54 56.0607 -16.9541 -31050.5 -7.41491 
1303 1 26.293 3.225 3 6.02234 -136305 -152343 35431.5 9467.36 40007.1 -37136.7 -7.41686 
1304 1 25.563 2.009 3 6.02265 -125354 -149656 2989.67 19291.5 -10910.6 -31594.3 -7.41565 
1305 1 26.25 0.769 3 6.02768 -137270 -163551 19426.5 1824.49 29150.1 -35867.6 -7.41605 
1397 1 28.527 9.326 3 6.02186 -148347 -153573 95320.7 -19522.9 35504.3 -32711.1 -7.41972 
1398 1 27.797 8.111 3 6.0247 -133589 -183319 -6504.02 3956.51 5830.4 -27295 -7.41546 
1399 1 28.484 6.871 3 6.02402 -141653 -154738 74539.1 11380 43121.9 -35193 -7.41895 
1400 1 27.754 5.655 3 6.02127 -125242 -153057 240.478 18189.1 2883.2 -30389.9 -7.41527 
1401 1 28.441 4.415 3 6.02615 -147939 -187974 54173.7 -8447.31 43477.9 -36520 -7.4178 
1402 1 27.711 3.2 3 6.02616 -138089 -186013 7551.75 -678.485 -5653.85 -32328.5 -7.41537 
1403 1 28.398 1.96 3 6.02127 -132974 -155846 36101.7 10767.9 35917.6 -37017.2 -7.41685 
1404 1 27.668 0.744 3 6.0255 -134678 -165765 17479.4 25718.3 -18405.7 -33942.1 -7.41595 
1496 1 29.945 9.302 3 6.02186 -133735 -152216 -6466.6 -10485.7 671.508 -18516.8 -7.41439 
1498 1 29.902 6.846 3 6.02615 -138451 -184355 3432.33 2046.99 1997.36 -23024.6 -7.41558 
1500 1 29.859 4.39 3 6.02127 -127780 -155183 11729.6 18254.4 -2551.67 -25943 -7.41568 
1502 1 29.816 1.935 3 6.02615 -138148 -189792 20985.2 -2057.59 -13011 -28068.2 -7.41603 
4269 2 21.825 8.979 6.4 6.02545 -107323 -117414 -24671 -6914.48 11976.7 -20942.8 -7.41334 
4270 2 21.137 7.739 6.4 6.02406 -182516 -147993 45571.6 -6090.25 32087.6 -33579.1 -7.41777 
4271 2 21.868 6.524 6.4 6.02088 -111515 -116325 -22003.1 23711.7 6280.65 -18536.4 -7.41311 
4272 2 21.18 5.283 6.4 6.01959 -173565 -116708 31192.4 7469.38 31821.3 -25824.4 -7.41628 
4273 2 21.911 4.068 6.4 6.02549 -118952 -147278 -16301.8 9555.26 -2537.32 -16634.8 -7.41409 
4274 2 21.223 2.828 6.4 6.0238 -166688 -116513 15950.6 -22888.6 27745.2 -19233.3 -7.41581 
4275 2 21.954 1.612 6.4 6.02284 -160626 -114857 -6906.23 -8275.04 -13662.7 -16201.7 -7.4147 
4276 2 21.266 0.372 6.4 6.02466 -168390 -127056 1556.36 -15958.5 20408.9 -15025.8 -7.41509 
4368 2 23.243 9.004 6.4 6.0247 -150518 -180313 62752.7 -2368.59 37555.8 -41815.4 -7.41915 
4369 2 23.973 7.789 6.4 6.02186 -130278 -147195 -17579.2 24857.3 10263.5 -27429.9 -7.41373 
4370 2 23.286 6.548 6.4 6.02106 -141902 -148771 46579.4 10892.6 38711.4 -36965.8 -7.41755 
4371 2 24.016 5.333 6.4 6.02721 -136608 -178034 -13436.6 9882.75 3216.14 -27320.8 -7.41463 
4372 2 23.329 4.093 6.4 6.02128 -134275 -151066 29872 -20350.5 35319 -31606.7 -7.41679 
4373 2 24.059 2.877 6.4 6.02407 -119501 -134199 -6008.55 4451.23 -7890.44 -27083.3 -7.4145 
4374 2 23.371 1.637 6.4 6.02153 -172824 -148539 13974.4 -4465.64 27377.3 -27158.5 -7.4162 
4375 2 24.102 0.422 6.4 6.02144 -117371 -133691 4863.84 17054.5 -21180.6 -27796.8 -7.41478 
4467 2 26.078 9.054 6.4 6.02186 -131305 -150034 -13419.7 25550.9 9739.79 -29266.2 -7.41397 
4468 2 25.391 7.813 6.4 6.02186 -147653 -150608 65848.7 12787.1 42684.4 -41621.1 -7.41818 
4469 2 26.121 6.598 6.4 6.02615 -136743 -180981 -8340.54 10006.7 6261.04 -32442.5 -7.41492 
4470 2 25.434 5.358 6.4 6.02265 -140420 -151168 47503.8 -19075 41798.9 -39171.6 -7.41752 
4471 2 26.164 4.142 6.4 6.02265 -127155 -151071 -2197.64 -8630.07 -2325.89 -34021.2 -7.41491 
4472 2 25.477 2.902 6.4 6.0247 -144027 -181441 29729.5 -68.7664 35052.3 -35921.5 -7.4171 
4473 2 26.207 1.687 6.4 6.02186 -132337 -151656 6884.02 22067.5 -15170.7 -34951.7 -7.41495 
4474 2 25.52 0.446 6.4 6.02168 -134318 -161617 14541.1 17776.9 23743 -33144.7 -7.4162 
4566 2 27.496 9.078 6.4 6.02186 -148504 -152710 87284.4 14648.9 41554.7 -38079.5 -7.41932 
4567 2 28.226 7.863 6.4 6.02615 -137839 -183180 -4773.45 10118.2 4927.74 -29915.2 -7.41514 
4568 2 27.539 6.623 6.4 6.02265 -141716 -153726 67761.2 -17308.4 44684.7 -39050.7 -7.41861 
4569 2 28.269 5.407 6.4 6.02127 -127227 -153581 2606.66 -8906.11 683.575 -33950.7 -7.41519 
4570 2 27.582 4.167 6.4 6.02615 -149414 -184353 48289.7 1539.35 41304.6 -38019.8 -7.41761 
4571 2 28.312 2.952 6.4 6.02368 -130994 -153213 10759.5 26451.3 -9343.25 -36033.2 -7.41523 
4572 2 27.625 1.711 6.4 6.01992 -136869 -150815 31131 15161.2 31675 -35903.1 -7.41658 
4573 2 28.355 0.496 6.4 6.02565 -135445 -165216 21495.3 16358.9 -22993.3 -36973.2 -7.41616 
4666 2 29.644 7.888 6.4 6.02265 -142887 -155208 88441.1 -15829.6 42537 -31786.8 -7.4197 
4668 2 29.687 5.432 6.4 6.02615 -149534 -188776 67851.5 3261.48 44070.8 -32693.1 -7.41853 
4670 2 29.73 2.977 6.4 6.02127 -135760 -156499 48732.9 -16342.6 38230.4 -31728.5 -7.41744 
4672 2 29.773 0.521 6.4 6.02404 -136170 -167686 32890.1 -8897.65 26510.6 -29991.4 -7.41677 
1497 1 30.632 8.061 3 6.02186 -146742 -154922 94372.1 -18695.4 37905.9 -25034.7 -7.41962 
1499 1 30.589 5.606 3 6.02265 -139353 -156505 72804.5 12404.7 43262.4 -28106.3 -7.41882 
1501 1 30.546 3.15 3 6.02616 -145264 -189918 53206.7 -7292.53 40208.1 -30287.6 -7.41773 
1503 1 30.503 0.695 3 6.02323 -134663 -171057 36497.1 4158.43 29927.6 -31619.3 -7.41683 
1595 1 32.78 9.252 3 6.02615 -153675 -185929 111455 -3941.71 31086.4 -11905.2 -7.4212 
1596 1 32.05 8.037 3 6.02186 -133745 -153670 2355.35 -13253.3 -1989.61 -11963.7 -7.41488 
1597 1 32.737 6.796 3 6.02186 -144847 -156157 89807.9 -18005.9 40399.1 -14607.3 -7.41933 
1598 1 32.007 5.581 3 6.02615 -138365 -186251 13162.1 -220.543 -2085.24 -14637.1 -7.4161 
1599 1 32.694 4.341 3 6.02265 -136901 -157819 68681.1 13278.9 42007.9 -17408.9 -7.41858 
1600 1 31.964 3.125 3 6.02127 -128010 -157185 22778 16490 -8973.82 -16519.3 -7.41626 
1601 1 32.651 1.885 3 6.02615 -143696 -189814 50311.7 -6165.78 35213.8 -19615.8 -7.41766 
1602 1 31.921 0.67 3 6.02383 -133640 -170731 33562.1 -14949.9 -20970.2 -18399.7 -7.41669 
1694 1 34.198 9.227 3 6.02265 -130813 -153747 -2655.32 15552 -6591.03 -1128.87 -7.41501 
1695 1 34.885 7.987 3 6.02469 -150035 -187278 102923 -5209.86 36601.1 -74.0359 -7.42093 
1696 1 34.155 6.772 3 6.02186 -133251 -155100 10594.8 -16013.4 -3293.88 -1793.85 -7.41532 
1697 1 34.842 5.531 3 6.02106 -138103 -158044 81155.4 -17449.7 42017.9 -1655.81 -7.4193 
1698 1 34.112 4.316 3 6.02721 -138078 -187597 21430.2 -2308.29 -6292.82 -2295.7 -7.41654 
1699 1 34.799 3.076 3 6.02128 -129913 -159684 61227.5 14008.2 39008.2 -3753.64 -7.41862 
1700 1 34.069 1.86 3 6.02552 -129333 -156881 31729.9 14852 -15870.5 -3353.66 -7.4168 
1701 1 34.756 0.62 3 6.02371 -131002 -173401 44940.5 6013.45 28915.1 -5593.1 -7.41761 
1793 1 37.033 9.178 3 6.0199 -138873 -158900 111477 13917.6 33699.2 12517.5 -7.42109 
1794 1 36.303 7.962 3 6.02407 -121207 -141101 4458.59 162.116 -4367.5 9258.1 -7.41519 
1795 1 36.991 6.722 3 6.0215 -179158 -157030 90183.2 -1546.61 41406.2 13261 -7.42025 
1796 1 36.26 5.507 3 6.02088 -113790 -127972 16367.3 -17454.9 -4341.28 11186 -7.41522 
1797 1 36.948 4.266 3 6.01959 -169014 -129054 69189.4 -15018.5 41741 12534.9 -7.41823 
1798 1 36.217 3.051 3 6.0261 -119325 -160044 26679.5 -3138.95 -11103.1 11852.2 -7.41642 
1799 1 36.905 1.811 3 6.0238 -160318 -131294 51142.5 16470.4 34109.6 10814.1 -7.41762 
1800 1 36.174 0.595 3 6.02341 -115407 -142971 37931.2 21961.6 -22922.4 11423.1 -7.41667 
1892 1 38.451 9.153 3 6.02545 -121513 -158847 -3584.35 -9199.12 -3438.62 16501.4 -7.41452 
1893 1 39.139 7.913 3 6.02137 -171593 -127125 94502.9 15737.9 40931 25059 -7.41999 
1894 1 38.408 6.697 3 6.0238 -158165 -126238 8163.43 12212 -1732.6 21252.7 -7.41553 
1895 1 39.096 5.457 3 6.02406 -178572 -157407 73592.2 -300.164 43627.5 26033.4 -7.41917 
1896 1 38.365 4.242 3 6.01959 -161199 -126710 18092.7 -18183.7 -6195.24 23969 -7.41566 
1897 1 39.053 3.001 3 6.02097 -168300 -127071 54104.9 -14022.8 38561.4 25179 -7.41746 
1898 1 38.322 1.786 3 6.02406 -166739 -159933 28194.2 -4455.25 -16719.5 25106.6 -7.41678 
1899 1 39.01 0.546 3 6.02551 -115889 -143410 38227 9092.96 27301.1 23339.7 -7.41655 
4665 2 30.331 9.128 6.4 6.0247 -137091 -184307 -5089.97 11210.4 -324.524 -21413.8 -7.41538 
4667 2 30.374 6.672 6.4 6.02127 -128224 -154969 5007.89 -9464.22 189.598 -26984.6 -7.41536 
4669 2 30.417 4.217 6.4 6.02616 -137740 -188953 14144.7 8787.32 -5322.37 -30251.2 -7.41576 
4671 2 30.46 1.761 6.4 6.02557 -130021 -155494 23750.2 -11643 -16564 -31649.4 -7.41624 
4764 2 31.749 9.153 6.4 6.02407 -135072 -141692 107677 -2320.36 35874.9 -20137.4 -7.42052 
4765 2 32.479 7.937 6.4 6.0199 -124825 -157916 3331.25 -10367.2 -3069.15 -15939.3 -7.41552 
4766 2 31.792 6.697 6.4 6.02677 -151092 -189638 86335.3 4401.19 42549.4 -21979.1 -7.41949 
4767 2 32.522 5.482 6.4 6.0247 -133761 -190653 14511 7765.84 -3706.89 -19217.9 -7.41624 
4768 2 31.835 4.242 6.4 6.02234 -136914 -157415 65696.8 -15409 41920.8 -21542.7 -7.41844 
4769 2 32.565 3.026 6.4 6.02265 -124708 -156196 24347.2 -12301 -11070.5 -20853.6 -7.4169 
4770 2 31.878 1.786 6.4 6.0276 -134274 -156661 47677.8 -15577.1 33678.3 -20216.5 -7.41745 
4771 2 32.608 0.57 6.4 6.0255 -132391 -171460 35591.1 -18479.6 -23187.2 -20890.2 -7.41702 
4863 2 34.585 9.202 6.4 6.02137 -159688 -125099 -2502 -13918 -6845.6 -5027.21 -7.41501 
4864 2 33.897 7.962 6.4 6.02545 -133877 -161467 101955 4392.48 37516.3 -8842.33 -7.41994 
4865 2 34.628 6.747 6.4 6.02406 -167650 -160796 10998.9 4198.73 -3634.72 -6280.91 -7.41566 
4866 2 33.94 5.507 6.4 6.02225 -120226 -129653 80300.7 -15241 42305.6 -8207.49 -7.41883 
4867 2 34.671 4.291 6.4 6.0238 -156377 -129485 21572 -15509.2 -6770.98 -7073.95 -7.41622 
4868 2 33.983 3.051 6.4 6.0261 -125898 -160432 60711.2 2007.68 38787.2 -6557.22 -7.41812 
4869 2 34.714 1.836 6.4 6.01704 -160093 -125640 32150.1 18072.6 -16419.9 -6775.01 -7.4169 
4870 2 34.026 0.595 6.4 6.02661 -120177 -122522 44184.4 22218.6 28503.5 -4825.57 -7.41685 
4962 2 36.002 9.227 6.4 6.02406 -182024 -160686 113533 4085.19 31033 3688.61 -7.42094 
4963 2 36.733 8.012 6.4 6.02545 -121535 -159688 4167.35 2355.69 -3764.11 5073.24 -7.41493 
4964 2 36.045 6.772 6.4 6.02137 -169753 -128451 91820.4 -14318.1 40178.8 5577.63 -7.41979 
4965 2 36.776 5.556 6.4 6.0238 -158044 -127255 15568.8 -17458.4 -3414.08 6442.21 -7.41592 
4966 2 36.088 4.316 6.4 6.02406 -176222 -158845 70854.3 2067.82 41675.1 7728.77 -7.41901 
4967 2 36.819 3.101 6.4 6.01959 -161445 -127709 25529.9 14336.5 -9939.74 7650.68 -7.41603 
4968 2 36.131 1.86 6.4 6.02234 -166863 -127059 52335.2 15895.8 34889.8 9923.02 -7.41744 
4969 2 36.862 0.645 6.4 6.02338 -162337 -139725 36770.8 13054.2 -21739.5 8974.22 -7.41722 
5061 2 38.838 9.277 6.4 6.02677 -140452 -186461 -4446.12 109.729 -2471.18 13175.4 -7.41484 
5062 2 38.151 8.037 6.4 6.0199 -137790 -159241 98864.1 -12701.8 36858.3 17474.6 -7.42042 
5063 2 38.881 6.821 6.4 6.02407 -120159 -141119 6979.15 -5845.44 -217.798 16912.4 -7.41529 
5064 2 38.193 5.581 6.4 6.0215 -177476 -157210 77549.6 3168.22 42555.5 20482.1 -7.41958 
5065 2 38.924 4.366 6.4 6.02088 -113249 -127404 16314.3 13267.5 -4011.59 19623.1 -7.41518 
5066 2 38.236 3.125 6.4 6.01959 -167089 -128867 57637.5 16963.8 39844 22878.8 -7.41764 
5067 2 38.967 1.91 6.4 6.02557 -119262 -160052 26021.4 -25.3431 -14071.8 21513.8 -7.41629 
5068 2 38.279 0.67 6.4 6.02463 -162759 -143900 40929 -6469.19 29756.4 24643.7 -7.41706 
1991 1 41.287 9.103 3 6.02545 -135772 -159382 95150.7 -2797.32 40279.1 33284.7 -7.41967 
1992 1 40.556 7.888 3 6.02406 -166906 -158792 -1108.36 -9724.56 1997.5 26762.6 -7.41499 
1993 1 41.244 6.648 3 6.02225 -122794 -126971 74734.3 17181.1 44570.6 35255.4 -7.41858 
1994 1 40.513 5.432 3 6.0238 -155858 -126818 7482.63 11247 -890.295 31143.7 -7.41547 
1995 1 41.201 4.192 3 6.0261 -128782 -157281 54921.1 144.476 41927.3 34940.3 -7.41783 
1996 1 40.47 2.977 3 6.01707 -158554 -124369 16271.6 -21262.6 -10036.1 33460.8 -7.41598 
1997 1 41.158 1.736 3 6.02618 -128625 -139141 37402.7 -31668.8 32545.3 33253.5 -7.41647 
1998 1 40.428 0.521 3 6.02384 -130513 -169734 27105.8 -19745.1 -23177 34242.2 -7.41668 
2090 1 42.705 9.078 3 6.0199 -123243 -155200 -10111.7 5638.98 6791.23 28201 -7.41475 
2091 1 43.392 7.838 3 6.02677 -153594 -185976 73662.4 -2000.17 43803.4 40366.2 -7.4189 
2092 1 42.662 6.623 3 6.0247 -132704 -186684 -3324.91 -11747 4569.11 32837.5 -7.41526 
2093 1 43.349 5.383 3 6.02234 -140052 -152946 54412.1 18000.9 43411.6 39544.1 -7.41789 
2094 1 42.619 4.167 3 6.02265 -124019 -151573 3646.14 8961.58 -3149.93 35521.7 -7.41578 
2095 1 43.306 2.927 3 6.0276 -138043 -150686 36180.8 18297.1 36617.9 37324.8 -7.4169 
2096 1 42.576 1.711 3 6.02402 -127934 -152785 12746.3 7919.89 -15685.1 36832.2 -7.41586 
2097 1 43.263 0.471 3 6.02516 -136914 -164155 20757.8 10871.1 24779.1 35026.5 -7.41611 
2189 1 45.54 9.029 3 6.02265 -145055 -150789 70706.3 18747.3 40384.7 42469.5 -7.41883 
2190 1 44.81 7.813 3 6.02127 -126727 -149931 -13264.7 6568.04 9456.51 30349.8 -7.41434 
2191 1 45.497 6.573 3 6.02615 -152513 -183385 53156.5 -97.3291 41871.1 39948.4 -7.4178 
2192 1 44.767 5.358 3 6.02615 -136878 -182968 -8251.39 -11613.7 2997.4 31955.5 -7.41454 
2193 1 45.454 4.118 3 6.02127 -139264 -150420 35498.9 19505.4 38103.3 36140 -7.41676 
2194 1 44.724 2.902 3 6.0261 -130100 -148074 -818.81 8699.22 -8114.27 32641 -7.41496 