ITEM: TIMESTEP
184
ITEM: NUMBER OF ATOMS
6536
ITEM: BOX BOUNDS pp pp pp
0.0000000000000000e+00 7.0200368299999994e+01
0.0000000000000000e+00 1.2159060500000000e+02
0.0000000000000000e+00 1.5000000000000000e+01
ITEM: ATOMS id type x y z c_csym c_2[1] c_2[2] c_2[3] c_2[4] c_2[5] c_2[6] c_3 
109 1 0.228572 9.81929 2.99123 6.00734 -144289 -164013 19676.5 -42412.7 26776.8 -4787.89 -7.41636 
110 1 0.910866 8.57624 2.98606 6.01233 -190801 -140171 -11020.7 -47643.6 12969.5 -2244.05 -7.4132 
111 1 0.176016 7.36413 2.97942 6.00721 -149668 -166619 11626.1 -45441.4 40375.4 -6414.84 -7.41519 
112 1 0.857272 6.12054 2.97113 6.00303 -189003 -140307 -3823.09 -39770.1 28318.4 -3820.94 -7.41332 
113 1 0.120817 4.90934 2.96129 6.00978 -153481 -167598 3355.43 -30280.8 43615.1 -4555.88 -7.41391 
114 1 0.800249 3.66487 2.95203 6.00407 -179140 -144954 -2827.32 -19130.8 30391.4 -6566.51 -7.41308 
115 1 0.0617966 2.45473 2.94304 6.01787 -155994 -165194 -4116.21 -9534.86 27996 -1394.54 -7.41295 
116 1 0.739689 1.20951 2.9379 6.01936 -166139 -154473 -6296.33 -2838.77 13507 -8536.81 -7.41272 
117 1 -6.51977e-06 1.62956e-06 2.93516 6.02917 -160016 -160054 -7390.18 14.7438 -0.601101 0.0997969 -7.41262 
209 1 3.06158 9.75519 2.99152 6.01474 -211922 -114069 -10189.7 -43468.9 474.225 -8845.18 -7.41356 
210 1 2.3282 8.54212 2.98712 6.00378 -178219 -136776 12157.5 -40186.1 31391 -4155.57 -7.41553 
211 1 3.00891 7.29805 2.98219 6.00932 -215355 -112016 -1865.67 -41245.2 15160.6 -15177.9 -7.41384 
212 1 2.27453 6.08556 2.97347 6.00035 -181966 -139861 4665.91 -29421.9 41406.4 -11715.7 -7.41439 
213 1 2.95389 4.84086 2.96726 6.00401 -206189 -118000 2004.31 -22690.1 25463.3 -23944.3 -7.41377 
214 1 2.21749 3.62947 2.95597 6.00258 -176878 -146744 -1463.9 -6921.76 35797.3 -17199.7 -7.41337 
215 1 2.8955 2.38421 2.95205 6.01027 -185644 -135964 -423.393 -1550.26 20729 -30700.4 -7.41336 
216 1 2.15696 1.17397 2.94304 6.01045 -165681 -156283 -4904.29 9981.74 13085.4 -21193.6 -7.41286 
308 1 4.47882 9.72209 2.99244 6.00402 -195886 -119181 7404 -31935.2 17524.1 4583.39 -7.41525 
309 1 5.15919 8.47773 2.99047 6.00468 -222994 -96794.6 3114.92 -37784.6 882.758 -17493.5 -7.41469 
310 1 4.42607 7.26441 2.98528 5.99866 -202981 -120467 903.543 -22522.1 27325.3 -6412.71 -7.4144 
311 1 5.10553 6.01966 2.98231 6.0029 -220357 -98958.2 8240.65 -20510.9 13335.2 -28013.2 -7.41485 
312 1 4.37102 4.80705 2.97342 5.99745 -199652 -128345 -2905.31 1316.56 30195.2 -17856.4 -7.41362 
313 1 5.04938 3.5619 2.97122 6.00692 -203920 -115386 7595.05 4601.53 18598.8 -38842.8 -7.41452 
314 1 4.31267 2.35045 2.96124 6.00097 -183238 -143754 -3018.83 25547.3 18055.5 -27690.7 -7.41321 
315 1 4.99059 1.10529 2.96288 6.00415 -176280 -146017 2263.03 21247 11155.1 -43135.2 -7.41388 
407 1 7.30926 9.65864 2.99468 6.00407 -214273 -96498.8 10280.3 -37437.6 -6888.51 -17387.5 -7.41555 
408 1 6.57635 8.44518 2.99248 6.00522 -205896 -115700 -6902.86 -18351.9 11105.1 2864.31 -7.41398 
409 1 7.2563 7.20064 2.99196 6.00191 -214091 -96648.7 15493 -20679.4 1821.4 -22797 -7.41594 
410 1 6.52264 5.98747 2.98701 6.00346 -208043 -120784 -9791.27 5954.37 15904.9 -7550.38 -7.41344 
411 1 7.20175 4.74267 2.98633 6.00425 -206623 -105574 15650.3 6313.66 10995.9 -31684.4 -7.41579 
412 1 6.46649 3.53026 2.97925 6.00522 -197608 -133536 -7521.76 35857 12841.7 -18842.8 -7.41327 
413 1 7.14505 2.28541 2.98018 6.00452 -187927 -129709 9936.45 31096.9 12925.9 -38219.1 -7.41509 
414 1 6.40781 1.07406 2.9734 6.00544 -174291 -153320 -1087.98 55009.2 -676.764 -28408.7 -7.41361 
506 1 8.72651 9.62644 2.99614 6.01109 -194863 -119855 -16275.8 -20216.5 2092.95 5367.04 -7.41349 
507 1 9.40725 8.38232 2.99711 6.00624 -196892 -107733 23151.3 -26201 -1748.61 -20134.2 -7.41673 
508 1 8.6735 7.16925 2.99453 6.012 -196983 -126308 -18918.1 2519.48 2907.58 1587.06 -7.41306 
509 1 9.35371 5.92501 2.99486 6.00784 -192845 -112291 23428.3 -125.942 5848.72 -20749.3 -7.41679 
510 1 8.61892 4.71235 2.9909 6.01341 -195232 -134074 -16309.8 33792.9 3013.31 -4937.95 -7.41301 
511 1 9.29851 3.468 2.99133 6.00717 -184969 -124944 17860.5 28759 11597.2 -23401.4 -7.4162 
512 1 8.56225 2.25601 2.98692 6.01535 -182800 -146386 -7991.54 61125.2 -2722.75 -12635.2 -7.41349 
513 1 9.24169 1.01181 2.9886 6.00119 -170003 -147918 7109.65 47355.5 11264.2 -23440.2 -7.4151 
3282 2 0.506395 8.60824 6.41367 6.00425 -136297 -175829 15649.9 46886.6 32937.8 6319.65 -7.41579 
3283 2 0.560008 6.15384 6.42878 6.00694 -141437 -177851 7593.87 40575.8 42939 3313.85 -7.41451 
3284 2 0.617039 3.69968 6.44796 6.01023 -147069 -174553 -423.842 20717.2 36950.7 -2602.82 -7.41336 
3285 2 0.677619 1.24534 6.4621 6.01943 -154897 -165696 -6295.87 3648.58 14146.3 -7428.95 -7.41272 
3286 2 -3.85912e-06 -4.42081e-07 6.46484 6.02917 -160101 -160065 -7391.08 10.2939 -1.10876 -0.0114669 -7.41262 
3377 2 2.60779 9.88447 6.40804 6.00192 -108108 -202724 15491.3 40514.4 20653.3 9821.65 -7.41594 
3378 2 1.92399 8.64251 6.41299 6.00345 -147833 -180994 -9790.41 40797.7 14491.7 -10000.3 -7.41345 
3379 2 2.66041 7.43136 6.41769 6.0029 -111455 -207723 8240.48 42236.7 30927.3 2457.08 -7.41485 
3380 2 1.97752 6.18894 6.42659 5.99747 -147346 -180653 -2905.45 31671.9 30562.1 -17222.4 -7.41362 
3381 2 2.71537 4.97858 6.43274 6.00403 -120442 -203885 2005.41 26826.3 33467.8 -10079.8 -7.41377 
3382 2 2.03446 3.73514 6.44403 6.00255 -148359 -175334 -1463.81 9623.68 32793.9 -22403.1 -7.41337 
3383 2 2.77375 2.52547 6.44797 6.00405 -136892 -187147 -2827.19 5244.28 20881.6 -23037.9 -7.41308 
3384 2 2.09496 1.28089 6.45696 6.01788 -154619 -166553 -4116.25 -8716.32 15206.1 -23549.3 -7.41295 
3385 2 2.83463 0.0713151 6.45456 6.01009 -160261 -161849 -3955.89 -6029.71 -1533.44 -30863.9 -7.41299 
3476 2 4.02557 9.91788 6.40752 6.00521 -122379 -199159 -6901.05 29897 3072.67 -11050.7 -7.41398 
3477 2 4.76234 8.70686 6.40953 6.00468 -95689.7 -224072 3114.29 35722.3 15590.8 7981.76 -7.41469 
3478 2 4.07814 7.4653 6.41472 5.99869 -121586 -201810 904.901 24562.2 19215.9 -20458.9 -7.4144 
3479 2 4.81584 6.25482 6.41781 6.00932 -102032 -225266 -1866.19 24144.6 20723.1 -5541.32 -7.41384 
3480 2 4.13298 5.01259 6.42653 6.00031 -124969 -196844 4668.35 3589.73 30848.6 -30001.6 -7.41439 
3481 2 4.8719 3.80269 6.42888 6.00303 -117997 -211161 -3822.7 1269.33 17466.7 -22613.7 -7.41332 
3482 2 4.1912 2.5593 6.43872 6.00979 -137800 -183182 3355.82 -21221.2 25752.1 -35495.4 -7.41391 
3483 2 4.93067 1.34955 6.43716 5.99894 -144639 -182052 -2520.67 -18396.5 4333.99 -37050.1 -7.41336 
3484 2 4.25192 0.105028 6.44404 6.00448 -159582 -163745 -350.442 -33956.4 5052.75 -34356.9 -7.41336 
3575 2 6.86468 9.98118 6.40573 6.00752 -95170.2 -222064 -5173.93 31179.1 6383.87 12431.9 -7.41423 
3576 2 6.18017 8.73982 6.40756 6.00402 -110805 -204398 7405.71 17180.6 4792.65 -17468.3 -7.41525 
3577 2 6.91745 7.52901 6.40848 6.01477 -100859 -225105 -10191.2 20585.3 7896.54 4012.11 -7.41356 
3578 2 6.2336 6.28734 6.41288 6.00381 -112253 -202675 12158.9 -2184 19293.9 -25107.9 -7.41553 
3579 2 6.97181 5.07696 6.41394 6.01231 -111561 -219332 -11020.7 -1858.65 8426.62 -10109.9 -7.41321 
3580 2 6.28951 3.83451 6.42058 6.0072 -122975 -193244 11629 -30038.5 25742.3 -31757.9 -7.41519 
3581 2 7.02844 2.62435 6.41995 6.00058 -132214 -198133 -7017.53 -26634 3088.04 -25592.4 -7.41341 
3582 2 6.34808 1.38083 6.42653 6.0045 -145717 -175255 6359.16 -52258.2 17528.5 -33358.9 -7.41439 
3583 2 7.08674 0.170364 6.42257 5.99701 -160463 -164386 902.402 -39413 -6333.68 -36444.4 -7.41414 
3674 2 8.2825 10.0139 6.40411 6.00361 -113751 -195575 14212.7 15725.9 -3935.87 -18515.5 -7.41593 
3675 2 9.01912 8.80256 6.40378 6.01576 -110972 -208248 -19368.9 22192.6 2853.13 7991.71 -7.41319 
3676 2 8.33521 7.56085 6.40543 6.00721 -116840 -191055 19723.6 -2395.97 6466.31 -18976.2 -7.41644 
3677 2 9.07242 6.34978 6.40566 6.0195 -120052 -205640 -20359.4 818.314 1727.24 2090.56 -7.41289 
3678 2 8.38948 5.1076 6.40877 6.0074 -122361 -186021 19675.3 -29846 17535.2 -20795.1 -7.41636 
3679 2 9.12745 3.89681 6.40884 6.00898 -132263 -195836 -15614 -25711.8 -702.491 -7806.66 -7.41311 
3680 2 8.44594 2.6539 6.4128 6.00157 -137332 -176312 13654.7 -57240.6 20230.6 -21607.7 -7.41559 
3681 2 9.18421 1.44311 6.41143 6.00197 -150435 -174907 -5507.05 -45792.5 -6053.44 -17764.8 -7.41393 
3682 2 8.50407 0.199442 6.41473 6.00522 -160671 -161967 3331.14 -70522.8 12994.9 -18923.3 -7.41447 
605 1 11.5585 9.56391 3.00225 6.01104 -186267 -118318 30753.3 -32691.6 3655.81 -28312.7 -7.41729 
606 1 10.8246 8.351 2.99928 6.01902 -177270 -135420 -27883 -4360.74 -1449.19 75.8148 -7.41281 
607 1 11.506 7.10739 3.00022 6.01369 -176320 -127573 30591.2 -9766.36 8104.41 -19533.6 -7.41739 
608 1 10.771 5.89493 2.99708 6.02113 -177067 -143474 -25504.8 23282.7 -3288.53 1266.31 -7.41271 
609 1 11.4518 4.6512 2.99722 6.01074 -171722 -133686 25109.3 18206.4 13290.8 -13829.9 -7.41694 
610 1 10.7158 3.43917 2.99423 6.01826 -175535 -148916 -17215.8 52683.8 -6393.22 -238.029 -7.41315 
611 1 11.396 2.19534 2.99442 6.0047 -167431 -143121 14291.4 42328.7 14849.1 -10328.2 -7.41592 
612 1 10.659 0.983732 2.99231 6.00859 -167425 -154263 -4240.57 71563.4 -12281.1 -3648.67 -7.41414 
704 1 12.9759 9.53283 3.00615 6.01592 -166408 -135629 -36387.6 -6001.91 3127.13 -11713.9 -7.41292 
705 1 13.6582 8.28971 3.00761 6.01272 -173454 -136431 38050.8 -13863.3 16203.1 -31441.3 -7.41789 
706 1 12.9234 7.07724 3.00279 6.02247 -158215 -151238 -33886.9 15713 -1628.57 -5429.05 -7.41268 
707 1 13.6053 5.8341 3.00291 6.00877 -162833 -145722 31765 10370.5 20254.8 -18573.6 -7.41743 
708 1 12.8692 4.62219 2.99882 6.0189 -158541 -156837 -26094.2 41640.1 -5940.66 -506.247 -7.41291 
709 1 13.5504 3.37882 2.99823 6.00306 -159582 -148962 20859.5 35077.5 21278.7 -8878.97 -7.41651 
710 1 12.8133 2.16725 2.99563 6.01036 -160981 -155590 -13270.8 63879.1 -11439.2 1456 -7.41369 
711 1 13.4939 0.92367 2.99541 6.00359 -159722 -150765 6343.93 50855.3 17202.2 -2874.22 -7.41527 
803 1 15.8094 9.47353 3.0199 6.00786 -190272 -127563 48531.9 -6949.83 24308.1 -48853.1 -7.41875 
804 1 15.0757 8.2603 3.01259 6.0085 -154546 -146068 -42589.9 19974.7 5783.2 -19398.8 -7.41296 
805 1 15.7583 7.01754 3.01318 6.00342 -169762 -146739 40268 13637.7 29529.1 -34211.9 -7.41808 
806 1 15.0227 5.80533 3.00619 6.01436 -147200 -159381 -34509.6 40831.5 241.648 -12378.9 -7.41298 
807 1 15.7047 4.56237 3.00544 5.99651 -159301 -154114 27976.5 36856.6 31118.4 -20703.8 -7.4171 
808 1 14.9677 3.35076 3.00002 6.00799 -149527 -160229 -22187 62030.1 -6860.38 -6478.57 -7.41344 
809 1 15.6488 2.10743 2.99921 5.99595 -157052 -153220 12851.1 55859.8 26185.4 -10953.2 -7.41589 
810 1 14.9113 0.896023 2.99646 6.00308 -156604 -152551 -6537.1 75550.6 -15136.6 -4147.55 -7.41438 
902 1 17.2268 9.44624 3.02727 5.99364 -171095 -124189 -54436.8 36655.8 12815.7 -30260.8 -7.41323 
903 1 17.9097 8.20361 3.02897 5.99781 -194321 -129629 53436.3 28694.9 35992.6 -50258.1 -7.41925 
904 1 17.1757 6.99032 3.01948 5.9998 -152821 -147862 -44287.1 54130.5 8213.26 -26525.8 -7.41323 
905 1 17.8581 5.74761 3.01926 5.9874 -173695 -146593 38691.1 51006.2 41068.2 -37833.9 -7.41806 
906 1 17.1221 4.53541 3.01019 6.00139 -146620 -157982 -31147.8 74079.8 853.003 -21161.4 -7.41347 
907 1 17.8035 3.29235 3.0092 5.98356 -162212 -152413 21457.6 72742.6 38095 -26835.1 -7.41671 
908 1 17.0661 2.08075 3.00255 5.99537 -150296 -155153 -15669.8 90315.8 -9821.23 -16912.1 -7.41409 
909 1 17.7467 0.837269 3.00264 5.98596 -158284 -150147 3714.03 85407 26132.2 -19797.7 -7.41542 
1001 1 20.0586 9.39416 3.04714 5.99541 -227520 -97961.7 71635.2 50518.2 36633.8 -58424.3 -7.42092 
1002 1 19.327 8.17915 3.03727 5.99016 -176384 -121703 -58187.2 77010 12468.2 -33901.3 -7.4133 
1003 1 20.0098 6.93657 3.0382 5.98027 -200566 -123704 54314 73273.1 46738 -50620 -7.41955 
1004 1 19.2755 5.72307 3.02699 5.991 -159303 -143176 -42050.3 97543.4 7427.17 -33034.1 -7.41356 
1005 1 19.9573 4.48025 3.02621 5.9704 -178922 -140144 34187.4 98747.7 49389.5 -42039.8 -7.41797 
1006 1 19.2209 3.26789 3.01584 5.98521 -152648 -151191 -25053.3 117366 -2933.57 -30369 -7.414 
1007 1 19.9017 2.02466 3.01532 5.96929 -165020 -146780 13702.8 118457 40029.9 -34868.4 -7.41643 
1008 1 19.1641 0.812853 3.00827 5.98071 -154703 -147721 -7392.56 128480 -17635.4 -29032.5 -7.41479 
3773 2 11.1207 10.0763 6.3987 6.01461 -117086 -193653 -28016.4 28239.3 7035.72 936.79 -7.41305 
3774 2 10.4368 8.83444 6.4007 6.0074 -130459 -176403 26432.1 1966.87 1599.83 -22120.3 -7.41702 
3775 2 11.1729 7.62268 6.40051 6.02297 -132081 -183333 -29148.1 8110.87 2605.74 3333.58 -7.41269 
3776 2 10.49 6.38034 6.40244 6.01208 -135931 -168052 27088 -22529.1 10555.8 -16043.4 -7.41714 
3777 2 11.2268 5.1688 6.40294 6.01819 -141685 -177762 -24801.7 -17564.5 -887.715 2117.95 -7.41278 
3778 2 10.545 3.92595 6.40512 6.00461 -142414 -163662 21321.4 -50284.3 17553.7 -11439 -7.41657 
3779 2 11.2824 2.71464 6.40547 6.00942 -151021 -169475 -14466.6 -41246.5 -5752.07 -2020.99 -7.41346 
3780 2 10.6016 1.47129 6.40739 6.00266 -154315 -159433 9939.24 -70224.6 17729.9 -7557.88 -7.41543 
3781 2 11.3392 0.259974 6.40665 6.00517 -160331 -156654 -122.721 -51466 -11487.8 -6699.17 -7.41462 
3872 2 12.5383 10.108 6.39319 6.00268 -137211 -175603 33555.2 4778.92 6896.12 -35658.5 -7.41754 
3873 2 13.2736 8.89574 6.39308 6.01605 -132630 -172696 -37427.9 13573.7 9897.4 -7250.97 -7.41282 
3874 2 12.5904 7.65343 6.39659 6.01369 -150705 -156285 33983.5 -16045.3 12012.4 -23913.3 -7.41762 
3875 2 13.3261 6.44123 6.39744 6.02087 -147542 -160278 -33309 -9653.89 4862.3 -2068.49 -7.41274 
3876 2 12.6442 5.19826 6.40021 6.01093 -155746 -147902 28770.6 -40701 17742.9 -13172 -7.4172 
3877 2 13.3808 3.98638 6.40157 6.01442 -155532 -155429 -23733.3 -34077.1 -1396.34 463.504 -7.41313 
3878 2 12.6998 2.74298 6.40356 6.00463 -158873 -147767 17631.7 -62808.8 19996.6 -4946.31 -7.41622 
3879 2 13.437 1.5314 6.4044 6.00793 -159089 -152984 -9588.88 -50380.4 -9449.65 108.068 -7.41403 
3880 2 12.7565 0.287784 6.40528 6.00528 -161103 -151453 2473.31 -72323.7 17182.2 -20.6679 -7.41491 
3971 2 15.3755 10.1674 6.38034 6.00062 -114385 -184114 -47279.6 11014 17837.8 -21061.2 -7.41314 
3972 2 14.6911 8.92584 6.38663 6.00977 -151749 -163166 42525.4 -17755.8 21249 -39549.6 -7.41825 
3973 2 15.4261 7.7132 6.38807 6.00859 -138651 -159720 -42083.6 -9429.61 13272.9 -15258 -7.41301 
3974 2 14.7435 6.47055 6.39319 6.01239 -163767 -143915 36565.1 -38625.8 24861.5 -26587.5 -7.41774 
3975 2 15.4793 5.25817 6.3952 6.01043 -152697 -147874 -32581.8 -33167.5 6726.97 -9653.71 -7.41316 
3976 2 14.7981 4.01481 6.39911 6.00662 -166430 -137958 25585.8 -60275.6 25750.8 -14896.4 -7.41683 
3977 2 15.5348 2.80286 6.4008 6.00558 -158487 -145566 -19270.2 -53732.4 -3276.32 -6161.74 -7.41371 
3978 2 14.8543 1.55917 6.40311 6.00311 -163235 -142793 10374.3 -74829.4 22276.4 -6907.17 -7.41561 
3979 2 15.5917 0.347612 6.40309 6.00069 -158643 -148886 -3495.02 -62596.8 -15555.4 -6212.48 -7.41467 
4070 2 16.7931 10.1955 6.37172 6.00494 -133006 -189198 55522 -29733.6 32112.6 -52854.5 -7.41939 
4071 2 17.5279 8.9826 6.37421 5.9915 -112527 -180207 -53935.1 -19163.7 18780.9 -26959.3 -7.41326 
4072 2 16.8436 7.74103 6.38149 6.00837 -155622 -158711 47050.1 -47921.1 36105.3 -42648.3 -7.41863 
4073 2 17.5789 6.52832 6.38419 5.99408 -135638 -157163 -42468.4 -42004.4 14362.1 -23534.5 -7.41339 
4074 2 16.8967 5.28557 6.3905 6.00319 -165585 -140968 34845.6 -68839.3 36314.7 -31688.5 -7.41759 
4075 2 17.6329 4.07326 6.39273 5.99217 -149620 -146243 -28591.3 -66060.4 5108.42 -19740.3 -7.41372 
4076 2 16.9521 2.82979 6.39751 5.99777 -165461 -137767 19184.7 -87117.6 31301.6 -22119.1 -7.41635 
4077 2 17.6893 1.61795 6.39788 5.98871 -155936 -145824 -13119.5 -82929.1 -9618.63 -17764.7 -7.41439 
4078 2 17.009 0.374258 6.40033 5.99415 -158739 -145355 1593.12 -95620.9 21633.7 -16784.3 -7.4151 
4170 2 18.9456 9.00767 6.36647 5.99827 -130056 -188889 62180.1 -64937.9 45389.9 -52302.3 -7.42006 
4171 2 19.6807 7.79477 6.37005 5.97611 -106797 -183041 -56288.2 -57598 17048.4 -32239.4 -7.41344 
4172 2 18.9964 6.55333 6.37754 5.99268 -150077 -159817 47274.5 -86255 47801.4 -45871.6 -7.41881 
4173 2 19.7324 5.34072 6.38031 5.97398 -129978 -161001 -39414.2 -85055.8 11596.9 -31916.4 -7.41381 
4174 2 19.0503 4.09805 6.387 5.98724 -159029 -143660 29970.2 -108932 43599.9 -38177.5 -7.41737 
4175 2 19.7873 2.88586 6.38788 5.97112 -145680 -150012 -22501.2 -110331 -1680.63 -30672 -7.41433 
4176 2 19.1066 1.64249 6.39258 5.98194 -158955 -141629 11243.8 -125331 32643.1 -31680.9 -7.41596 
4177 2 19.8443 0.430657 6.38993 5.96872 -155806 -147473 -5238.71 -123343 -21346.1 -31022.9 -7.41518 
1100 1 21.4758 9.37296 3.05524 5.9846 -208268 -88116.1 -77256.8 100373 10638.3 -32050.4 -7.41292 
1101 1 22.1589 8.13047 3.05769 5.97805 -230238 -91374.3 73745.2 95814.6 45928.4 -54088 -7.42141 
1102 1 21.4269 6.91522 3.04691 5.98696 -184523 -117247 -57234.6 123707 9068.96 -36518.2 -7.4134 
1103 1 22.1093 5.67264 3.04673 5.96159 -202883 -116012 50732.6 125786 55748.4 -49873.3 -7.41965 
1104 1 21.3746 4.45893 3.0348 5.97775 -167170 -136916 -36561 149265 2215.35 -37759.8 -7.41388 
1105 1 22.0558 3.21603 3.03359 5.95313 -180023 -133335 27025.7 154344 53306.7 -45125.8 -7.41779 
1106 1 21.319 2.00342 3.02332 5.9677 -158499 -144041 -16936 168506 -11922.3 -37476 -7.41456 
1107 1 21.9995 0.76023 3.02361 5.95084 -162618 -143416 5012.78 169537 36671.3 -41371.1 -7.41617 
1199 1 24.3055 9.32928 3.07347 5.97873 -252443 -60746.6 94898.7 112385 39666.6 -48798.9 -7.42337 
1200 1 23.5759 8.11228 3.06503 5.98819 -212600 -88184.2 -76821.2 143770 5149.15 -32128 -7.41285 
1201 1 24.259 6.87 3.06576 5.9591 -225738 -87920.8 69756.6 145928 55120.9 -48529.5 -7.42156 
1202 1 23.5264 5.65465 3.0548 5.97548 -189463 -116001 -51941.4 175651 3394.61 -37175.7 -7.41355 
1203 1 24.2084 4.41217 3.05315 5.9429 -198817 -112432 42875 183397 61529.2 -47100.7 -7.41946 
1204 1 23.473 3.19832 3.04184 5.95957 -171298 -133421 -28577.3 205289 -6577.51 -39100.7 -7.41426 
1205 1 24.154 1.95555 3.04031 5.93763 -175503 -131366 17524.9 211619 51669.2 -45296.7 -7.41741 
1206 1 23.4168 0.742671 3.03163 5.94963 -159402 -140257 -7266.52 220319 -24597.2 -40372.4 -7.41526 
1298 1 25.7224 9.31363 3.07804 5.98868 -232939 -64976.8 -98331.5 152936 -2544.6 -23431.8 -7.41199 
1299 1 26.4065 8.07176 3.07978 5.96187 -238779 -65183.1 89850.4 155179 48655.2 -40355.4 -7.42349 
1300 1 25.676 6.85489 3.07134 5.97778 -210574 -95073.5 -70741 189588 261.367 -30664.5 -7.41294 
1301 1 26.3591 5.61291 3.06976 5.93987 -213952 -91151.1 60455 198919 62634.7 -41368.5 -7.42129 
1302 1 25.6255 4.39766 3.0595 5.95773 -188366 -119488 -43238 229189 -3310.46 -34566.7 -7.41381 
1303 1 26.3074 3.15542 3.05651 5.92664 -189369 -114796 31870.7 240268 62237.6 -41872.1 -7.41889 
1304 1 25.5713 1.94151 3.04707 5.94132 -170056 -133335 -18831.4 258388 -17656.4 -36256.5 -7.41479 
1305 1 26.2524 0.699098 3.04554 5.92516 -166879 -135333 6332.41 261829 44393.9 -41857.1 -7.41676 
1397 1 28.5523 9.27664 3.08753 5.96527 -237251 -54779.2 109561 153560 38952 -28932.6 -7.42528 
1398 1 27.8234 8.05869 3.08207 5.97928 -221689 -81228.2 -90818.7 189336 -6181.21 -21426.4 -7.41213 
1399 1 28.5079 6.81733 3.081 5.94267 -218809 -76867.3 78984.1 199826 57564.2 -31067.9 -7.42311 
1400 1 27.7761 5.60084 3.07301 5.96058 -201641 -107353 -60304.6 235782 -3339 -26278.4 -7.4132 
1401 1 28.4593 4.35922 3.06937 5.92286 -198093 -99900 47737.6 250695 66315.9 -32924.8 -7.42053 
1402 1 27.7246 3.1442 3.06067 5.93991 -182003 -125769 -32335.5 278760 -11049.7 -28416.8 -7.41422 
1403 1 28.4065 1.9023 3.05714 5.91552 -177954 -121987 19263.9 289240 57002.8 -34664.2 -7.41798 
1404 1 27.6697 0.688353 3.05043 5.9253 -164696 -134877 -7713.39 300240 -30267.6 -29962.6 -7.41555 
1496 1 29.9692 9.26468 3.08657 5.98159 -218158 -79190.3 -110177 177468 -14163.5 -12105.4 -7.41123 
1498 1 29.9249 6.80674 3.08094 5.96437 -204582 -102480 -78394.2 226245 -6873.2 -16638.6 -7.41248 
1500 1 29.8764 4.34988 3.07047 5.94316 -188828 -121206 -47351.9 278990 -6961.54 -18913 -7.41361 
1502 1 29.8237 1.89384 3.05947 5.92422 -173632 -131420 -20256.3 318038 -20800.9 -19825.3 -7.41484 
4269 2 21.7855 9.05632 6.35621 5.96321 -74118.8 -215598 -75144.9 -74520.1 13456.8 -32248.2 -7.41302 
4270 2 21.0984 7.81655 6.36305 5.97867 -122952 -188755 63746.4 -105346 54765.9 -51608.8 -7.4205 
4271 2 21.8342 6.60368 6.36644 5.95875 -103735 -186386 -54256.1 -104244 12734.2 -36974.5 -7.41362 
4272 2 21.1499 5.36236 6.37336 5.973 -141748 -160841 43646.8 -132862 54792.7 -48263.5 -7.41883 
4273 2 21.8867 4.14981 6.37493 5.9544 -127943 -164461 -33665.9 -137785 4730.92 -38813.5 -7.41422 
4274 2 21.2047 2.90729 6.38086 5.96708 -151650 -145977 22880.8 -158586 46024.8 -43070 -7.41711 
4275 2 21.9423 1.69507 6.37922 5.95105 -146746 -151333 -14606 -163208 -13578 -39530.1 -7.41499 
4276 2 21.2617 0.451918 6.38257 5.96428 -155360 -143337 2536.21 -172413 30031.8 -38823 -7.41563 
4368 2 23.2034 9.0749 6.35021 5.96621 -92338.3 -216907 83236.6 -119469 54188.2 -48693.8 -7.42245 
4369 2 23.9388 7.8617 6.35414 5.95087 -78736.4 -212577 -73322.3 -118289 7902.8 -34140.2 -7.41301 
4370 2 23.2519 6.62196 6.35981 5.95864 -118017 -183236 60313.1 -150777 60148 -49913.5 -7.42067 
4371 2 23.9883 5.40899 6.36208 5.94381 -107995 -184737 -48403.1 -157836 6527.31 -39623.2 -7.41383 
4372 2 23.3042 4.16774 6.36777 5.95231 -136880 -157564 36699.3 -185801 57356.7 -47651.7 -7.41865 
4373 2 24.0415 2.95505 6.36752 5.93785 -133128 -162566 -25853.6 -196038 -5806.05 -42188 -7.41467 
4374 2 23.3597 1.71271 6.3716 5.94777 -149667 -144800 14059.6 -212749 44150.9 -43474.2 -7.41674 
4375 2 24.0975 0.50015 6.36735 5.93514 -154842 -146400 -4962.43 -217035 -28844.3 -43670.7 -7.41578 
4467 2 26.046 9.11548 6.34462 5.95137 -62384.8 -229169 -94423.8 -124867 -739.351 -26016.2 -7.41208 
4468 2 25.3567 7.87712 6.3485 5.94907 -95672.3 -201612 79100.3 -158439 57766.9 -44533.3 -7.42266 
4469 2 26.0923 6.66364 6.35121 5.94155 -92398.2 -202103 -66510.3 -166968 2913.8 -34116.1 -7.41313 
4470 2 25.4059 5.42375 6.35577 5.94019 -119963 -171102 52698.1 -200083 62701 -45347.1 -7.4205 
4471 2 26.1426 4.21051 6.35676 5.93232 -119928 -176443 -39834.1 -214852 -1242.91 -38714.3 -7.41412 
4472 2 25.459 2.96924 6.36081 5.93408 -139372 -150361 27289.7 -240122 56232.6 -42478.5 -7.4182 
4473 2 26.1965 1.75621 6.35887 5.9257 -144424 -154729 -16504.4 -251943 -19049.5 -40936.2 -7.41521 
4474 2 25.5149 0.514069 6.36049 5.93315 -154991 -140208 3794.34 -263081 38638.5 -38590.3 -7.41621 
4566 2 27.464 9.12898 6.33964 5.94623 -81920.7 -208158 98763.4 -155953 49156.9 -35133 -7.42458 
4567 2 28.1985 7.91483 6.34236 5.94697 -86419.8 -208380 -86380.6 -165787 -4452.22 -25093.2 -7.41224 
4568 2 27.5101 6.67607 6.34568 5.93386 -107225 -179376 70534.6 -200155 60779.6 -38064.7 -7.42245 
4569 2 28.2457 5.46215 6.34741 5.93493 -112510 -185778 -56365.4 -218324 -1430.49 -30942.2 -7.4134 
4570 2 27.5601 4.22198 6.35112 5.92491 -129246 -155745 42379 -249826 63156.4 -36975.1 -7.41993 
4571 2 28.297 3.00837 6.35119 5.92428 -136295 -163755 -29679.3 -268824 -10706.5 -34054.8 -7.41452 
4572 2 27.614 1.76706 6.35347 5.92097 -147887 -141805 16412.6 -288930 51569.8 -33197.9 -7.41748 
4573 2 28.3514 0.55354 6.35041 5.9185 -157898 -142834 -5811.76 -296947 -33386.6 -35256.3 -7.41594 
4666 2 29.6163 7.92597 6.33693 5.93532 -103817 -176948 89570.4 -189096 53019.9 -28216.5 -7.42432 
4668 2 29.6633 5.47192 6.34221 5.92103 -124562 -155823 59215.9 -242928 63669.8 -28599.8 -7.42178 
4670 2 29.7144 3.01708 6.3467 5.91431 -142768 -141747 30673 -294943 60954.7 -25642.8 -7.41902 
4672 2 29.7687 0.561761 6.34692 5.91408 -158808 -135617 4687.57 -324709 43394.8 -21831.2 -7.4166 
1497 1 30.6553 8.02404 3.08626 5.94862 -210573 -75079.3 97382.1 188984 48649.8 -19257.8 -7.42482 
1499 1 30.6096 5.56583 3.07747 5.92518 -197313 -92677.6 64566.9 244084 64237.8 -21362.6 -7.42223 
1501 1 30.5595 3.10857 3.06589 5.91085 -182797 -111465 33638.6 296053 64618.8 -23991.6 -7.41941 
1503 1 30.5058 0.652281 3.05667 5.9114 -168239 -130818 6259.87 323745 46827 -26201.9 -7.4169 
1595 1 32.8022 9.23157 3.08615 5.95493 -188076 -87259.1 114438 171074 38327.4 -7788.67 -7.42628 
1596 1 32.0724 8.01401 3.08326 5.96727 -194068 -107666 -96266.5 205329 -12739 -7497.23 -7.4117 
1597 1 32.7589 6.7739 3.08055 5.93112 -184627 -96611.4 81481.5 225275 57682.6 -9362.47 -7.42384 
1598 1 32.0267 5.55739 3.07568 5.94608 -185855 -122897 -63285.5 262095 -6598.73 -9168.36 -7.41297 
1599 1 32.7114 4.31675 3.07103 5.91209 -178444 -108400 48882.5 284351 66684.1 -11858.5 -7.42096 
1600 1 31.9766 3.10141 3.06563 5.92705 -176394 -132228 -33604.4 314833 -12775.1 -9621.64 -7.41417 
1601 1 32.6596 1.86027 3.06165 5.90583 -171371 -122672 19512.6 329752 57447.4 -15037.9 -7.41811 
1602 1 31.9231 0.645769 3.05803 5.91319 -166746 -133801 -7552.91 341907 -32804 -10332.8 -7.41569 
1694 1 34.2195 9.22132 3.08099 5.96943 -169146 -124591 -112858 178204 -18806.6 -288.496 -7.41092 
1695 1 34.9078 7.98208 3.07928 5.93829 -160949 -113289 97448.6 199762 48889.1 1905.9 -7.42522 
1696 1 34.1761 6.76548 3.07639 5.95004 -170741 -133394 -79517 233559 -9377.94 -217.671 -7.41231 
1697 1 34.8625 5.52561 3.07242 5.91745 -164295 -115357 64276.5 259645 63903.4 381.096 -7.42247 
1698 1 34.1286 4.30993 3.06845 5.93035 -169638 -138449 -47629 293613 -8045.22 68.3399 -7.41356 
1699 1 34.8128 3.06932 3.06412 5.90544 -165627 -121266 33421.4 316320 63834.4 -2791.75 -7.41948 
1700 1 34.0768 1.85451 3.06092 5.91573 -167556 -137443 -20064.9 338647 -22002.3 364.71 -7.41489 
1701 1 34.7596 0.613423 3.05886 5.90845 -165802 -130864 5863.96 347526 46211.3 -5985.79 -7.41684 
1793 1 37.0571 9.18918 3.07527 5.94521 -129204 -142059 111311 173001 40356 11647 -7.42622 
1794 1 36.3252 7.97295 3.07359 5.95373 -144316 -153699 -95155.7 199310 -13303 6957.14 -7.41166 
1795 1 37.0133 6.7339 3.07063 5.9253 -141807 -133976 79032.9 227778 58021.7 11894.1 -7.42377 
1796 1 36.2798 5.51827 3.06804 5.93542 -152881 -152105 -62126.2 259525 -6760.06 8867.03 -7.41299 
1797 1 36.9655 4.27828 3.06401 5.90988 -151619 -129084 47401.3 288102 65587 9750.21 -7.42086 
1798 1 36.2301 3.06337 3.06151 5.91921 -159377 -146599 -32773.9 316170 -13130.3 10118 -7.41424 
1799 1 36.9136 1.82257 3.05869 5.90656 -159804 -130045 18763.5 334993 55891.5 6044.57 -7.418 
1800 1 36.1769 0.608137 3.05823 5.91077 -164529 -136521 -6911.66 346301 -34058.3 10227.7 -7.41581 
1892 1 38.4747 9.17881 3.06914 5.9566 -109669 -182387 -108933 164512 -15822.4 11423 -7.4111 
1893 1 39.1645 7.94058 3.06708 5.93427 -114378 -162333 92194.4 194392 51480.6 21881.4 -7.42469 
1894 1 38.4308 6.72535 3.06518 5.94098 -127365 -172920 -76457.5 218859 -7436.05 16104.5 -7.41246 
1895 1 39.1181 5.48602 3.06177 5.91815 -132013 -146575 60887.6 251034 63638.4 21743.8 -7.42206 
1896 1 38.3829 4.2713 3.05991 5.92525 -142607 -161281 -45636.6 278877 -7149.09 18844.1 -7.4137 
1897 1 39.0675 3.03088 3.05669 5.91007 -147270 -136757 31586.6 305541 61867.6 18663.4 -7.4192 
1898 1 38.3309 1.8166 3.05629 5.91417 -156017 -146786 -19063 324873 -22219.8 20214.9 -7.41502 
1899 1 39.0136 0.575435 3.05554 5.91084 -160626 -134116 5020.41 336430 44319.8 14955 -7.41668 
4665 2 30.3063 9.16404 6.3347 5.954 -92437.6 -199760 -106384 -157239 -13134.7 -15284.9 -7.41128 
4667 2 30.3506 6.71123 6.33885 5.93991 -114423 -184346 -74675 -209606 -5681.54 -21289 -7.41259 
4669 2 30.3989 4.25759 6.34364 5.92577 -134364 -167748 -44564.5 -267829 -6232.53 -24769.5 -7.41379 
4671 2 30.4513 1.80308 6.34633 5.91603 -152070 -149830 -18573.5 -312674 -21913.1 -26473.3 -7.41508 
4764 2 31.724 9.17486 6.32883 5.94347 -112085 -161633 108936 -171181 41964.6 -17784.7 -7.42597 
4765 2 32.4566 7.95917 6.33052 5.95035 -126993 -170010 -93730.2 -193679 -12147.5 -11705.5 -7.41174 
4766 2 31.7681 6.72033 6.3334 5.92525 -129075 -147427 77405.3 -224395 58482.6 -18813.2 -7.42357 
4767 2 32.5022 5.50512 6.33554 5.93348 -140912 -162470 -61139 -253253 -6105.79 -14764.3 -7.41305 
4768 2 31.8164 4.26522 6.33926 5.91141 -143507 -136921 46435.2 -283316 65129.9 -16923.7 -7.42072 
4769 2 32.5522 3.05059 6.34097 5.91865 -152799 -151857 -32225.4 -309628 -12935 -16551.6 -7.41429 
4770 2 31.8686 1.80977 6.34337 5.90918 -155823 -133188 18285.6 -329378 55122 -13142.5 -7.41792 
4771 2 32.6055 0.595489 6.34286 5.91137 -163042 -137980 -6683.89 -340069 -34246.8 -16925.6 -7.41584 
4863 2 34.5631 9.20728 6.32274 5.96458 -149157 -143773 -112186 -174978 -18663.2 -3625.85 -7.41093 
4864 2 33.8741 7.96845 6.32463 5.93598 -143926 -129521 96187.5 -199686 49409.5 -8685.94 -7.42514 
4865 2 34.6064 6.75227 6.327 5.94624 -156217 -146519 -78879.8 -230854 -9246.8 -5288.51 -7.41233 
4866 2 33.9196 5.51265 6.33082 5.91659 -152536 -125588 63445.1 -259258 63747.7 -7552.29 -7.4224 
4867 2 34.6539 4.29723 6.33395 5.9277 -160920 -146086 -47161.8 -291734 -8000.92 -6411.02 -7.41358 
4868 2 33.9695 3.05676 6.3379 5.90577 -159160 -126279 32978.1 -316039 63277.6 -4353.83 -7.41943 
4869 2 34.7056 1.84206 6.3401 5.91413 -164108 -140454 -19795.7 -337685 -22209.8 -7075.28 -7.41493 
4870 2 34.0228 0.601015 6.34166 5.90856 -164279 -131546 5627.79 -347686 45694.5 -956.309 -7.41679 
4962 2 35.9804 9.21738 6.31688 5.9511 -168148 -104031 114164 -173117 38592.8 1114.36 -7.42639 
4963 2 36.7109 8.00019 6.31918 5.96231 -178740 -121663 -96485.4 -205401 -13586.4 2669.7 -7.41164 
4964 2 36.0237 6.76048 6.32212 5.92842 -170223 -107887 81123.3 -228323 57672.7 2196.09 -7.4239 
4965 2 36.7563 5.54418 6.3261 5.94181 -176007 -131792 -63243.8 -264110 -6976.5 3141.72 -7.41295 
4966 2 36.0712 4.30382 6.33068 5.91034 -169701 -114442 48646.6 -288688 66392.2 4653.06 -7.42098 
4967 2 36.8061 3.08854 6.33504 5.92345 -171574 -136401 -33488.4 -318865 -13017.4 3009.06 -7.41418 
4968 2 36.1229 1.84758 6.33874 5.90509 -167842 -124460 19378.6 -335202 57067.8 8066.34 -7.41809 
4969 2 36.8594 0.633023 6.34128 5.91168 -166374 -134312 -7356.61 -347323 -33315.8 3433.03 -7.41573 
5061 2 38.8149 9.24984 6.31401 5.97941 -204726 -91846.7 -111952 -179851 -16552 8166.47 -7.41108 
5062 2 38.128 8.00968 6.31493 5.94474 -195223 -85564.8 98126.7 -194815 48588.9 12067.8 -7.42506 