(written by TR)

6536	atoms
2	atom types
0	70.2003683	xlo xhi
0	121.590605	ylo yhi
0	15.0	zlo zhi


Masses

1	12
2	12

Atoms

1 1 1 0 0.687 120.350 3.000 0 0 0
2 1 1 0 0.644 117.895 3.000 0 0 0
3 1 1 0 0.601 115.439 3.000 0 0 0
4 1 1 0 0.559 112.984 3.000 0 0 0
5 1 1 0 0.516 110.528 3.000 0 0 0
6 1 1 0 0.473 108.072 3.000 0 0 0
7 1 1 0 0.430 105.617 3.000 0 0 0
8 1 1 0 0.387 103.161 3.000 0 0 0
9 1 1 0 0.344 100.705 3.000 0 0 0
10 1 1 0 0.301 98.250 3.000 0 0 0
11 1 1 0 0.258 95.794 3.000 0 0 0
12 1 1 0 0.215 93.339 3.000 0 0 0
13 1 1 0 0.172 90.883 3.000 0 0 0
14 1 1 0 0.129 88.427 3.000 0 0 0
15 1 1 0 0.086 85.972 3.000 0 0 0
16 1 1 0 0.043 83.516 3.000 0 0 0
17 1 1 0 0.000 81.060 3.000 0 0 0
18 1 1 0 2.836 121.541 3.000 0 0 0
19 1 1 0 2.105 120.326 3.000 0 0 0
20 1 1 0 2.793 119.085 3.000 0 0 0
21 1 1 0 2.062 117.870 3.000 0 0 0
22 1 1 0 2.750 116.630 3.000 0 0 0
23 1 1 0 2.019 115.414 3.000 0 0 0
24 1 1 0 2.707 114.174 3.000 0 0 0
25 1 1 0 1.976 112.959 3.000 0 0 0
26 1 1 0 2.664 111.718 3.000 0 0 0
27 1 1 0 1.933 110.503 3.000 0 0 0
28 1 1 0 2.621 109.263 3.000 0 0 0
29 1 1 0 1.890 108.047 3.000 0 0 0
30 1 1 0 2.578 106.807 3.000 0 0 0
31 1 1 0 1.847 105.592 3.000 0 0 0
32 1 1 0 2.535 104.352 3.000 0 0 0
33 1 1 0 1.804 103.136 3.000 0 0 0
34 1 1 0 2.492 101.896 3.000 0 0 0
35 1 1 0 1.761 100.681 3.000 0 0 0
36 1 1 0 2.449 99.440 3.000 0 0 0
37 1 1 0 1.718 98.225 3.000 0 0 0
38 1 1 0 2.406 96.985 3.000 0 0 0
39 1 1 0 1.676 95.769 3.000 0 0 0
40 1 1 0 2.363 94.529 3.000 0 0 0
41 1 1 0 1.633 93.314 3.000 0 0 0
42 1 1 0 2.320 92.074 3.000 0 0 0
43 1 1 0 1.590 90.858 3.000 0 0 0
44 1 1 0 2.277 89.618 3.000 0 0 0
45 1 1 0 1.547 88.402 3.000 0 0 0
46 1 1 0 2.234 87.162 3.000 0 0 0
47 1 1 0 1.504 85.947 3.000 0 0 0
48 1 1 0 2.191 84.707 3.000 0 0 0
49 1 1 0 1.461 83.491 3.000 0 0 0
50 1 1 0 2.148 82.251 3.000 0 0 0
51 1 1 0 1.418 81.036 3.000 0 0 0
52 1 1 0 2.105 79.795 3.000 0 0 0
53 1 1 0 1.375 78.580 3.000 0 0 0
54 1 1 0 2.062 77.340 3.000 0 0 0
55 1 1 0 1.332 76.124 3.000 0 0 0
56 1 1 0 2.019 74.884 3.000 0 0 0
57 1 1 0 1.289 73.669 3.000 0 0 0
58 1 1 0 1.976 72.429 3.000 0 0 0
59 1 1 0 1.246 71.213 3.000 0 0 0
60 1 1 0 1.933 69.973 3.000 0 0 0
61 1 1 0 1.203 68.757 3.000 0 0 0
62 1 1 0 1.890 67.517 3.000 0 0 0
63 1 1 0 1.160 66.302 3.000 0 0 0
64 1 1 0 1.847 65.062 3.000 0 0 0
65 1 1 0 1.117 63.846 3.000 0 0 0
66 1 1 0 1.804 62.606 3.000 0 0 0
67 1 1 0 1.074 61.391 3.000 0 0 0
68 1 1 0 1.761 60.150 3.000 0 0 0
69 1 1 0 1.031 58.935 3.000 0 0 0
70 1 1 0 1.718 57.695 3.000 0 0 0
71 1 1 0 0.988 56.479 3.000 0 0 0
72 1 1 0 1.676 55.239 3.000 0 0 0
73 1 1 0 0.945 54.024 3.000 0 0 0
74 1 1 0 1.633 52.784 3.000 0 0 0
75 1 1 0 0.902 51.568 3.000 0 0 0
76 1 1 0 1.590 50.328 3.000 0 0 0
77 1 1 0 0.859 49.112 3.000 0 0 0
78 1 1 0 1.547 47.872 3.000 0 0 0
79 1 1 0 0.816 46.657 3.000 0 0 0
80 1 1 0 1.504 45.417 3.000 0 0 0
81 1 1 0 0.773 44.201 3.000 0 0 0
82 1 1 0 1.461 42.961 3.000 0 0 0
83 1 1 0 0.730 41.746 3.000 0 0 0
84 1 1 0 1.418 40.505 3.000 0 0 0
85 1 1 0 0.687 39.290 3.000 0 0 0
86 1 1 0 1.375 38.050 3.000 0 0 0
87 1 1 0 0.644 36.834 3.000 0 0 0
88 1 1 0 1.332 35.594 3.000 0 0 0
89 1 1 0 0.601 34.379 3.000 0 0 0
90 1 1 0 1.289 33.139 3.000 0 0 0
91 1 1 0 0.559 31.923 3.000 0 0 0
92 1 1 0 1.246 30.683 3.000 0 0 0
93 1 1 0 0.516 29.467 3.000 0 0 0
94 1 1 0 1.203 28.227 3.000 0 0 0
95 1 1 0 0.473 27.012 3.000 0 0 0
96 1 1 0 1.160 25.772 3.000 0 0 0
97 1 1 0 0.430 24.556 3.000 0 0 0
98 1 1 0 1.117 23.316 3.000 0 0 0
99 1 1 0 0.387 22.101 3.000 0 0 0
100 1 1 0 1.074 20.860 3.000 0 0 0
101 1 1 0 0.344 19.645 3.000 0 0 0
102 1 1 0 1.031 18.405 3.000 0 0 0
103 1 1 0 0.301 17.189 3.000 0 0 0
104 1 1 0 0.988 15.949 3.000 0 0 0
105 1 1 0 0.258 14.734 3.000 0 0 0
106 1 1 0 0.945 13.494 3.000 0 0 0
107 1 1 0 0.215 12.278 3.000 0 0 0
108 1 1 0 0.902 11.038 3.000 0 0 0
109 1 1 0 0.172 9.822 3.000 0 0 0
110 1 1 0 0.859 8.582 3.000 0 0 0
111 1 1 0 0.129 7.367 3.000 0 0 0
112 1 1 0 0.816 6.127 3.000 0 0 0
113 1 1 0 0.086 4.911 3.000 0 0 0
114 1 1 0 0.773 3.671 3.000 0 0 0
115 1 1 0 0.043 2.456 3.000 0 0 0
116 1 1 0 0.730 1.215 3.000 0 0 0
117 1 1 0 0.000 0.000 3.000 0 0 0
118 1 1 0 4.253 121.516 3.000 0 0 0
119 1 1 0 4.941 120.276 3.000 0 0 0
120 1 1 0 4.210 119.061 3.000 0 0 0
121 1 1 0 4.898 117.820 3.000 0 0 0
122 1 1 0 4.167 116.605 3.000 0 0 0
123 1 1 0 4.855 115.365 3.000 0 0 0
124 1 1 0 4.124 114.149 3.000 0 0 0
125 1 1 0 4.812 112.909 3.000 0 0 0
126 1 1 0 4.081 111.694 3.000 0 0 0
127 1 1 0 4.769 110.453 3.000 0 0 0
128 1 1 0 4.038 109.238 3.000 0 0 0
129 1 1 0 4.726 107.998 3.000 0 0 0
130 1 1 0 3.995 106.782 3.000 0 0 0
131 1 1 0 4.683 105.542 3.000 0 0 0
132 1 1 0 3.953 104.327 3.000 0 0 0
133 1 1 0 4.640 103.087 3.000 0 0 0
134 1 1 0 3.910 101.871 3.000 0 0 0
135 1 1 0 4.597 100.631 3.000 0 0 0
136 1 1 0 3.867 99.416 3.000 0 0 0
137 1 1 0 4.554 98.175 3.000 0 0 0
138 1 1 0 3.824 96.960 3.000 0 0 0
139 1 1 0 4.511 95.720 3.000 0 0 0
140 1 1 0 3.781 94.504 3.000 0 0 0
141 1 1 0 4.468 93.264 3.000 0 0 0
142 1 1 0 3.738 92.049 3.000 0 0 0
143 1 1 0 4.425 90.808 3.000 0 0 0
144 1 1 0 3.695 89.593 3.000 0 0 0
145 1 1 0 4.382 88.353 3.000 0 0 0
146 1 1 0 3.652 87.137 3.000 0 0 0
147 1 1 0 4.339 85.897 3.000 0 0 0
148 1 1 0 3.609 84.682 3.000 0 0 0
149 1 1 0 4.296 83.442 3.000 0 0 0
150 1 1 0 3.566 82.226 3.000 0 0 0
151 1 1 0 4.253 80.986 3.000 0 0 0
152 1 1 0 3.523 79.771 3.000 0 0 0
153 1 1 0 4.210 78.530 3.000 0 0 0
154 1 1 0 3.480 77.315 3.000 0 0 0
155 1 1 0 4.167 76.075 3.000 0 0 0
156 1 1 0 3.437 74.859 3.000 0 0 0
157 1 1 0 4.124 73.619 3.000 0 0 0
158 1 1 0 3.394 72.404 3.000 0 0 0
159 1 1 0 4.081 71.163 3.000 0 0 0
160 1 1 0 3.351 69.948 3.000 0 0 0
161 1 1 0 4.038 68.708 3.000 0 0 0
162 1 1 0 3.308 67.492 3.000 0 0 0
163 1 1 0 3.995 66.252 3.000 0 0 0
164 1 1 0 3.265 65.037 3.000 0 0 0
165 1 1 0 3.953 63.797 3.000 0 0 0
166 1 1 0 3.222 62.581 3.000 0 0 0
167 1 1 0 3.910 61.341 3.000 0 0 0
168 1 1 0 3.179 60.126 3.000 0 0 0
169 1 1 0 3.867 58.885 3.000 0 0 0
170 1 1 0 3.136 57.670 3.000 0 0 0
171 1 1 0 3.824 56.430 3.000 0 0 0
172 1 1 0 3.093 55.214 3.000 0 0 0
173 1 1 0 3.781 53.974 3.000 0 0 0
174 1 1 0 3.050 52.759 3.000 0 0 0
175 1 1 0 3.738 51.518 3.000 0 0 0
176 1 1 0 3.007 50.303 3.000 0 0 0
177 1 1 0 3.695 49.063 3.000 0 0 0
178 1 1 0 2.964 47.847 3.000 0 0 0
179 1 1 0 3.652 46.607 3.000 0 0 0
180 1 1 0 2.921 45.392 3.000 0 0 0
181 1 1 0 3.609 44.152 3.000 0 0 0
182 1 1 0 2.878 42.936 3.000 0 0 0
183 1 1 0 3.566 41.696 3.000 0 0 0
184 1 1 0 2.836 40.481 3.000 0 0 0
185 1 1 0 3.523 39.240 3.000 0 0 0
186 1 1 0 2.793 38.025 3.000 0 0 0
187 1 1 0 3.480 36.785 3.000 0 0 0
188 1 1 0 2.750 35.569 3.000 0 0 0
189 1 1 0 3.437 34.329 3.000 0 0 0
190 1 1 0 2.707 33.114 3.000 0 0 0
191 1 1 0 3.394 31.874 3.000 0 0 0
192 1 1 0 2.664 30.658 3.000 0 0 0
193 1 1 0 3.351 29.418 3.000 0 0 0
194 1 1 0 2.621 28.202 3.000 0 0 0
195 1 1 0 3.308 26.962 3.000 0 0 0
196 1 1 0 2.578 25.747 3.000 0 0 0
197 1 1 0 3.265 24.507 3.000 0 0 0
198 1 1 0 2.535 23.291 3.000 0 0 0
199 1 1 0 3.222 22.051 3.000 0 0 0
200 1 1 0 2.492 20.836 3.000 0 0 0
201 1 1 0 3.179 19.595 3.000 0 0 0
202 1 1 0 2.449 18.380 3.000 0 0 0
203 1 1 0 3.136 17.140 3.000 0 0 0
204 1 1 0 2.406 15.924 3.000 0 0 0
205 1 1 0 3.093 14.684 3.000 0 0 0
206 1 1 0 2.363 13.469 3.000 0 0 0
207 1 1 0 3.050 12.229 3.000 0 0 0
208 1 1 0 2.320 11.013 3.000 0 0 0
209 1 1 0 3.007 9.773 3.000 0 0 0
210 1 1 0 2.277 8.557 3.000 0 0 0
211 1 1 0 2.964 7.317 3.000 0 0 0
212 1 1 0 2.234 6.102 3.000 0 0 0
213 1 1 0 2.921 4.862 3.000 0 0 0
214 1 1 0 2.191 3.646 3.000 0 0 0
215 1 1 0 2.878 2.406 3.000 0 0 0
216 1 1 0 2.148 1.191 3.000 0 0 0
217 1 1 0 7.089 121.467 3.000 0 0 0
218 1 1 0 6.358 120.251 3.000 0 0 0
219 1 1 0 7.046 119.011 3.000 0 0 0
220 1 1 0 6.315 117.796 3.000 0 0 0
221 1 1 0 7.003 116.555 3.000 0 0 0
222 1 1 0 6.272 115.340 3.000 0 0 0
223 1 1 0 6.960 114.100 3.000 0 0 0
224 1 1 0 6.230 112.884 3.000 0 0 0
225 1 1 0 6.917 111.644 3.000 0 0 0
226 1 1 0 6.187 110.429 3.000 0 0 0
227 1 1 0 6.874 109.188 3.000 0 0 0
228 1 1 0 6.144 107.973 3.000 0 0 0
229 1 1 0 6.831 106.733 3.000 0 0 0
230 1 1 0 6.101 105.517 3.000 0 0 0
231 1 1 0 6.788 104.277 3.000 0 0 0
232 1 1 0 6.058 103.062 3.000 0 0 0
233 1 1 0 6.745 101.822 3.000 0 0 0
234 1 1 0 6.015 100.606 3.000 0 0 0
235 1 1 0 6.702 99.366 3.000 0 0 0
236 1 1 0 5.972 98.151 3.000 0 0 0
237 1 1 0 6.659 96.910 3.000 0 0 0
238 1 1 0 5.929 95.695 3.000 0 0 0
239 1 1 0 6.616 94.455 3.000 0 0 0
240 1 1 0 5.886 93.239 3.000 0 0 0
241 1 1 0 6.573 91.999 3.000 0 0 0
242 1 1 0 5.843 90.784 3.000 0 0 0
243 1 1 0 6.530 89.543 3.000 0 0 0
244 1 1 0 5.800 88.328 3.000 0 0 0
245 1 1 0 6.487 87.088 3.000 0 0 0
246 1 1 0 5.757 85.872 3.000 0 0 0
247 1 1 0 6.444 84.632 3.000 0 0 0
248 1 1 0 5.714 83.417 3.000 0 0 0
249 1 1 0 6.401 82.177 3.000 0 0 0
250 1 1 0 5.671 80.961 3.000 0 0 0
251 1 1 0 6.358 79.721 3.000 0 0 0
252 1 1 0 5.628 78.506 3.000 0 0 0
253 1 1 0 6.315 77.265 3.000 0 0 0
254 1 1 0 5.585 76.050 3.000 0 0 0
255 1 1 0 6.272 74.810 3.000 0 0 0
256 1 1 0 5.542 73.594 3.000 0 0 0
257 1 1 0 6.230 72.354 3.000 0 0 0
258 1 1 0 5.499 71.139 3.000 0 0 0
259 1 1 0 6.187 69.898 3.000 0 0 0
260 1 1 0 5.456 68.683 3.000 0 0 0
261 1 1 0 6.144 67.443 3.000 0 0 0
262 1 1 0 5.413 66.227 3.000 0 0 0
263 1 1 0 6.101 64.987 3.000 0 0 0
264 1 1 0 5.370 63.772 3.000 0 0 0
265 1 1 0 6.058 62.532 3.000 0 0 0
266 1 1 0 5.327 61.316 3.000 0 0 0
267 1 1 0 6.015 60.076 3.000 0 0 0
268 1 1 0 5.284 58.861 3.000 0 0 0
269 1 1 0 5.972 57.620 3.000 0 0 0
270 1 1 0 5.241 56.405 3.000 0 0 0
271 1 1 0 5.929 55.165 3.000 0 0 0
272 1 1 0 5.198 53.949 3.000 0 0 0
273 1 1 0 5.886 52.709 3.000 0 0 0
274 1 1 0 5.155 51.494 3.000 0 0 0
275 1 1 0 5.843 50.253 3.000 0 0 0
276 1 1 0 5.113 49.038 3.000 0 0 0
277 1 1 0 5.800 47.798 3.000 0 0 0
278 1 1 0 5.070 46.582 3.000 0 0 0
279 1 1 0 5.757 45.342 3.000 0 0 0
280 1 1 0 5.027 44.127 3.000 0 0 0
281 1 1 0 5.714 42.887 3.000 0 0 0
282 1 1 0 4.984 41.671 3.000 0 0 0
283 1 1 0 5.671 40.431 3.000 0 0 0
284 1 1 0 4.941 39.216 3.000 0 0 0
285 1 1 0 5.628 37.975 3.000 0 0 0
286 1 1 0 4.898 36.760 3.000 0 0 0
287 1 1 0 5.585 35.520 3.000 0 0 0
288 1 1 0 4.855 34.304 3.000 0 0 0
289 1 1 0 5.542 33.064 3.000 0 0 0
290 1 1 0 4.812 31.849 3.000 0 0 0
291 1 1 0 5.499 30.608 3.000 0 0 0
292 1 1 0 4.769 29.393 3.000 0 0 0
293 1 1 0 5.456 28.153 3.000 0 0 0
294 1 1 0 4.726 26.937 3.000 0 0 0
295 1 1 0 5.413 25.697 3.000 0 0 0
296 1 1 0 4.683 24.482 3.000 0 0 0
297 1 1 0 5.370 23.242 3.000 0 0 0
298 1 1 0 4.640 22.026 3.000 0 0 0
299 1 1 0 5.327 20.786 3.000 0 0 0
300 1 1 0 4.597 19.571 3.000 0 0 0
301 1 1 0 5.284 18.330 3.000 0 0 0
302 1 1 0 4.554 17.115 3.000 0 0 0
303 1 1 0 5.241 15.875 3.000 0 0 0
304 1 1 0 4.511 14.659 3.000 0 0 0
305 1 1 0 5.198 13.419 3.000 0 0 0
306 1 1 0 4.468 12.204 3.000 0 0 0
307 1 1 0 5.155 10.963 3.000 0 0 0
308 1 1 0 4.425 9.748 3.000 0 0 0
309 1 1 0 5.113 8.508 3.000 0 0 0
310 1 1 0 4.382 7.292 3.000 0 0 0
311 1 1 0 5.070 6.052 3.000 0 0 0
312 1 1 0 4.339 4.837 3.000 0 0 0
313 1 1 0 5.027 3.597 3.000 0 0 0
314 1 1 0 4.296 2.381 3.000 0 0 0
315 1 1 0 4.984 1.141 3.000 0 0 0
316 1 1 0 8.507 121.442 3.000 0 0 0
317 1 1 0 9.194 120.202 3.000 0 0 0
318 1 1 0 8.464 118.986 3.000 0 0 0
319 1 1 0 9.151 117.746 3.000 0 0 0
320 1 1 0 8.421 116.531 3.000 0 0 0
321 1 1 0 9.108 115.290 3.000 0 0 0
322 1 1 0 8.378 114.075 3.000 0 0 0
323 1 1 0 9.065 112.835 3.000 0 0 0
324 1 1 0 8.335 111.619 3.000 0 0 0
325 1 1 0 9.022 110.379 3.000 0 0 0
326 1 1 0 8.292 109.164 3.000 0 0 0
327 1 1 0 8.979 107.923 3.000 0 0 0
328 1 1 0 8.249 106.708 3.000 0 0 0
329 1 1 0 8.936 105.468 3.000 0 0 0
330 1 1 0 8.206 104.252 3.000 0 0 0
331 1 1 0 8.893 103.012 3.000 0 0 0
332 1 1 0 8.163 101.797 3.000 0 0 0
333 1 1 0 8.850 100.557 3.000 0 0 0
334 1 1 0 8.120 99.341 3.000 0 0 0
335 1 1 0 8.807 98.101 3.000 0 0 0
336 1 1 0 8.077 96.886 3.000 0 0 0
337 1 1 0 8.764 95.645 3.000 0 0 0
338 1 1 0 8.034 94.430 3.000 0 0 0
339 1 1 0 8.721 93.190 3.000 0 0 0
340 1 1 0 7.991 91.974 3.000 0 0 0
341 1 1 0 8.678 90.734 3.000 0 0 0
342 1 1 0 7.948 89.519 3.000 0 0 0
343 1 1 0 8.635 88.278 3.000 0 0 0
344 1 1 0 7.905 87.063 3.000 0 0 0
345 1 1 0 8.592 85.823 3.000 0 0 0
346 1 1 0 7.862 84.607 3.000 0 0 0
347 1 1 0 8.549 83.367 3.000 0 0 0
348 1 1 0 7.819 82.152 3.000 0 0 0
349 1 1 0 8.507 80.912 3.000 0 0 0
350 1 1 0 7.776 79.696 3.000 0 0 0
351 1 1 0 8.464 78.456 3.000 0 0 0
352 1 1 0 7.733 77.241 3.000 0 0 0
353 1 1 0 8.421 76.000 3.000 0 0 0
354 1 1 0 7.690 74.785 3.000 0 0 0
355 1 1 0 8.378 73.545 3.000 0 0 0
356 1 1 0 7.647 72.329 3.000 0 0 0
357 1 1 0 8.335 71.089 3.000 0 0 0
358 1 1 0 7.604 69.874 3.000 0 0 0
359 1 1 0 8.292 68.633 3.000 0 0 0
360 1 1 0 7.561 67.418 3.000 0 0 0
361 1 1 0 8.249 66.178 3.000 0 0 0
362 1 1 0 7.518 64.962 3.000 0 0 0
363 1 1 0 8.206 63.722 3.000 0 0 0
364 1 1 0 7.475 62.507 3.000 0 0 0
365 1 1 0 8.163 61.267 3.000 0 0 0
366 1 1 0 7.432 60.051 3.000 0 0 0
367 1 1 0 8.120 58.811 3.000 0 0 0
368 1 1 0 7.390 57.596 3.000 0 0 0
369 1 1 0 8.077 56.355 3.000 0 0 0
370 1 1 0 7.347 55.140 3.000 0 0 0
371 1 1 0 8.034 53.900 3.000 0 0 0
372 1 1 0 7.304 52.684 3.000 0 0 0
373 1 1 0 7.991 51.444 3.000 0 0 0
374 1 1 0 7.261 50.229 3.000 0 0 0
375 1 1 0 7.948 48.988 3.000 0 0 0
376 1 1 0 7.218 47.773 3.000 0 0 0
377 1 1 0 7.905 46.533 3.000 0 0 0
378 1 1 0 7.175 45.317 3.000 0 0 0
379 1 1 0 7.862 44.077 3.000 0 0 0
380 1 1 0 7.132 42.862 3.000 0 0 0
381 1 1 0 7.819 41.622 3.000 0 0 0
382 1 1 0 7.089 40.406 3.000 0 0 0
383 1 1 0 7.776 39.166 3.000 0 0 0
384 1 1 0 7.046 37.951 3.000 0 0 0
385 1 1 0 7.733 36.710 3.000 0 0 0
386 1 1 0 7.003 35.495 3.000 0 0 0
387 1 1 0 7.690 34.255 3.000 0 0 0
388 1 1 0 6.960 33.039 3.000 0 0 0
389 1 1 0 7.647 31.799 3.000 0 0 0
390 1 1 0 6.917 30.584 3.000 0 0 0
391 1 1 0 7.604 29.343 3.000 0 0 0
392 1 1 0 6.874 28.128 3.000 0 0 0
393 1 1 0 7.561 26.888 3.000 0 0 0
394 1 1 0 6.831 25.672 3.000 0 0 0
395 1 1 0 7.518 24.432 3.000 0 0 0
396 1 1 0 6.788 23.217 3.000 0 0 0
397 1 1 0 7.475 21.977 3.000 0 0 0
398 1 1 0 6.745 20.761 3.000 0 0 0
399 1 1 0 7.432 19.521 3.000 0 0 0
400 1 1 0 6.702 18.306 3.000 0 0 0
401 1 1 0 7.390 17.065 3.000 0 0 0
402 1 1 0 6.659 15.850 3.000 0 0 0
403 1 1 0 7.347 14.610 3.000 0 0 0
404 1 1 0 6.616 13.394 3.000 0 0 0
405 1 1 0 7.304 12.154 3.000 0 0 0
406 1 1 0 6.573 10.939 3.000 0 0 0
407 1 1 0 7.261 9.698 3.000 0 0 0
408 1 1 0 6.530 8.483 3.000 0 0 0
409 1 1 0 7.218 7.243 3.000 0 0 0
410 1 1 0 6.487 6.027 3.000 0 0 0
411 1 1 0 7.175 4.787 3.000 0 0 0
412 1 1 0 6.444 3.572 3.000 0 0 0
413 1 1 0 7.132 2.332 3.000 0 0 0
414 1 1 0 6.401 1.116 3.000 0 0 0
415 1 1 0 11.342 121.392 3.000 0 0 0
416 1 1 0 10.612 120.177 3.000 0 0 0
417 1 1 0 11.299 118.937 3.000 0 0 0
418 1 1 0 10.569 117.721 3.000 0 0 0
419 1 1 0 11.256 116.481 3.000 0 0 0
420 1 1 0 10.526 115.266 3.000 0 0 0
421 1 1 0 11.213 114.025 3.000 0 0 0
422 1 1 0 10.483 112.810 3.000 0 0 0
423 1 1 0 11.170 111.570 3.000 0 0 0
424 1 1 0 10.440 110.354 3.000 0 0 0
425 1 1 0 11.127 109.114 3.000 0 0 0
426 1 1 0 10.397 107.899 3.000 0 0 0
427 1 1 0 11.084 106.658 3.000 0 0 0
428 1 1 0 10.354 105.443 3.000 0 0 0
429 1 1 0 11.041 104.203 3.000 0 0 0
430 1 1 0 10.311 102.987 3.000 0 0 0
431 1 1 0 10.998 101.747 3.000 0 0 0
432 1 1 0 10.268 100.532 3.000 0 0 0
433 1 1 0 10.955 99.292 3.000 0 0 0
434 1 1 0 10.225 98.076 3.000 0 0 0
435 1 1 0 10.912 96.836 3.000 0 0 0
436 1 1 0 10.182 95.621 3.000 0 0 0
437 1 1 0 10.869 94.380 3.000 0 0 0
438 1 1 0 10.139 93.165 3.000 0 0 0
439 1 1 0 10.826 91.925 3.000 0 0 0
440 1 1 0 10.096 90.709 3.000 0 0 0
441 1 1 0 10.784 89.469 3.000 0 0 0
442 1 1 0 10.053 88.254 3.000 0 0 0
443 1 1 0 10.741 87.013 3.000 0 0 0
444 1 1 0 10.010 85.798 3.000 0 0 0
445 1 1 0 10.698 84.558 3.000 0 0 0
446 1 1 0 9.967 83.342 3.000 0 0 0
447 1 1 0 10.655 82.102 3.000 0 0 0
448 1 1 0 9.924 80.887 3.000 0 0 0
449 1 1 0 10.612 79.647 3.000 0 0 0
450 1 1 0 9.881 78.431 3.000 0 0 0
451 1 1 0 10.569 77.191 3.000 0 0 0
452 1 1 0 9.838 75.976 3.000 0 0 0
453 1 1 0 10.526 74.735 3.000 0 0 0
454 1 1 0 9.795 73.520 3.000 0 0 0
455 1 1 0 10.483 72.280 3.000 0 0 0
456 1 1 0 9.752 71.064 3.000 0 0 0
457 1 1 0 10.440 69.824 3.000 0 0 0
458 1 1 0 9.709 68.609 3.000 0 0 0
459 1 1 0 10.397 67.368 3.000 0 0 0
460 1 1 0 9.667 66.153 3.000 0 0 0
461 1 1 0 10.354 64.913 3.000 0 0 0
462 1 1 0 9.624 63.697 3.000 0 0 0
463 1 1 0 10.311 62.457 3.000 0 0 0
464 1 1 0 9.581 61.242 3.000 0 0 0
465 1 1 0 10.268 60.002 3.000 0 0 0
466 1 1 0 9.538 58.786 3.000 0 0 0
467 1 1 0 10.225 57.546 3.000 0 0 0
468 1 1 0 9.495 56.331 3.000 0 0 0
469 1 1 0 10.182 55.090 3.000 0 0 0
470 1 1 0 9.452 53.875 3.000 0 0 0
471 1 1 0 10.139 52.635 3.000 0 0 0
472 1 1 0 9.409 51.419 3.000 0 0 0
473 1 1 0 10.096 50.179 3.000 0 0 0
474 1 1 0 9.366 48.964 3.000 0 0 0
475 1 1 0 10.053 47.723 3.000 0 0 0
476 1 1 0 9.323 46.508 3.000 0 0 0
477 1 1 0 10.010 45.268 3.000 0 0 0
478 1 1 0 9.280 44.052 3.000 0 0 0
479 1 1 0 9.967 42.812 3.000 0 0 0
480 1 1 0 9.237 41.597 3.000 0 0 0
481 1 1 0 9.924 40.357 3.000 0 0 0
482 1 1 0 9.194 39.141 3.000 0 0 0
483 1 1 0 9.881 37.901 3.000 0 0 0
484 1 1 0 9.151 36.686 3.000 0 0 0
485 1 1 0 9.838 35.445 3.000 0 0 0
486 1 1 0 9.108 34.230 3.000 0 0 0
487 1 1 0 9.795 32.990 3.000 0 0 0
488 1 1 0 9.065 31.774 3.000 0 0 0
489 1 1 0 9.752 30.534 3.000 0 0 0
490 1 1 0 9.022 29.319 3.000 0 0 0
491 1 1 0 9.709 28.078 3.000 0 0 0
492 1 1 0 8.979 26.863 3.000 0 0 0
493 1 1 0 9.667 25.623 3.000 0 0 0
494 1 1 0 8.936 24.407 3.000 0 0 0
495 1 1 0 9.624 23.167 3.000 0 0 0
496 1 1 0 8.893 21.952 3.000 0 0 0
497 1 1 0 9.581 20.712 3.000 0 0 0
498 1 1 0 8.850 19.496 3.000 0 0 0
499 1 1 0 9.538 18.256 3.000 0 0 0
500 1 1 0 8.807 17.041 3.000 0 0 0
501 1 1 0 9.495 15.800 3.000 0 0 0
502 1 1 0 8.764 14.585 3.000 0 0 0
503 1 1 0 9.452 13.345 3.000 0 0 0
504 1 1 0 8.721 12.129 3.000 0 0 0
505 1 1 0 9.409 10.889 3.000 0 0 0
506 1 1 0 8.678 9.674 3.000 0 0 0
507 1 1 0 9.366 8.433 3.000 0 0 0
508 1 1 0 8.635 7.218 3.000 0 0 0
509 1 1 0 9.323 5.978 3.000 0 0 0
510 1 1 0 8.592 4.762 3.000 0 0 0
511 1 1 0 9.280 3.522 3.000 0 0 0
512 1 1 0 8.549 2.307 3.000 0 0 0
513 1 1 0 9.237 1.067 3.000 0 0 0
514 1 1 0 12.760 121.367 3.000 0 0 0
515 1 1 0 13.447 120.127 3.000 0 0 0
516 1 1 0 12.717 118.912 3.000 0 0 0
517 1 1 0 13.404 117.672 3.000 0 0 0
518 1 1 0 12.674 116.456 3.000 0 0 0
519 1 1 0 13.361 115.216 3.000 0 0 0
520 1 1 0 12.631 114.000 3.000 0 0 0
521 1 1 0 13.318 112.760 3.000 0 0 0
522 1 1 0 12.588 111.545 3.000 0 0 0
523 1 1 0 13.275 110.305 3.000 0 0 0
524 1 1 0 12.545 109.089 3.000 0 0 0
525 1 1 0 13.232 107.849 3.000 0 0 0
526 1 1 0 12.502 106.634 3.000 0 0 0
527 1 1 0 13.189 105.393 3.000 0 0 0
528 1 1 0 12.459 104.178 3.000 0 0 0
529 1 1 0 13.146 102.938 3.000 0 0 0
530 1 1 0 12.416 101.722 3.000 0 0 0
531 1 1 0 13.103 100.482 3.000 0 0 0
532 1 1 0 12.373 99.267 3.000 0 0 0
533 1 1 0 13.061 98.027 3.000 0 0 0
534 1 1 0 12.330 96.811 3.000 0 0 0
535 1 1 0 13.018 95.571 3.000 0 0 0
536 1 1 0 12.287 94.355 3.000 0 0 0
537 1 1 0 12.975 93.115 3.000 0 0 0
538 1 1 0 12.244 91.900 3.000 0 0 0
539 1 1 0 12.932 90.660 3.000 0 0 0
540 1 1 0 12.201 89.444 3.000 0 0 0
541 1 1 0 12.889 88.204 3.000 0 0 0
542 1 1 0 12.158 86.989 3.000 0 0 0
543 1 1 0 12.846 85.748 3.000 0 0 0
544 1 1 0 12.115 84.533 3.000 0 0 0
545 1 1 0 12.803 83.293 3.000 0 0 0
546 1 1 0 12.072 82.077 3.000 0 0 0
547 1 1 0 12.760 80.837 3.000 0 0 0
548 1 1 0 12.029 79.622 3.000 0 0 0
549 1 1 0 12.717 78.382 3.000 0 0 0
550 1 1 0 11.986 77.166 3.000 0 0 0
551 1 1 0 12.674 75.926 3.000 0 0 0
552 1 1 0 11.944 74.711 3.000 0 0 0
553 1 1 0 12.631 73.470 3.000 0 0 0
554 1 1 0 11.901 72.255 3.000 0 0 0
555 1 1 0 12.588 71.015 3.000 0 0 0
556 1 1 0 11.858 69.799 3.000 0 0 0
557 1 1 0 12.545 68.559 3.000 0 0 0
558 1 1 0 11.815 67.344 3.000 0 0 0
559 1 1 0 12.502 66.103 3.000 0 0 0
560 1 1 0 11.772 64.888 3.000 0 0 0
561 1 1 0 12.459 63.648 3.000 0 0 0
562 1 1 0 11.729 62.432 3.000 0 0 0
563 1 1 0 12.416 61.192 3.000 0 0 0
564 1 1 0 11.686 59.977 3.000 0 0 0
565 1 1 0 12.373 58.737 3.000 0 0 0
566 1 1 0 11.643 57.521 3.000 0 0 0
567 1 1 0 12.330 56.281 3.000 0 0 0
568 1 1 0 11.600 55.066 3.000 0 0 0
569 1 1 0 12.287 53.825 3.000 0 0 0
570 1 1 0 11.557 52.610 3.000 0 0 0
571 1 1 0 12.244 51.370 3.000 0 0 0
572 1 1 0 11.514 50.154 3.000 0 0 0
573 1 1 0 12.201 48.914 3.000 0 0 0
574 1 1 0 11.471 47.699 3.000 0 0 0
575 1 1 0 12.158 46.458 3.000 0 0 0
576 1 1 0 11.428 45.243 3.000 0 0 0
577 1 1 0 12.115 44.003 3.000 0 0 0
578 1 1 0 11.385 42.787 3.000 0 0 0
579 1 1 0 12.072 41.547 3.000 0 0 0
580 1 1 0 11.342 40.332 3.000 0 0 0
581 1 1 0 12.029 39.092 3.000 0 0 0
582 1 1 0 11.299 37.876 3.000 0 0 0
583 1 1 0 11.986 36.636 3.000 0 0 0
584 1 1 0 11.256 35.421 3.000 0 0 0
585 1 1 0 11.944 34.180 3.000 0 0 0
586 1 1 0 11.213 32.965 3.000 0 0 0
587 1 1 0 11.901 31.725 3.000 0 0 0
588 1 1 0 11.170 30.509 3.000 0 0 0
589 1 1 0 11.858 29.269 3.000 0 0 0
590 1 1 0 11.127 28.054 3.000 0 0 0
591 1 1 0 11.815 26.813 3.000 0 0 0
592 1 1 0 11.084 25.598 3.000 0 0 0
593 1 1 0 11.772 24.358 3.000 0 0 0
594 1 1 0 11.041 23.142 3.000 0 0 0
595 1 1 0 11.729 21.902 3.000 0 0 0
596 1 1 0 10.998 20.687 3.000 0 0 0
597 1 1 0 11.686 19.447 3.000 0 0 0
598 1 1 0 10.955 18.231 3.000 0 0 0
599 1 1 0 11.643 16.991 3.000 0 0 0
600 1 1 0 10.912 15.776 3.000 0 0 0
601 1 1 0 11.600 14.535 3.000 0 0 0
602 1 1 0 10.869 13.320 3.000 0 0 0
603 1 1 0 11.557 12.080 3.000 0 0 0
604 1 1 0 10.826 10.864 3.000 0 0 0
605 1 1 0 11.514 9.624 3.000 0 0 0
606 1 1 0 10.784 8.409 3.000 0 0 0
607 1 1 0 11.471 7.168 3.000 0 0 0
608 1 1 0 10.741 5.953 3.000 0 0 0
609 1 1 0 11.428 4.713 3.000 0 0 0
610 1 1 0 10.698 3.497 3.000 0 0 0
611 1 1 0 11.385 2.257 3.000 0 0 0
612 1 1 0 10.655 1.042 3.000 0 0 0
613 1 1 0 15.595 121.318 3.000 0 0 0
614 1 1 0 14.865 120.102 3.000 0 0 0
615 1 1 0 15.552 118.862 3.000 0 0 0
616 1 1 0 14.822 117.647 3.000 0 0 0
617 1 1 0 15.509 116.407 3.000 0 0 0
618 1 1 0 14.779 115.191 3.000 0 0 0
619 1 1 0 15.466 113.951 3.000 0 0 0
620 1 1 0 14.736 112.735 3.000 0 0 0
621 1 1 0 15.423 111.495 3.000 0 0 0
622 1 1 0 14.693 110.280 3.000 0 0 0
623 1 1 0 15.380 109.040 3.000 0 0 0
624 1 1 0 14.650 107.824 3.000 0 0 0
625 1 1 0 15.338 106.584 3.000 0 0 0
626 1 1 0 14.607 105.369 3.000 0 0 0
627 1 1 0 15.295 104.128 3.000 0 0 0
628 1 1 0 14.564 102.913 3.000 0 0 0
629 1 1 0 15.252 101.673 3.000 0 0 0
630 1 1 0 14.521 100.457 3.000 0 0 0
631 1 1 0 15.209 99.217 3.000 0 0 0
632 1 1 0 14.478 98.002 3.000 0 0 0
633 1 1 0 15.166 96.762 3.000 0 0 0
634 1 1 0 14.435 95.546 3.000 0 0 0
635 1 1 0 15.123 94.306 3.000 0 0 0
636 1 1 0 14.392 93.090 3.000 0 0 0
637 1 1 0 15.080 91.850 3.000 0 0 0
638 1 1 0 14.349 90.635 3.000 0 0 0
639 1 1 0 15.037 89.395 3.000 0 0 0
640 1 1 0 14.306 88.179 3.000 0 0 0
641 1 1 0 14.994 86.939 3.000 0 0 0
642 1 1 0 14.263 85.724 3.000 0 0 0
643 1 1 0 14.951 84.483 3.000 0 0 0
644 1 1 0 14.221 83.268 3.000 0 0 0
645 1 1 0 14.908 82.028 3.000 0 0 0
646 1 1 0 14.178 80.812 3.000 0 0 0
647 1 1 0 14.865 79.572 3.000 0 0 0
648 1 1 0 14.135 78.357 3.000 0 0 0
649 1 1 0 14.822 77.117 3.000 0 0 0
650 1 1 0 14.092 75.901 3.000 0 0 0
651 1 1 0 14.779 74.661 3.000 0 0 0
652 1 1 0 14.049 73.445 3.000 0 0 0
653 1 1 0 14.736 72.205 3.000 0 0 0
654 1 1 0 14.006 70.990 3.000 0 0 0
655 1 1 0 14.693 69.750 3.000 0 0 0
656 1 1 0 13.963 68.534 3.000 0 0 0
657 1 1 0 14.650 67.294 3.000 0 0 0
658 1 1 0 13.920 66.079 3.000 0 0 0
659 1 1 0 14.607 64.838 3.000 0 0 0
660 1 1 0 13.877 63.623 3.000 0 0 0
661 1 1 0 14.564 62.383 3.000 0 0 0
662 1 1 0 13.834 61.167 3.000 0 0 0
663 1 1 0 14.521 59.927 3.000 0 0 0
664 1 1 0 13.791 58.712 3.000 0 0 0
665 1 1 0 14.478 57.472 3.000 0 0 0
666 1 1 0 13.748 56.256 3.000 0 0 0
667 1 1 0 14.435 55.016 3.000 0 0 0
668 1 1 0 13.705 53.800 3.000 0 0 0
669 1 1 0 14.392 52.560 3.000 0 0 0
670 1 1 0 13.662 51.345 3.000 0 0 0
671 1 1 0 14.349 50.105 3.000 0 0 0
672 1 1 0 13.619 48.889 3.000 0 0 0
673 1 1 0 14.306 47.649 3.000 0 0 0
674 1 1 0 13.576 46.434 3.000 0 0 0
675 1 1 0 14.263 45.193 3.000 0 0 0
676 1 1 0 13.533 43.978 3.000 0 0 0
677 1 1 0 14.221 42.738 3.000 0 0 0
678 1 1 0 13.490 41.522 3.000 0 0 0
679 1 1 0 14.178 40.282 3.000 0 0 0
680 1 1 0 13.447 39.067 3.000 0 0 0
681 1 1 0 14.135 37.827 3.000 0 0 0
682 1 1 0 13.404 36.611 3.000 0 0 0
683 1 1 0 14.092 35.371 3.000 0 0 0
684 1 1 0 13.361 34.156 3.000 0 0 0
685 1 1 0 14.049 32.915 3.000 0 0 0
686 1 1 0 13.318 31.700 3.000 0 0 0
687 1 1 0 14.006 30.460 3.000 0 0 0
688 1 1 0 13.275 29.244 3.000 0 0 0
689 1 1 0 13.963 28.004 3.000 0 0 0
690 1 1 0 13.232 26.789 3.000 0 0 0
691 1 1 0 13.920 25.548 3.000 0 0 0
692 1 1 0 13.189 24.333 3.000 0 0 0
693 1 1 0 13.877 23.093 3.000 0 0 0
694 1 1 0 13.146 21.877 3.000 0 0 0
695 1 1 0 13.834 20.637 3.000 0 0 0
696 1 1 0 13.103 19.422 3.000 0 0 0
697 1 1 0 13.791 18.182 3.000 0 0 0
698 1 1 0 13.061 16.966 3.000 0 0 0
699 1 1 0 13.748 15.726 3.000 0 0 0
700 1 1 0 13.018 14.511 3.000 0 0 0
701 1 1 0 13.705 13.270 3.000 0 0 0
702 1 1 0 12.975 12.055 3.000 0 0 0
703 1 1 0 13.662 10.815 3.000 0 0 0
704 1 1 0 12.932 9.599 3.000 0 0 0
705 1 1 0 13.619 8.359 3.000 0 0 0
706 1 1 0 12.889 7.144 3.000 0 0 0
707 1 1 0 13.576 5.903 3.000 0 0 0
708 1 1 0 12.846 4.688 3.000 0 0 0
709 1 1 0 13.533 3.448 3.000 0 0 0
710 1 1 0 12.803 2.232 3.000 0 0 0
711 1 1 0 13.490 0.992 3.000 0 0 0
712 1 1 0 17.013 121.293 3.000 0 0 0
713 1 1 0 17.700 120.053 3.000 0 0 0
714 1 1 0 16.970 118.837 3.000 0 0 0
715 1 1 0 17.657 117.597 3.000 0 0 0
716 1 1 0 16.927 116.382 3.000 0 0 0
717 1 1 0 17.615 115.141 3.000 0 0 0
718 1 1 0 16.884 113.926 3.000 0 0 0
719 1 1 0 17.572 112.686 3.000 0 0 0
720 1 1 0 16.841 111.470 3.000 0 0 0
721 1 1 0 17.529 110.230 3.000 0 0 0
722 1 1 0 16.798 109.015 3.000 0 0 0
723 1 1 0 17.486 107.775 3.000 0 0 0
724 1 1 0 16.755 106.559 3.000 0 0 0
725 1 1 0 17.443 105.319 3.000 0 0 0
726 1 1 0 16.712 104.104 3.000 0 0 0
727 1 1 0 17.400 102.863 3.000 0 0 0
728 1 1 0 16.669 101.648 3.000 0 0 0
729 1 1 0 17.357 100.408 3.000 0 0 0
730 1 1 0 16.626 99.192 3.000 0 0 0
731 1 1 0 17.314 97.952 3.000 0 0 0
732 1 1 0 16.583 96.737 3.000 0 0 0
733 1 1 0 17.271 95.496 3.000 0 0 0
734 1 1 0 16.540 94.281 3.000 0 0 0
735 1 1 0 17.228 93.041 3.000 0 0 0
736 1 1 0 16.498 91.825 3.000 0 0 0
737 1 1 0 17.185 90.585 3.000 0 0 0
738 1 1 0 16.455 89.370 3.000 0 0 0
739 1 1 0 17.142 88.130 3.000 0 0 0
740 1 1 0 16.412 86.914 3.000 0 0 0
741 1 1 0 17.099 85.674 3.000 0 0 0
742 1 1 0 16.369 84.459 3.000 0 0 0
743 1 1 0 17.056 83.218 3.000 0 0 0
744 1 1 0 16.326 82.003 3.000 0 0 0
745 1 1 0 17.013 80.763 3.000 0 0 0
746 1 1 0 16.283 79.547 3.000 0 0 0
747 1 1 0 16.970 78.307 3.000 0 0 0
748 1 1 0 16.240 77.092 3.000 0 0 0
749 1 1 0 16.927 75.852 3.000 0 0 0
750 1 1 0 16.197 74.636 3.000 0 0 0
751 1 1 0 16.884 73.396 3.000 0 0 0
752 1 1 0 16.154 72.180 3.000 0 0 0
753 1 1 0 16.841 70.940 3.000 0 0 0
754 1 1 0 16.111 69.725 3.000 0 0 0
755 1 1 0 16.798 68.485 3.000 0 0 0
756 1 1 0 16.068 67.269 3.000 0 0 0
757 1 1 0 16.755 66.029 3.000 0 0 0
758 1 1 0 16.025 64.814 3.000 0 0 0
759 1 1 0 16.712 63.573 3.000 0 0 0
760 1 1 0 15.982 62.358 3.000 0 0 0
761 1 1 0 16.669 61.118 3.000 0 0 0
762 1 1 0 15.939 59.902 3.000 0 0 0
763 1 1 0 16.626 58.662 3.000 0 0 0
764 1 1 0 15.896 57.447 3.000 0 0 0
765 1 1 0 16.583 56.207 3.000 0 0 0
766 1 1 0 15.853 54.991 3.000 0 0 0
767 1 1 0 16.540 53.751 3.000 0 0 0
768 1 1 0 15.810 52.535 3.000 0 0 0
769 1 1 0 16.498 51.295 3.000 0 0 0
770 1 1 0 15.767 50.080 3.000 0 0 0
771 1 1 0 16.455 48.840 3.000 0 0 0
772 1 1 0 15.724 47.624 3.000 0 0 0
773 1 1 0 16.412 46.384 3.000 0 0 0
774 1 1 0 15.681 45.169 3.000 0 0 0
775 1 1 0 16.369 43.928 3.000 0 0 0
776 1 1 0 15.638 42.713 3.000 0 0 0
777 1 1 0 16.326 41.473 3.000 0 0 0
778 1 1 0 15.595 40.257 3.000 0 0 0
779 1 1 0 16.283 39.017 3.000 0 0 0
780 1 1 0 15.552 37.802 3.000 0 0 0
781 1 1 0 16.240 36.562 3.000 0 0 0
782 1 1 0 15.509 35.346 3.000 0 0 0
783 1 1 0 16.197 34.106 3.000 0 0 0
784 1 1 0 15.466 32.890 3.000 0 0 0
785 1 1 0 16.154 31.650 3.000 0 0 0
786 1 1 0 15.423 30.435 3.000 0 0 0
787 1 1 0 16.111 29.195 3.000 0 0 0
788 1 1 0 15.380 27.979 3.000 0 0 0
789 1 1 0 16.068 26.739 3.000 0 0 0
790 1 1 0 15.338 25.524 3.000 0 0 0
791 1 1 0 16.025 24.283 3.000 0 0 0
792 1 1 0 15.295 23.068 3.000 0 0 0
793 1 1 0 15.982 21.828 3.000 0 0 0
794 1 1 0 15.252 20.612 3.000 0 0 0
795 1 1 0 15.939 19.372 3.000 0 0 0
796 1 1 0 15.209 18.157 3.000 0 0 0
797 1 1 0 15.896 16.917 3.000 0 0 0
798 1 1 0 15.166 15.701 3.000 0 0 0
799 1 1 0 15.853 14.461 3.000 0 0 0
800 1 1 0 15.123 13.245 3.000 0 0 0
801 1 1 0 15.810 12.005 3.000 0 0 0
802 1 1 0 15.080 10.790 3.000 0 0 0
803 1 1 0 15.767 9.550 3.000 0 0 0
804 1 1 0 15.037 8.334 3.000 0 0 0
805 1 1 0 15.724 7.094 3.000 0 0 0
806 1 1 0 14.994 5.879 3.000 0 0 0
807 1 1 0 15.681 4.638 3.000 0 0 0
808 1 1 0 14.951 3.423 3.000 0 0 0
809 1 1 0 15.638 2.183 3.000 0 0 0
810 1 1 0 14.908 0.967 3.000 0 0 0
811 1 1 0 19.849 121.243 3.000 0 0 0
812 1 1 0 19.118 120.028 3.000 0 0 0
813 1 1 0 19.806 118.788 3.000 0 0 0
814 1 1 0 19.075 117.572 3.000 0 0 0
815 1 1 0 19.763 116.332 3.000 0 0 0
816 1 1 0 19.032 115.117 3.000 0 0 0
817 1 1 0 19.720 113.876 3.000 0 0 0
818 1 1 0 18.989 112.661 3.000 0 0 0
819 1 1 0 19.677 111.421 3.000 0 0 0
820 1 1 0 18.946 110.205 3.000 0 0 0
821 1 1 0 19.634 108.965 3.000 0 0 0
822 1 1 0 18.903 107.750 3.000 0 0 0
823 1 1 0 19.591 106.510 3.000 0 0 0
824 1 1 0 18.860 105.294 3.000 0 0 0
825 1 1 0 19.548 104.054 3.000 0 0 0
826 1 1 0 18.817 102.839 3.000 0 0 0
827 1 1 0 19.505 101.598 3.000 0 0 0
828 1 1 0 18.775 100.383 3.000 0 0 0
829 1 1 0 19.462 99.143 3.000 0 0 0
830 1 1 0 18.732 97.927 3.000 0 0 0
831 1 1 0 19.419 96.687 3.000 0 0 0
832 1 1 0 18.689 95.472 3.000 0 0 0
833 1 1 0 19.376 94.231 3.000 0 0 0
834 1 1 0 18.646 93.016 3.000 0 0 0
835 1 1 0 19.333 91.776 3.000 0 0 0
836 1 1 0 18.603 90.560 3.000 0 0 0
837 1 1 0 19.290 89.320 3.000 0 0 0
838 1 1 0 18.560 88.105 3.000 0 0 0
839 1 1 0 19.247 86.865 3.000 0 0 0
840 1 1 0 18.517 85.649 3.000 0 0 0
841 1 1 0 19.204 84.409 3.000 0 0 0
842 1 1 0 18.474 83.194 3.000 0 0 0