ITEM: TIMESTEP
129
ITEM: NUMBER OF ATOMS
13256
ITEM: BOX BOUNDS pp pp pp
0.0000000000000000e+00 9.9974584899999996e+01
0.0000000000000000e+00 1.7316105999999999e+02
0.0000000000000000e+00 1.8399999999999999e+01
ITEM: ATOMS id type x y z c_csym c_2[1] c_2[2] c_2[3] c_2[4] c_2[5] c_2[6] c_3 
159 1 0.88367 8.57903 7.41106 6.01352 -168223 -139340 -3138.41 -25392 15884.1 -3508.93 -7.41526 
160 1 0.151101 7.3653 7.40701 6.02138 -146919 -161482 2314.59 -18511.3 20751.5 -1370.02 -7.41548 
161 1 0.835348 6.12347 7.40351 6.0185 -164493 -143595 -1045.98 -13765.3 12871.6 -3157.57 -7.41512 
162 1 0.10186 4.91022 7.40034 6.02423 -148997 -159399 827.715 -8520.55 13819 -932.313 -7.41513 
163 1 0.785395 3.66804 7.39797 6.02286 -160470 -147860 -71.1726 -5503.34 8552 -2719.07 -7.41497 
164 1 0.051279 2.45513 7.39603 6.02722 -151445 -156975 259.893 -2173.6 6765.6 -457.539 -7.41492 
165 1 0.734412 1.21276 7.39503 6.02763 -156278 -152162 178.101 -1191.63 3031.95 -2179.07 -7.41488 
166 1 9.02948e-07 2.33539e-06 7.39453 6.03 -154253 -154255 178.08 4.14154 0.0460121 -0.00994219 -7.41486 
301 1 2.30117 8.54966 7.41187 6.01572 -158707 -149659 2769.2 -20640.5 23485.6 -4299.91 -7.41571 
302 1 2.98544 7.30776 7.40864 6.01611 -177092 -130830 -949.807 -18639 14249.6 -10179 -7.41531 
303 1 2.25283 6.09399 7.40441 6.01917 -157101 -151235 911.131 -8900.6 16707.4 -4801.79 -7.41529 
304 1 2.9364 4.85177 7.40217 6.02002 -169743 -138562 206.994 -8642.67 10696.7 -9471.43 -7.41515 
305 1 2.20287 3.6385 7.39893 6.02249 -155779 -152615 150.165 -621.525 9644.98 -5170.01 -7.41503 
306 1 2.88603 2.39612 7.39798 6.02462 -161944 -146391 429.815 -2361.26 5878.69 -8551.18 -7.41501 
307 1 2.15189 1.18319 7.39603 6.02536 -154641 -153738 91.6715 3669.75 2672.27 -5436.3 -7.41491 
442 1 5.13436 8.49323 7.41569 6.0131 -191938 -115864 336.123 -21215.8 15424.9 -17043.8 -7.41566 
443 1 4.40287 7.27878 7.41069 6.01176 -168272 -139917 -7.3812 -7280.99 18803.5 -7627.17 -7.41548 
444 1 5.0865 6.03653 7.40869 6.01736 -181788 -126446 1440.33 -9462.65 12724.5 -16175.1 -7.41548 
445 1 4.35384 4.82272 7.4044 6.01679 -163408 -144774 -713.604 3066.08 11866.3 -8858.48 -7.41518 
446 1 5.03705 3.58033 7.40354 6.02169 -170911 -137544 1400.57 -1255.97 8742.35 -15001.6 -7.41529 
447 1 4.30349 2.36702 7.40033 6.0206 -158642 -149645 -494.892 9429.83 4858.96 -9904.54 -7.41504 
448 1 4.98661 1.12464 7.4008 6.02237 -159598 -148897 635.2 2829.03 3569.61 -13503.3 -7.41513 
583 1 6.55174 8.46507 7.41862 6.00395 -181550 -125966 -2258.85 -3983.61 20091.1 -9406.41 -7.41563 
584 1 7.23546 7.2228 7.41691 6.01204 -195654 -112354 3959.67 -8280.97 14552.4 -22500.7 -7.41596 
585 1 6.50389 6.00829 7.4119 6.00993 -173738 -134049 -2720.28 8402.86 13368.3 -11436.8 -7.41533 
586 1 7.18721 4.76592 7.41115 6.01795 -182277 -126068 3476.1 1957.84 11495.5 -21175.6 -7.41572 
587 1 6.45448 3.55205 7.40698 6.01543 -165754 -142126 -2021.23 16983.5 6451.98 -13235.8 -7.41518 
588 1 7.13768 2.30971 7.40742 6.01939 -168074 -140241 2014.46 8138.18 7175.75 -19455.4 -7.41548 
589 1 6.40407 1.09635 7.40439 6.01819 -157744 -150369 -600.774 21184.8 -281.902 -14805.7 -7.41518 
725 1 8.65281 7.19567 7.42078 6.00281 -185804 -121008 -6123.52 15037.6 14177.3 -12960.9 -7.41545 
727 1 8.60459 4.73877 7.41531 6.01014 -175266 -132031 -4815.11 25845.6 7432.46 -15421.8 -7.41532 
729 1 8.55511 2.28255 7.41183 6.01472 -164407 -143274 -2508.63 32330.4 741.181 -17624.8 -7.41533 
724 1 9.38312 8.41099 7.42624 6.00484 -210735 -97090.3 7952.62 -5302.08 16125.9 -28194 -7.41659 
726 1 9.33628 5.95332 7.42014 6.0118 -195425 -112866 6917.97 6851.85 14046.9 -26799.6 -7.4163 
728 1 9.28792 3.49647 7.4157 6.01658 -179066 -129382 4640.2 15203.8 10670.9 -24959.4 -7.41598 
730 1 9.23863 1.04044 7.41341 6.01146 -161937 -146381 1591.92 19152.1 6073.08 -22670 -7.41569 
865 1 10.8004 8.38517 7.4304 5.99585 -199007 -106406 -11016.9 22449.4 14379.8 -13571.2 -7.41549 
866 1 11.4841 7.14289 7.42986 6.00523 -209476 -98581.5 11833.6 13069.9 16321.8 -31670.9 -7.41701 
867 1 10.7536 5.92753 7.42465 6.00377 -186373 -119826 -9053.7 35519.5 7860.05 -16569.1 -7.41539 
868 1 11.4371 4.68531 7.42496 6.01198 -191641 -116877 8705.63 23576.6 13946.9 -29794.9 -7.41662 
869 1 10.7053 3.47071 7.42054 6.01054 -173342 -133578 -5798.17 44320.9 1278.03 -19300 -7.41545 
870 1 11.389 2.22867 7.42192 6.00766 -172525 -135705 4508.84 29818.1 10258.7 -27443.5 -7.41623 
871 1 10.6561 1.01469 7.4185 6.01232 -159966 -147513 -1759.98 48444.7 -4984.36 -21767.1 -7.41563 
1006 1 13.6306 8.33485 7.43974 5.99858 -223457 -84153.4 18161 20145.6 18244.8 -35635.2 -7.41782 
1007 1 12.9014 7.11861 7.43435 5.99759 -198463 -106452 -14750.5 45437.4 7838.62 -16837.3 -7.4154 
1008 1 13.5852 5.8765 7.43455 6.00589 -204794 -103551 14238.8 32855.1 16902.2 -33800 -7.41738 
1009 1 12.8545 4.66111 7.42983 6.00652 -183813 -122164 -10571.8 56678.3 1412.55 -19975.5 -7.41549 
1010 1 13.5383 3.41918 7.43098 6.00441 -184569 -123708 8935.71 41463.6 14188.7 -31471.6 -7.41689 
1011 1 12.8064 2.20453 7.42714 6.00944 -168519 -138170 -5289.15 63267.5 -4822.68 -22846.9 -7.41573 
1012 1 13.4906 0.962914 7.42933 5.9985 -163438 -144419 2798.62 45313.8 10181.1 -28675.8 -7.41641 
1147 1 15.0478 8.31217 7.44392 5.99194 -210424 -92555.8 -21760.9 55162.9 7485.27 -16392.4 -7.41531 
1148 1 15.7319 7.07021 7.44396 5.99984 -218036 -90169.3 21099.9 42453.8 19433.3 -36852.6 -7.41823 
1149 1 15.0025 5.85398 7.43912 6.00105 -194841 -109789 -16767.7 68788 1257.42 -19820.8 -7.41546 
1150 1 15.6866 4.61219 7.43999 5.99993 -197356 -111098 14821.6 53490.5 17735.4 -34622.7 -7.41766 
1151 1 14.9557 3.39677 7.43596 6.00731 -178394 -127292 -10340.8 77900 -4909.69 -22983 -7.41575 
1152 1 15.6402 2.15528 7.43782 5.99461 -175251 -132609 7382.61 59866.6 14638.8 -31924.3 -7.41706 
1153 1 14.9081 0.940561 7.43471 6.0024 -161454 -145024 -3067.47 81900 -10630.8 -25897.7 -7.41616 
1287 1 17.1928 9.50827 7.45295 5.98708 -221973 -79011.1 -29807.1 64149.4 6903.93 -15393.4 -7.41513 
1288 1 17.8774 8.26651 7.4528 5.99416 -230316 -77381.8 29010.7 51924 21451.6 -38870.8 -7.41913 
1289 1 17.1492 7.04941 7.44796 5.99618 -205941 -97081.3 -24174.9 80152.6 918.561 -19001.4 -7.41533 
1290 1 17.8337 5.80781 7.44854 5.99538 -209848 -98487.2 21957.8 65357.3 20780.4 -36803.6 -7.4185 
1291 1 17.1039 4.59158 7.44445 6.00511 -188936 -115615 -16783.2 91851.8 -5136.03 -22350.7 -7.41567 
1292 1 17.7887 3.35024 7.44596 5.99148 -187680 -120347 13419.3 74356.2 18647.2 -34270.9 -7.41781 
1293 1 17.0575 2.13479 7.44277 5.99913 -171067 -134393 -8207.84 98499.9 -10888.5 -25449.7 -7.41615 
1294 1 17.7428 0.893841 7.44522 5.98523 -164420 -142757 4001.44 78127.2 15152.5 -31315.8 -7.41711 
1428 1 20.0216 9.46539 7.46084 5.98908 -241008 -65876.8 37602 60730.5 22896.6 -39831.4 -7.42006 
1429 1 19.2946 8.24741 7.45607 5.99204 -216224 -84940.5 -32467.1 90279.2 483.517 -17673.6 -7.41512 
1430 1 19.9796 7.00605 7.45635 5.99141 -221352 -86728 30019.7 76519.9 23228.8 -37970.7 -7.41938 
1431 1 19.251 5.78899 7.45228 6.00129 -199247 -103985 -24350.3 104523 -5408.66 -21115.2 -7.4155 
1432 1 19.9361 4.54785 7.45342 5.98727 -199792 -108417 20641.7 88136.7 22082.6 -35656.8 -7.41862 
1433 1 19.206 3.33162 7.45024 5.99658 -181247 -123281 -14720.5 113875 -11145.1 -24307.9 -7.41603 
1434 1 19.8915 2.09083 7.45233 5.98179 -176701 -130668 10061.1 94668.3 19475.6 -32933.4 -7.41782 
1435 1 19.1602 0.875314 7.45004 5.98906 -162572 -142844 -4219.35 117756 -16341.4 -27276.1 -7.41668 
1569 1 21.4387 9.44793 7.46331 5.98883 -225005 -73854.9 -41255.8 98739.2 15.699 -15988.5 -7.41485 
1570 1 22.1242 8.20684 7.4633 5.98813 -231256 -76175.8 38622.6 86482.9 25026.4 -38143.8 -7.42028 
1571 1 21.3968 6.98896 7.45928 5.99672 -208577 -92866.4 -32686.4 115459 -5662.14 -19432.1 -7.41526 
1572 1 22.0824 5.74807 7.46005 5.9831 -210789 -97232.8 28696.6 100667 24857 -36079.7 -7.41946 
1573 1 21.3533 4.53105 7.4569 5.99469 -191041 -112279 -22295.3 127551 -11326.3 -22639.3 -7.41582 
1574 1 22.0392 3.29045 7.45862 5.9792 -188567 -118999 17260.6 110001 23174.4 -33627.1 -7.41858 
1575 1 21.3089 2.0742 7.45639 5.98602 -172538 -131944 -10708.4 134247 -16608 -25618.7 -7.41652 
1576 1 21.9952 0.834012 7.45897 5.97301 -165171 -141271 4945.31 113788 20109.7 -30828.5 -7.4177 
1710 1 24.2678 9.41004 7.46938 5.98473 -238926 -67367.3 47383.5 94837.8 26168.1 -37410.4 -7.42116 
1711 1 23.5414 8.19138 7.4654 5.99295 -216465 -82931.4 -41401.2 124325 -5858.56 -17450.4 -7.41496 
1712 1 24.2275 6.95077 7.46585 5.97977 -220107 -87432.8 37200.3 111476 26928.9 -35600.7 -7.42031 
1713 1 23.4996 5.73299 7.46271 5.99189 -199832 -102044 -30560.9 139059 -11390.3 -20598.9 -7.41555 
1714 1 24.1858 4.49263 7.46405 5.97566 -199371 -108293 25230.7 123591 26175.1 -33435.6 -7.41938 
1715 1 23.4565 3.27564 7.46186 5.98377 -182052 -121355 -18221.6 148581 -16696.1 -23527.3 -7.41627 
1716 1 24.1431 2.03562 7.46409 5.97036 -177027 -129663 12083.1 130275 23955.1 -30950 -7.41841 
1717 1 23.4126 0.819333 7.46281 5.97608 -163471 -140912 -5035.31 152344 -21401.5 -26254.9 -7.41711 
1851 1 25.6849 9.39608 7.47073 5.99012 -222283 -74708.3 -50129 130765 -5980.1 -15309.3 -7.41463 
1852 1 26.3716 8.1558 7.47091 5.97732 -227230 -79377.7 45798.8 120175 28305.7 -34335.8 -7.42115 
1853 1 25.6447 6.93729 7.46772 5.9891 -207005 -92994.4 -39139.9 148032 -11322.6 -18330.5 -7.41522 
1854 1 26.3315 5.6972 7.46871 5.97233 -208408 -98933.9 33602.7 134944 28452.1 -32451.5 -7.42018 
1855 1 25.6031 4.4795 7.4665 5.98229 -190541 -111670 -26381.3 160401 -16586.8 -21152.7 -7.41596 
1856 1 26.2901 3.23969 7.46837 5.96861 -187772 -119163 19956.9 144578 27095.7 -30281.9 -7.41915 
1857 1 25.5605 2.02271 7.46713 5.97364 -172963 -130532 -12479.2 167118 -21416.4 -23778.3 -7.41681 
1858 1 26.248 0.783292 7.46975 5.96286 -165822 -139809 5475.37 148376 24389.5 -27858.7 -7.41812 
1992 1 28.5147 9.36291 7.47536 5.97572 -231769 -73420.9 54203.9 126525 29034.3 -32434.5 -7.42194 
1993 1 27.7888 8.14374 7.47209 5.98707 -212136 -85653 -47697.7 154295 -11126.5 -15962.7 -7.41487 
1994 1 28.4761 6.90396 7.47279 5.96995 -215198 -91384.2 42053.2 143781 30023.3 -30805.9 -7.42096 
1995 1 27.7487 5.68559 7.47045 5.98111 -197360 -103313 -34828.2 169374 -16285.2 -18628.3 -7.4156 
1996 1 28.4361 4.44603 7.47198 5.96592 -196743 -110115 28217.1 156281 29520.7 -28935.9 -7.41989 
1997 1 27.7074 3.22839 7.47067 5.97204 -181318 -121133 -20547.6 179041 -21170.1 -21114.9 -7.41646 
1998 1 28.3952 1.98915 7.47296 5.96089 -176667 -129300 13279.1 163114 27598.4 -26846.6 -7.4188 
1999 1 27.6653 0.772148 7.47258 5.96461 -164310 -139178 -5474.51 182754 -25425.2 -23430.6 -7.41743 
2133 1 29.9319 9.3521 7.47599 5.98577 -214815 -80227.4 -55975.6 157828 -10814.8 -13603.7 -7.41452 
2134 1 30.6199 8.11266 7.47645 5.96848 -219355 -85843.9 50329 149980 30940 -28646.1 -7.42171 
2135 1 29.8933 6.89368 7.47392 5.97909 -202009 -96591.5 -43259.4 175400 -15811.1 -16068 -7.41522 
2136 1 30.5813 5.65441 7.47514 5.96362 -203372 -102830 36569.3 165155 31255.2 -27045 -7.42063 
2137 1 29.8533 4.43616 7.47363 5.9712 -187955 -113161 -28901.3 187946 -20683.2 -18381.8 -7.41607 
2138 1 30.5415 3.19712 7.4756 5.95901 -185549 -120359 21470.2 175010 30124.9 -25264.9 -7.4195 
2139 1 29.8125 1.97952 7.4751 5.96298 -172722 -129948 -13485.7 194752 -25094.2 -20539 -7.41703 
2140 1 30.501 0.740804 7.47763 5.95436 -166270 -138349 5604.41 178919 27708.5 -23323.5 -7.41838 
2274 1 32.7628 9.32304 7.47987 5.96787 -220960 -82472.7 58251.7 153574 31272.5 -26113.6 -7.42242 
2275 1 32.037 8.10353 7.47711 5.97786 -204180 -91738.8 -51447.4 178548 -15190.9 -13564 -7.41484 
2276 1 32.7256 6.86456 7.47806 5.96225 -207573 -97532.8 44788.4 171174 32349.5 -24745 -7.42135 
2277 1 31.9985 5.64576 7.47627 5.97098 -192368 -106917 -37265.7 193791 -19987.2 -15674.1 -7.41566 
2278 1 32.687 4.40697 7.47791 5.95737 -192369 -113273 29780.3 183912 31996.5 -23239.1 -7.4202 
2279 1 31.9588 3.18881 7.47716 5.96213 -179217 -122209 -21791.7 203579 -24483.5 -17653.4 -7.4166 
2280 1 32.6476 1.95026 7.47939 5.95252 -175499 -129418 13767 190921 30296.8 -21607.8 -7.41903 
2281 1 31.9184 0.732659 7.47959 5.95531 -164874 -137610 -5588.63 207321 -28347.1 -19497.7 -7.41766 
2415 1 34.18 9.31485 7.48017 5.9774 -203997 -89042.3 -59241.2 178906 -14452.1 -11185.6 -7.41448 
2416 1 34.8692 8.07623 7.48092 5.96174 -209062 -94440.8 52716.6 174407 32868.2 -22157.1 -7.42203 
2417 1 34.1428 6.85695 7.47879 5.97071 -194490 -102579 -45439.1 196635 -19118.1 -13066.6 -7.41525 
2418 1 34.8319 5.61842 7.48014 5.95644 -196663 -108194 38006.7 189812 33259.5 -20887.9 -7.42088 
2419 1 34.1043 4.39977 7.47903 5.96193 -183734 -116263 -30142.7 209292 -23632.9 -14847.8 -7.41616 
2420 1 34.7935 3.16142 7.48093 5.9512 -182468 -122421 22077 199835 32281.8 -19529 -7.41969 
2421 1 34.0649 1.94332 7.48084 5.95445 -171698 -130044 -13879.2 216151 -27682.1 -16516.2 -7.41719 
2422 1 34.7544 0.705216 7.48311 5.94748 -166672 -136983 5454.38 203865 30088.9 -18088.2 -7.41852 
2557 1 36.2864 8.06945 7.48135 5.97034 -193994 -100234 -53287.4 196620 -18109.9 -10613 -7.41486 
2559 1 36.2491 5.61215 7.48092 5.96222 -185815 -112260 -38358 211935 -22582.8 -12178.4 -7.41572 
2561 1 36.2107 3.15548 7.482 5.95427 -176279 -124288 -22250 221840 -26748.5 -13659 -7.41671 
2563 1 36.1717 0.699447 7.4844 5.94829 -165406 -136376 -5471.24 225646 -30297.9 -15041.9 -7.41781 
2556 1 37.0122 9.28912 7.48381 5.96205 -207978 -93546.1 60256 174957 32879.4 -19377.5 -7.42269 
2558 1 36.9761 6.83122 7.48245 5.95609 -198326 -105255 46009.1 192763 33968.5 -18311.5 -7.42155 
2560 1 36.9387 4.37402 7.48251 5.95022 -186958 -117440 30353.5 205671 33702 -17187.2 -7.42035 
2562 1 36.9004 1.91752 7.48396 5.94644 -173967 -130052 13784.2 212823 32163.2 -16011.2 -7.41915 
2697 1 38.4294 9.28298 7.48401 5.97072 -191072 -99959 -60729.9 193897 -16992.9 -8348.13 -7.41449 
2698 1 39.1197 8.04507 7.48494 5.95617 -197147 -104418 53695.2 192956 34180.4 -15584.4 -7.42219 
2699 1 38.3933 6.82566 7.48298 5.96296 -185338 -110177 -46316.4 211693 -21371.9 -9684.08 -7.4153 
2700 1 39.0833 5.58778 7.4843 5.94985 -188685 -114583 38468.5 208483 34601.1 -14662.2 -7.421 
2701 1 38.3559 4.36889 7.48329 5.95459 -178448 -120483 -30538.1 224426 -25589.4 -10964.4 -7.41624 
2702 1 39.0459 3.1311 7.48495 5.94549 -178480 -125103 22125.8 218690 33725.9 -13713.9 -7.41978 
2703 1 38.3177 1.91264 7.48492 5.94809 -170223 -130723 -13870.1 231412 -29352.5 -12171.6 -7.41729 
2704 1 39.0079 0.675018 7.48675 5.94291 -166681 -135895 5153.49 222883 31695.9 -12742.1 -7.41858 
2838 1 41.263 9.25972 7.48763 5.95668 -193547 -105782 61008 190495 33947.8 -12753.9 -7.42281 
2839 1 40.537 8.04005 7.48527 5.96358 -182183 -110183 -53941.8 208665 -20033.2 -7389.12 -7.41489 
2840 1 41.2276 6.80244 7.48637 5.94986 -187866 -113854 46335.8 208448 35022.2 -12010.1 -7.42164 
2841 1 40.5006 5.58326 7.48486 5.95536 -177935 -118671 -38633.3 224073 -24244.6 -8457.67 -7.41578 
2842 1 41.191 4.34567 7.48623 5.94504 -180630 -122299 30363.4 221496 34807.7 -11258.3 -7.42042 
2843 1 40.4632 3.12691 7.48566 5.94841 -172357 -127062 -22236.3 234071 -28154.7 -9479.85 -7.41679 
2844 1 41.1536 1.8894 7.48719 5.94222 -171671 -131029 13549.7 228830 33381.7 -10504.6 -7.41919 
2845 1 40.4252 0.670992 7.48755 5.94344 -165412 -135429 -5214.41 238038 -31475.5 -10436.9 -7.4179 
2979 1 42.6803 9.25504 7.48779 5.96432 -176745 -112225 -61187.6 203045 -18593.3 -5305.97 -7.41451 
2980 1 43.3715 8.01773 7.48874 5.95036 -184326 -115281 53896.1 205699 35005.5 -9262.85 -7.42226 
2981 1 42.6449 6.79834 7.48677 5.95597 -175015 -118925 -46463.1 220921 -22748.9 -6153.88 -7.41534 
2982 1 43.3357 5.56097 7.48788 5.94498 -180003 -121730 38415.3 221372 35439.3 -8685.26 -7.42105 
2983 1 42.6083 4.34198 7.48676 5.94917 -172233 -125566 -30468.7 233766 -26743.8 -6980.38 -7.4163 
2984 1 43.299 3.10463 7.488 5.94171 -174051 -128376 21893.6 231759 34633.2 -8120.38 -7.41981 
2985 1 42.5709 1.88596 7.48779 5.94372 -168012 -131985 -13641.6 240907 -30304.3 -7765.69 -7.41736 
2986 1 43.2616 0.648681 7.48904 5.94031 -166474 -135198 4790.6 236150 32714 -7570.03 -7.4186 
3121 1 44.7888 8.01386 7.48898 5.95678 -169467 -121222 -53978.2 215076 -21128.7 -4060.13 -7.41493 
3123 1 44.753 5.5576 7.48828 5.94976 -169353 -126052 -38498.4 230605 -25153.2 -4680.64 -7.41583 
3124 1 45.444 4.32041 7.48925 5.94154 -173739 -127906 30111.9 231681 35467.7 -5617.6 -7.42043 
3125 1 44.7162 3.10158 7.48845 5.94445 -168016 -130682 -21990 240749 -28889.5 -5283.58 -7.41684 
3126 1 45.4071 1.86439 7.4894 5.93984 -169153 -132699 13208 239231 34115.7 -5248.01 -7.4192 
3127 1 44.6789 0.645786 7.48947 5.94055 -165271 -135150 -4889.23 244929 -32065.6 -5847.73 -7.41796 
3120 1 45.5151 9.23338 7.49133 5.95131 -178217 -118836 61106.5 200364 34585.2 -6430.03 -7.42286 
3122 1 45.4801 6.77674 7.48991 5.94541 -176705 -123259 46224.1 218472 35646.7 -6014.75 -7.42167 
3261 1 46.9325 9.22956 7.49141 5.95794 -161412 -125398 -61138.5 206668 -19402.4 -2178.79 -7.41454 
3262 1 47.6244 7.99271 7.49222 5.94633 -170539 -126809 53740.5 212868 35452.4 -3247.84 -7.42227 
3263 1 46.8975 6.77349 7.49016 5.95059 -163867 -128545 -46273.4 224673 -23408.8 -2583.91 -7.41538 
3264 1 47.5889 5.53651 7.49092 5.94189 -170466 -129543 38146.2 228737 35899.1 -3007.45 -7.42105 
3265 1 46.8613 4.31757 7.48957 5.94498 -165341 -131425 -30193.6 237694 -27261.7 -2992.28 -7.41634 
3266 1 47.5525 3.08051 7.49026 5.93959 -168893 -132346 21555.5 239331 35138.5 -2799.14 -7.41981 
3267 1 46.8244 1.86179 7.48971 5.94122 -165493 -134008 -13315.7 245026 -30702 -3383.79 -7.41741 
3268 1 47.5155 0.62471 7.49028 5.93945 -165779 -135188 4413.31 243971 33283.5 -2628.53 -7.41859 
3402 1 49.7686 9.20863 7.49469 5.94773 -162033 -132431 60911.4 204728 34873.3 -370.021 -7.42286 
3403 1 49.0418 7.9894 7.49232 5.95183 -155631 -133019 -53746.6 216050 -21528.4 -692.135 -7.41496 
3404 1 49.7337 6.75264 7.49294 5.94273 -164625 -133228 45942.8 223024 35937.1 -285.175 -7.42166 
3405 1 49.0063 5.53369 7.49112 5.94581 -159762 -134173 -38199.4 231761 -25444.9 -892.9 -7.41586 
3406 1 49.6977 4.29677 7.49158 5.93979 -165982 -134092 29775.9 236466 35784.4 -227.951 -7.42042 
3407 1 48.9698 3.07801 7.49046 5.94168 -162800 -134950 -21653.1 242141 -29088.8 -1097.39 -7.41687 
3408 1 49.661 1.841 7.49076 5.93905 -165839 -134996 12841.6 244253 34472.4 -213.68 -7.41919 
3409 1 48.9328 0.622352 7.49042 5.93949 -164549 -135567 -4533.1 246576 -32198.4 -1284.49 -7.41799 
3543 1 51.1861 9.20507 7.49458 5.95347 -145214 -139613 -60861.7 204818 -19521.6 990.533 -7.41457 
3544 1 51.8786 7.96856 7.49514 5.94409 -156317 -139080 53437.6 214632 35588.4 2566.44 -7.42226 
3545 1 51.1512 6.74965 7.49298 5.94707 -151768 -139034 -45953.4 223046 -23455.9 1011.43 -7.41541 
3546 1 51.843 5.51291 7.49328 5.94053 -160422 -138034 37809.1 230750 36052.1 2473.51 -7.42103 
3547 1 51.1151 4.29419 7.49166 5.94246 -157578 -138090 -29846.2 236328 -27246.8 1010.62 -7.41637 
3548 1 51.8065 3.05728 7.49172 5.93898 -163261 -136997 21196.2 241612 35315 2340.93 -7.41979 
3549 1 51.0783 1.83865 7.49079 5.93985 -162173 -136794 -12953.7 243943 -30645.1 1007.09 -7.41743 
3550 1 51.7694 0.601634 7.49064 5.93881 -164650 -135981 4043.95 246519 33478.9 2156.82 -7.41857 
3684 1 54.0235 9.18402 7.49731 5.946 -145714 -147064 60546.7 203706 34856.4 5574.22 -7.42283 
3685 1 53.2961 7.96522 7.49497 5.94877 -141357 -145965 -53389.3 211620 -21301.9 2712.96 -7.41498 
3686 1 53.9883 6.72868 7.49518 5.9418 -152328 -144108 45584.1 222261 35937.2 5322.78 -7.42164 
3687 1 53.2604 5.51006 7.4932 5.94368 -149708 -143286 -37835.6 227624 -25189.3 2934.42 -7.41588 
3688 1 53.9521 4.27327 7.49308 5.93933 -157920 -141159 29414.1 235993 35799.7 5044.03 -7.4204 
3689 1 53.2238 3.05473 7.49164 5.94054 -157197 -140224 -21282.1 238316 -28818.9 3134.59 -7.41689 
3690 1 53.915 1.81777 7.49124 5.93856 -162267 -138235 12476.8 244086 34491.7 4714.51 -7.41916 
3691 1 53.1867 0.599229 7.4905 5.93949 -163444 -136900 -4159.82 243027 -31933.6 3333.29 -7.41801 
3825 1 55.4411 9.18013 7.49686 5.95094 -128759 -154942 -60414.3 197598 -18981.1 4195.8 -7.41458 
3826 1 56.1339 7.94382 7.49707 5.94366 -141855 -152257 53002.2 211116 35434 8344.71 -7.42221 
3827 1 55.4058 6.72536 7.49488 5.94539 -139386 -150577 -45544.1 216120 -22921.2 4660.68 -7.41542 
3828 1 56.0979 5.48874 7.49466 5.94023 -150040 -147458 37414.7 227533 35912.4 7911.4 -7.421 
3829 1 55.3695 4.27036 7.49283 5.9417 -149458 -145732 -29452.5 229711 -26728.6 5087.81 -7.41638 
3830 1 56.0609 3.03347 7.49224 5.93883 -157123 -142562 20822 238685 35171.3 7437.19 -7.41976 
3831 1 55.3324 1.81508 7.49097 5.94007 -158562 -140507 -12566.9 237617 -30159.3 5494.45 -7.41744 
3832 1 56.0234 0.577997 7.49009 5.93964 -162933 -137638 3683.42 243876 33303.7 6901.88 -7.41854 
3966 1 58.2797 9.15809 7.49866 5.9458 -129480 -162550 59924.4 197499 34536.2 11565.3 -7.42276 
3967 1 57.5515 7.93986 7.49646 5.94761 -126811 -159926 -52864.5 201899 -20438.8 6165.78 -7.41499 
3968 1 58.2439 6.70341 7.49621 5.94171 -139971 -155807 45084.2 216322 35638 10963.3 -7.42158 
3969 1 57.5153 5.48526 7.49417 5.94338 -139255 -153327 -37377.4 218199 -24375.9 6845.98 -7.41589 
3970 1 58.207 4.24847 7.49345 5.93966 -149676 -149024 28987.7 230328 35494.6 10336.6 -7.42034 
3971 1 57.4783 3.0303 7.49178 5.94116 -151002 -146289 -20860.6 229179 -28068.3 7487.96 -7.4169 
3972 1 58.1694 1.79324 7.49068 5.93982 -158187 -142185 12097.8 238694 34145.5 9655.17 -7.41911 
3973 1 57.4407 0.57496 7.48962 5.94024 -161682 -138973 -3766.28 234164 -31257.5 8108.25 -7.41801 
4107 1 59.6974 9.15329 7.49764 5.95037 -112477 -171357 -59642.9 185122 -17728.7 7413.65 -7.41459 
4108 1 60.3903 7.91706 7.49744 5.94384 -128024 -166248 52263.6 202470 34961.7 14218.9 -7.42212 
4109 1 59.6615 6.69918 7.49539 5.94561 -126995 -163038 -44933.1 203877 -21753.8 8376.16 -7.41543 
4110 1 60.3535 5.46253 7.49461 5.94112 -140035 -157615 36845.5 219114 35437.6 13425.9 -7.42092 
4111 1 59.6245 4.24464 7.49273 5.94279 -141208 -154238 -28941 217732 -25657 9284.03 -7.41638 
4112 1 60.3157 3.00763 7.49147 5.94059 -151145 -148821 20369.6 230539 34651 12591.5 -7.41968 
4113 1 59.5868 1.78963 7.49 5.94122 -154495 -144949 -12126.6 225929 -29194.2 10151.6 -7.41744 
4114 1 60.2775 0.552338 7.48844 5.94235 -161082 -139987 3322.32 235962 32690.4 11688 -7.41847 
4248 1 62.5371 9.12943 7.49802 5.94666 -114304 -178650 58736.4 186203 33872.9 17689.4 -7.42261 
4249 1 61.808 7.91188 7.49617 5.94845 -112915 -174702 -51944.5 186903 -18846.9 9632.05 -7.415 
4250 1 62.5004 6.67539 7.49541 5.94328 -128352 -168123 44217.7 205177 34978 16714.8 -7.42145 
4251 1 61.771 5.45784 7.49352 5.94501 -129217 -164123 -36668 203396 -22914.7 10839.1 -7.41588 
4252 1 62.4625 4.22091 7.49217 5.94202 -141849 -157519 28355.1 219363 34788.3 15714.8 -7.42024 
4253 1 61.7332 3.00325 7.49049 5.94288 -145055 -153116 -20304 214588 -26748.5 11987.9 -7.41689 
4254 1 62.4239 1.76596 7.48873 5.94306 -154314 -146796 11648.5 227966 33337.7 14655.2 -7.41902 
4255 1 61.6948 0.548075 7.48753 5.94273 -159894 -141792 -3341.62 219856 -30083 13089.4 -7.41799 
4389 1 63.9549 9.12312 7.49621 5.95193 -97157.8 -188072 -58171.2 167506 -15632.7 10553.5 -7.41461 
4390 1 64.6477 7.88683 7.49552 5.9462 -114989 -180364 50862.4 188639 34098.6 20202.3 -7.42193 
4391 1 63.918 6.66965 7.49384 5.9479 -115247 -175854 -43844.6 186274 -19824.3 12095.1 -7.41542 
4392 1 64.6098 5.43284 7.49248 5.94419 -130449 -167974 35856.3 205358 34528.3 19022.2 -7.42076 
4393 1 63.88 4.21556 7.49079 5.94526 -133291 -163113 -28139.9 200279 -23905.2 13561.2 -7.41636 
4394 1 64.5709 2.9783 7.4889 5.94445 -145254 -155469 19708.7 216908 33633.7 17795.7 -7.41955 
4395 1 63.8413 1.76082 7.48748 5.94433 -150627 -149961 -11565.3 208655 -27626.6 14960.5 -7.41741 
4396 1 64.5315 0.523182 7.48532 5.94709 -158994 -142887 2946.3 222544 31503.4 16491.2 -7.41836 
4530 1 66.7955 9.09662 7.49464 5.94999 -100480 -194114 56464.7 169774 32793.3 23863.5 -7.42232 
4531 1 66.0655 7.87984 7.49336 5.95151 -99726.3 -189206 -50204 166604 -16363.5 12980.6 -7.41501 
4532 1 66.7576 6.64318 7.49205 5.94722 -117563 -179978 42605.8 188646 33848.1 22497 -7.42122 
4533 1 66.0274 5.42632 7.49056 5.94849 -119498 -174792 -35416.3 183093 -20645.5 14800.5 -7.41587 
4534 1 66.7184 4.18913 7.48862 5.94665 -134343 -165786 27282.7 202862 33543.4 21091.3 -7.42005 
4535 1 65.9884 2.97208 7.4872 5.94672 -139056 -159945 -19458.1 194377 -24702.9 16534.8 -7.41685 
4536 1 66.6786 1.73443 7.48486 5.94847 -150284 -151478 11041.6 211542 31909.9 19618.1 -7.41886 
4537 1 65.9489 0.517075 7.48382 5.94728 -157770 -144789 -2869.89 199777 -28258 18186.2 -7.41793 
4671 1 68.2135 9.08819 7.49181 5.9559 -83339.2 -204066 -55402.4 144658 -12509.1 13414.1 -7.41466 
4672 1 68.9059 7.85171 7.49058 5.9512 -103709 -193382 48261.1 169413 32738.1 26093.9 -7.42159 
4673 1 68.1753 6.6353 7.4895 5.95214 -104427 -188114 -41840.9 163243 -16948.8 15622.7 -7.41543 
4674 1 68.8666 5.3982 7.48756 5.94978 -122061 -177621 34077.6 185989 33039.8 24505.3 -7.42048 
4675 1 68.136 4.18163 7.48634 5.95005 -125773 -171667 -26779.5 177183 -21291.7 17727.2 -7.41633 
4676 1 68.8263 2.94399 7.4839 5.95071 -139911 -161728 18646.2 197510 31947.7 22854.6 -7.41932 
4677 1 68.096 1.72713 7.48285 5.94972 -146616 -154821 -10785 185601 -25278 19728.4 -7.41734 
4678 1 68.7855 0.489017 7.48021 5.95409 -156868 -145826 2540.41 203163 29555.1 21115.2 -7.41818 
4812 1 71.0548 9.05823 7.48788 5.9562 -89652.9 -207782 52417.3 147998 31212.6 29723 -7.42183 
4813 1 70.3238 7.84228 7.48733 5.95579 -88584.3 -202688 -47046.5 141063 -12798.9 15938.5 -7.41505 
4814 1 71.0154 6.60531 7.48544 5.95391 -108953 -190581 39730 166512 32111.3 27969.6 -7.42081 
4815 1 70.2843 5.38923 7.48461 5.95324 -111200 -184792 -33215.6 157262 -17377.2 18443.9 -7.41585 
4816 1 70.9747 4.15163 7.48212 5.9539 -128257 -173294 25445.9 180527 31586.8 26142.4 -7.41971 
4817 1 70.2438 2.9353 7.48127 5.95278 -133811 -166452 -18117 168459 -21740.8 20826.1 -7.41678 
4818 1 70.9333 1.69714 7.47846 5.95634 -146963 -155986 10156.2 189099 29668.9 24231.3 -7.4186 
4819 1 70.2029 0.480432 7.47793 5.95424 -155768 -147880 -2347.39 173817 -25593.3 23076.8 -7.4178 
4953 1 72.4728 9.04707 7.48394 5.96041 -72744.7 -217987 -50607.5 117073 -8191.99 15662.8 -7.41475 
4955 1 72.4332 6.59468 7.48177 5.95712 -95943.1 -198877 -38382.1 135053 -12954.1 18589.9 -7.41544 
4957 1 72.3923 4.14135 7.47877 5.95583 -119792 -179296 -24533.6 148614 -17638.1 21376.4 -7.41626 
4959 1 72.3508 1.68705 7.4755 5.95677 -143362 -159265 -9681.41 156858 -21966.5 24010.5 -7.4172 
4954 1 73.1647 7.81026 7.4821 5.95914 -95624.7 -204123 43823.2 144784 30772.6 31367.2 -7.42102 
4956 1 73.1238 5.35714 7.47926 5.95816 -115818 -185722 31061.1 160882 30816 29387.8 -7.42001 
4958 1 73.0818 2.90318 7.47585 5.95957 -135789 -167173 16943.5 172126 29408.7 27313 -7.41895 
4960 1 73.0393 0.448332 7.47254 5.96349 -155025 -148669 2087.27 177584 26650.7 25134.2 -7.41789 
5094 1 75.3146 9.0129 7.47757 5.96549 -83009.6 -217740 45932.5 121246 29076.2 34516.7 -7.42106 
5095 1 74.5827 7.7978 7.47773 5.96201 -80793.3 -213491 -41851.6 111021 -8037.15 18081.5 -7.41512 
5096 1 75.2735 6.56037 7.47523 5.96355 -103424 -198362 35074.9 139027 29653.1 32447.3 -7.42017 
5097 1 74.5415 5.3451 7.47518 5.95991 -105128 -192805 -29642.7 126576 -12980.3 21282.4 -7.41582 
5098 1 75.2311 4.10695 7.47219 5.9639 -124190 -179012 22514 152462 28766.7 30242.2 -7.41919 
5099 1 74.4994 2.8914 7.47215 5.95995 -129835 -171798 -16076.1 137304 -17721.2 24312.5 -7.41664 
5100 1 75.1879 1.65262 7.469 5.96672 -144419 -159623 8870 160669 26446.4 27923.7 -7.41819 
5101 1 74.4568 0.436649 7.46929 5.96231 -154052 -150615 -1794.43 142474 -21939.4 27150.1 -7.41757 
5235 1 76.7327 8.99848 7.47267 5.96801 -66704.9 -227918 -43210.3 85978.1 -2670.9 16864.7 -7.4149 
5236 1 77.4238 7.76118 7.47012 5.9701 -91918.1 -210806 37086.6 115373 28156.7 35116.1 -7.42017 
5237 1 76.6914 6.54641 7.47048 5.96507 -90881 -206687 -33028.1 102866 -7804.98 20468.9 -7.41546 
5238 1 77.3811 5.30831 7.46741 5.96936 -112649 -190912 26463.1 130664 27767 32852.4 -7.41931 
5239 1 76.6488 4.09332 7.46774 5.96419 -116026 -184880 -21139.4 115712 -12887.3 23891.6 -7.41615 
5240 1 77.3373 2.85451 7.46444 5.97101 -133424 -170926 14415.7 141297 25905.1 30439.1 -7.41839 
5241 1 76.6054 1.63916 7.46498 5.96561 -141053 -162777 -8188.98 123526 -17616.4 27102.8 -7.41696 
5242 1 77.2929 0.399737 7.46183 5.97516 -153617 -151094 1582.46 146410 22677.7 27895.1 -7.41748 
5376 1 79.5746 8.95952 7.46427 5.97776 -82150.6 -222055 36793.6 90659.9 26434.5 37129.9 -7.41999 
5377 1 78.8418 7.7452 7.46487 5.97135 -77796.3 -220007 -34314.5 78304.8 -2187.07 18901.6 -7.41521 
5378 1 79.5317 6.50717 7.4617 5.97594 -102301 -202076 28433.1 107285 26478.7 34924.9 -7.41927 
5379 1 78.7989 5.2927 7.46232 5.96957 -102484 -197857 -24479.6 92746 -7530.88 22689.9 -7.41575 
5380 1 79.4874 4.05388 7.45887 5.97638 -122928 -182078 18344.8 119846 25063 32499.9 -7.41846 
5381 1 78.7549 2.83913 7.45968 5.96995 -127845 -175424 -13240.4 102750 -12690.3 26256 -7.41643 
5382 1 79.4423 1.59963 7.4563 5.97927 -143235 -162054 7139.55 127510 22217.5 29914.2 -7.41763 
5383 1 78.7104 0.384444 7.45754 5.97268 -152890 -152815 -1253.57 107565 -17319.9 29561.2 -7.4172 
5517 1 80.9926 8.94146 7.45882 5.97871 -66917.6 -231989 -33254.8 53673.2 3758.44 16604.6 -7.4151 
5518 1 81.6828 7.70352 7.45547 5.9836 -93767.8 -211755 28188 82951.4 25017.8 36195.1 -7.41907 
5519 1 80.9496 6.4895 7.45618 5.97603 -90497 -210103 -25774.5 69165.7 -1755.95 20701.2 -7.41547 
5520 1 81.6382 5.25071 7.45256 5.98282 -113424 -192183 20353.1 97091.5 24000.5 33883 -7.41839 
5521 1 80.9051 4.03649 7.45352 5.97539 -115293 -187710 -16592.5 80978.2 -7254.54 24579.2 -7.41598 
5522 1 81.5925 2.79696 7.44991 5.98439 -133332 -172510 11104.7 106917 21538 31350.3 -7.41765 
5523 1 80.8599 1.58239 7.45129 5.977 -140232 -164952 -6330.06 88134.2 -12410.7 28186.1 -7.41661 
5524 1 81.5463 0.342214 7.44806 5.98839 -152921 -152923 1064.21 111525 17741.7 28643.8 -7.41693 
5658 1 83.8341 8.89745 7.44933 5.99223 -87923.4 -219096 25683.8 58424.6 23538.1 36384.9 -7.41871 