ITEM: TIMESTEP
0
ITEM: NUMBER OF ATOMS
13256
ITEM: BOX BOUNDS pp pp pp
0.0000000000000000e+00 9.9974584899999996e+01
0.0000000000000000e+00 1.7316105999999999e+02
0.0000000000000000e+00 1.8399999999999999e+01
ITEM: ATOMS id type x y z c_csym c_2[1] c_2[2] c_2[3] c_2[4] c_2[5] c_2[6] c_3 
159 1 0.814518 8.58664 7.5 6.03193 -145883 -128364 -102971 -808.942 20371.7 -2642.92 -7.4134 
160 1 0.090502 7.36744 7.5 6.03192 -130945 -143461 -103043 256.375 21845.4 -343.057 -7.4134 
161 1 0.784351 6.13083 7.5 6.03193 -143028 -130527 -106020 -787.312 15606.4 -2507.26 -7.41323 
162 1 0.0603347 4.91163 7.5 6.03192 -132340 -141125 -106863 175.079 14565 -228.969 -7.41318 
163 1 0.754184 3.67501 7.5 6.03193 -140210 -132808 -108302 -756.132 9905.78 -2340.55 -7.4131 
164 1 0.0301673 2.45581 7.5 6.03192 -134182 -138734 -109077 89.2181 7198.83 -112.901 -7.41306 
165 1 0.724016 1.2192 7.5 6.03191 -137539 -135175 -109557 -716.372 3439.31 -2140.73 -7.41303 
166 1 0 0 7.5 6.0319 -136437 -136443 -109783 63.1796 0.01804 0.0718386 -7.41302 
301 1 2.23238 8.56923 7.5 6.03194 -130407 -144569 -100313 2670.7 25056.9 -4768.19 -7.41356 
302 1 2.92623 7.33261 7.5 6.03194 -144402 -129777 -103415 -2420.52 18114.7 -9374.23 -7.41338 
303 1 2.20222 6.11341 7.5 6.03194 -131571 -142296 -104857 2536.82 17922.5 -5212.7 -7.4133 
304 1 2.89607 4.8768 7.5 6.03194 -141547 -131981 -106214 -2555.16 12918.4 -9040.11 -7.41322 
305 1 2.17205 3.6576 7.5 6.03194 -133201 -139950 -107775 2371.89 10587.8 -5597.82 -7.41313 
306 1 2.8659 2.42098 7.5 6.03191 -138784 -134289 -108120 -2669.72 6867.7 -8601.55 -7.41311 
307 1 2.14188 1.20178 7.5 6.03191 -135275 -137687 -109138 2243.32 3295.58 -5920.18 -7.41305 
442 1 5.06811 8.53439 7.5 6.03194 -145792 -129403 -99181.4 -3844.74 20430 -16144.3 -7.41363 
443 1 4.3441 7.31519 7.5 6.03194 -130996 -143537 -101991 4908.62 20736 -9521.61 -7.41346 
444 1 5.03795 6.07858 7.5 6.03194 -142932 -131500 -102519 -4149.24 15825.1 -15710 -7.41343 
445 1 4.31393 4.85938 7.5 6.03194 -132411 -141285 -105459 4692.6 13537 -10451.1 -7.41326 
446 1 5.00778 3.62276 7.5 6.03194 -140109 -133704 -105116 -4424.11 10296.5 -15107.5 -7.41328 
447 1 4.28376 2.40356 7.5 6.03191 -134264 -138983 -107348 4423.96 6267.9 -11263.3 -7.41315 
448 1 4.97761 1.16695 7.5 6.03191 -137462 -136096 -106712 -4728.97 4007.55 -14329.7 -7.41319 
583 1 6.48598 8.51697 7.5 6.03194 -130521 -144779 -98532.7 7217.99 22942.9 -13035.6 -7.41366 
584 1 7.17983 7.28036 7.5 6.03194 -144346 -131382 -97173.7 -5510.53 18529.3 -22143.2 -7.41374 
585 1 6.45581 6.06116 7.5 6.03194 -131720 -142671 -102389 6979.82 15963.3 -14525.9 -7.41344 
586 1 7.14966 4.82454 7.5 6.03194 -141488 -133462 -100476 -5947.11 13611.9 -21443.4 -7.41355 
587 1 6.42564 3.60535 7.5 6.03194 -133380 -140485 -104659 6662.78 8817.83 -15858.9 -7.41331 
588 1 7.11949 2.36873 7.5 6.03191 -138718 -135629 -102936 -6341.08 7852.22 -20509.5 -7.41341 
589 1 6.39548 1.14953 7.5 6.03191 -135475 -138373 -105424 6337.75 1741.8 -17014.9 -7.41327 
725 1 8.59769 7.26294 7.5 6.03194 -131123 -144034 -98841.6 9165.34 17816.3 -17729.4 -7.41364 
727 1 8.56753 4.80713 7.5 6.03194 -132582 -142018 -101341 8829.46 10874.4 -19587.6 -7.4135 
729 1 8.53736 2.35131 7.5 6.03191 -134472 -139942 -102321 8399.9 3907.32 -21234.9 -7.41344 
724 1 9.32171 8.48214 7.5 6.03194 -145768 -131627 -90188 -6620.2 20954.3 -28163.1 -7.41415 
726 1 9.29154 6.02633 7.5 6.03194 -142909 -133562 -94184.6 -7213.87 16716.9 -27420.6 -7.41392 
728 1 9.26138 3.57051 7.5 6.03194 -140081 -135581 -97516.3 -7757.72 11576 -26397.4 -7.41372 
730 1 9.23121 1.1147 7.5 6.03191 -137423 -137766 -99920.3 -8307.83 5682.18 -25084.1 -7.41358 
865 1 10.7396 8.46472 7.5 6.03194 -130614 -145305 -95093.1 11186.7 19080.2 -20026.4 -7.41386 
866 1 11.4334 7.22811 7.5 6.03194 -144352 -133995 -86280.2 -8210.52 19534.8 -32886.3 -7.41438 
867 1 10.7094 6.00891 7.5 6.03194 -131870 -143500 -97672.9 10859 12399.3 -22387.5 -7.41371 
868 1 11.4033 4.77229 7.5 6.03194 -141494 -135856 -90463.5 -8897.85 15081.5 -31827.8 -7.41413 
869 1 10.6792 3.55309 7.5 6.03194 -133580 -141608 -98730.5 10415 5615.13 -24519.8 -7.41365 
870 1 11.3731 2.31648 7.5 6.03191 -138717 -137776 -93900.1 -9522.33 9800.7 -30440.2 -7.41393 
871 1 10.6491 1.09728 7.5 6.03191 -135711 -139777 -98365.2 9928.74 -1050.68 -26392.1 -7.41367 
1006 1 13.5753 8.42989 7.5 6.03194 -145797 -134743 -76846.2 -8932.65 22009.3 -37724.9 -7.41493 
1007 1 12.8513 7.21069 7.5 6.03194 -131242 -144866 -93927.3 12693.8 13387.3 -24253.7 -7.41392 
1008 1 13.5451 5.97407 7.5 6.03194 -142942 -136433 -81838.3 -9751.45 18291.7 -36672.9 -7.41464 
1009 1 12.8211 4.75488 7.5 6.03194 -132761 -143202 -94930.4 12262.3 6838.46 -26840.3 -7.41386 
1010 1 13.515 3.51826 7.5 6.03194 -140111 -138176 -86278.5 -10504 13692.1 -35265.5 -7.41438 
1011 1 12.791 2.29906 7.5 6.03191 -134699 -141466 -94498.5 11707 329.532 -29156.2 -7.41389 
1012 1 13.4848 1.06244 7.5 6.03191 -137442 -140056 -89900.8 -11243.6 8344.94 -33494.3 -7.41416 
1147 1 14.9932 8.41247 7.5 6.03194 -130698 -146066 -90355 14287.6 13862.5 -25230.2 -7.41412 
1148 1 15.687 7.17586 7.5 6.03194 -144403 -137292 -71743.2 -10318.6 21149.2 -40840.8 -7.41523 
1149 1 14.963 5.95666 7.5 6.03194 -132022 -144657 -91184 13889.5 7581.57 -28220 -7.41408 
1150 1 15.6569 4.72004 7.5 6.03194 -141548 -138856 -77134.2 -11186.7 17279.1 -39456 -7.41491 
1151 1 14.9328 3.50084 7.5 6.03194 -133788 -143151 -90571.6 13351.2 1275.97 -30941.8 -7.41412 
1152 1 15.6267 2.26423 7.5 6.03191 -138765 -140449 -81902.5 -11977.4 12593.2 -37688.8 -7.41463 
1153 1 14.9027 1.04503 7.5 6.03191 -135963 -141693 -88638.5 12748.5 -4849.16 -33359.2 -7.41423 
1287 1 17.1351 9.61425 7.5 6.03194 -130241 -147066 -87174.9 15606.2 13871.5 -25396.5 -7.4143 
1288 1 17.8289 8.37764 7.5 6.03194 -145859 -138410 -60314.5 -10605.6 23611.7 -44268.2 -7.4159 
1289 1 17.1049 7.15844 7.5 6.03194 -131363 -145929 -87727.8 15256.5 7875.03 -28724.8 -7.41427 
1290 1 17.7987 5.92182 7.5 6.03194 -143010 -139789 -66583.8 -11573.7 20502.7 -42939.6 -7.41553 
1291 1 17.0747 4.70262 7.5 6.03194 -132945 -144685 -86835.1 14755.6 1801.36 -31797.6 -7.41433 
1292 1 17.7686 3.46601 7.5 6.03194 -140181 -141189 -72435.1 -12463.6 16526.7 -41220.1 -7.41518 
1293 1 17.0446 2.24681 7.5 6.03191 -134933 -143359 -84605.3 14115.2 -4158.44 -34574.5 -7.41446 
1294 1 17.7384 1.01019 7.5 6.03191 -137503 -142700 -77598.2 -13329 11802.5 -39105.5 -7.41488 
1428 1 19.9708 9.57942 7.5 6.03194 -147291 -139759 -47717 -10624 25647.4 -46911 -7.41664 
1429 1 19.2468 8.36022 7.5 6.03194 -130791 -146990 -84762.5 16335.2 7768.34 -28448.2 -7.41444 
1430 1 19.9406 7.1236 7.5 6.03194 -144478 -140952 -54775.6 -11675.8 23317.7 -45667 -7.41623 
1431 1 19.2166 5.90441 7.5 6.03194 -132180 -146023 -83508.2 15885.2 1941.29 -31805.8 -7.41452 
1432 1 19.9104 4.66779 7.5 6.03194 -141629 -142166 -61626.4 -12649.4 20084.7 -44030.7 -7.41582 
1433 1 19.1864 3.44859 7.5 6.03194 -134000 -144952 -80901.8 15286.7 -3828.68 -34884.6 -7.41468 
1434 1 19.8803 2.21197 7.5 6.03191 -138846 -143382 -67991.4 -13536.8 16039.2 -41996.5 -7.41544 
1435 1 19.1563 0.992776 7.5 6.03191 -136213 -143915 -77086.7 14614.3 -9352.68 -37648.6 -7.4149 
1569 1 21.3886 9.562 7.5 6.03194 -130311 -147828 -82448.4 17107.2 7321.74 -27496.4 -7.41457 
1570 1 22.0825 8.32539 7.5 6.03194 -145933 -142320 -41884.5 -11508.8 25688.8 -47601.9 -7.41699 
1571 1 21.3585 7.10619 7.5 6.03194 -131498 -147143 -80771.3 16717.5 1746.97 -31068.1 -7.41468 
1572 1 22.0523 5.86957 7.5 6.03194 -143095 -143351 -49634.1 -12548.9 23219.8 -46079.6 -7.41653 
1573 1 21.3283 4.65037 7.5 6.03194 -133135 -146348 -77727.6 16173.2 -3820.13 -34382.3 -7.41486 
1574 1 22.0222 3.41376 7.5 6.03194 -140273 -144374 -57106.3 -13504.6 19888.1 -44162.9 -7.41608 
1575 1 21.2981 2.19456 7.5 6.03191 -135164 -145461 -73449.7 15486.8 -9201.13 -37402.2 -7.41511 
1576 1 21.992 0.957942 7.5 6.03191 -137596 -145482 -64025.5 -14433.3 15800.1 -41852.7 -7.41567 
1710 1 24.2244 9.52717 7.5 6.03194 -147361 -143865 -28109.1 -11094.7 27586.3 -48713.1 -7.4178 
1711 1 23.5004 8.30797 7.5 6.03194 -130909 -148036 -78763.6 17238.4 1277.6 -29691.7 -7.41479 
1712 1 24.1942 7.07135 7.5 6.03194 -144559 -144717 -36641.7 -12182.3 25893.2 -47333.4 -7.4173 
1713 1 23.4702 5.85215 7.5 6.03194 -132352 -147522 -75242.1 16756.8 -4080.74 -33171.8 -7.415 
1714 1 24.164 4.61554 7.5 6.03194 -141724 -145563 -45108.7 -13189.2 23299.4 -45566.5 -7.41679 
1715 1 23.44 3.39634 7.5 6.03194 -134214 -146897 -70460.8 16128.4 -9307.21 -36381.4 -7.41529 
1716 1 24.1339 2.15972 7.5 6.03191 -138951 -146383 -53226.9 -14110.2 19887.1 -43413 -7.41631 
1717 1 23.4099 0.940525 7.5 6.03191 -136454 -146295 -64583.9 15429.7 -14226.7 -39289 -7.41564 
1851 1 25.6422 9.50975 7.5 6.03194 -130419 -148700 -77581.1 17441.1 594.381 -27781 -7.41486 
1852 1 26.3361 8.27313 7.5 6.03194 -146005 -146239 -22857 -11575.7 28072.5 -47760.6 -7.41812 
1853 1 25.6121 7.05394 7.5 6.03194 -131659 -148468 -73562.6 17027.1 -4552.63 -31357.8 -7.4151 
1854 1 26.3059 5.81732 7.5 6.03194 -143183 -146915 -32190.7 -12613.9 26232 -46173.2 -7.41756 
1855 1 25.5819 4.59812 7.5 6.03194 -133336 -148118 -68258.1 16464.9 -9618.27 -34688.7 -7.41541 
1856 1 26.2758 3.36151 7.5 6.03194 -140379 -147558 -41383.7 -13571.5 23522.9 -44209.3 -7.41701 
1857 1 25.5517 2.14231 7.5 6.03191 -135391 -147667 -61821.6 15767.8 -14434.4 -37742.8 -7.41579 
1858 1 26.2456 0.905691 7.5 6.03191 -137715 -148263 -50154.4 -14506.9 20042.7 -41873.9 -7.41649 
1992 1 28.478 9.47492 7.5 6.03194 -147421 -147882 -8510.15 -10759.6 29730.9 -47330.6 -7.41897 
1993 1 27.754 8.25572 7.5 6.03194 -131063 -149184 -72764.5 16979.8 -5177.03 -29039.4 -7.41514 
1994 1 28.4478 7.0191 7.5 6.03194 -144635 -148402 -18568.8 -11809.1 28652 -45949.4 -7.41837 
1995 1 27.7238 5.7999 7.5 6.03194 -132545 -149109 -66937.6 16488.5 -10077.8 -32423.7 -7.41549 
1996 1 28.4176 4.56329 7.5 6.03194 -141822 -148887 -28696.5 -12783.8 26664.8 -44204.5 -7.41776 
1997 1 27.6936 3.34409 7.5 6.03194 -134430 -148918 -59941.9 15861.7 -14784.1 -35557.1 -7.4159 
1998 1 28.3875 2.10747 7.5 6.03191 -139072 -149326 -38604.5 -13680.4 23846.3 -42100.1 -7.41717 
1999 1 27.6635 0.888273 7.5 6.03191 -136680 -148737 -51959.5 15176 -19131.1 -38413.3 -7.41638 
2133 1 29.8958 9.4575 7.5 6.03194 -130569 -149668 -72881.8 16614.7 -5896.67 -26309.8 -7.41514 
2134 1 30.5897 8.22088 7.5 6.03194 -146067 -149986 -4483.43 -10809.4 30532.4 -44864.7 -7.41921 
2135 1 29.8657 7.00168 7.5 6.03194 -131847 -149870 -66554.3 16197.2 -10629.1 -29680.6 -7.41551 
2136 1 30.5595 5.76507 7.5 6.03194 -143269 -150330 -15391.6 -11779.9 29278.5 -43363.4 -7.41856 
2137 1 29.8355 4.54587 7.5 6.03194 -133548 -149945 -59020.5 15646.1 -15220.3 -32826.2 -7.41596 
2138 1 30.5294 3.30925 7.5 6.03194 -140493 -150618 -26284.9 -12679.6 27143.5 -41517.8 -7.41791 
2139 1 29.8053 2.09006 7.5 6.03191 -135610 -149908 -50452.7 14975.3 -19510 -35721.4 -7.41647 
2140 1 30.4992 0.853439 7.5 6.03191 -137858 -150947 -36876.2 -13569.6 24220.2 -39334 -7.41727 
2274 1 32.7316 9.42266 7.5 6.03194 -147465 -151622 9802.91 -9653.31 31855.1 -42897.3 -7.42006 
2275 1 32.0076 8.20347 7.5 6.03194 -131248 -150396 -67122.6 15592.7 -11216.3 -26550 -7.41548 
2276 1 32.7014 6.96685 7.5 6.03194 -144703 -151845 -1719.11 -10598.4 31338.4 -41657.7 -7.41937 
2277 1 31.9774 5.74765 7.5 6.03194 -132754 -150738 -59092.6 15120.6 -15687.6 -29640.8 -7.41595 
2278 1 32.6712 4.51104 7.5 6.03194 -141922 -152008 -13431.7 -11480.2 29900.7 -40092.1 -7.41867 
2279 1 31.9472 3.29184 7.5 6.03194 -134647 -150949 -49980.6 14531 -19914.5 -32508.6 -7.41649 
2280 1 32.6411 2.05522 7.5 6.03191 -139207 -152103 -25040.7 -12297.9 27616.6 -38205.6 -7.41798 
2281 1 31.9171 0.836022 7.5 6.03191 -136889 -151155 -39983.2 13899.5 -23739.7 -35131.6 -7.41709 
2415 1 34.1494 9.40525 7.5 6.03194 -130747 -150684 -68616.1 14678.4 -11784.3 -23123.6 -7.41539 
2416 1 34.8433 8.16863 7.5 6.03194 -146115 -153382 12049.1 -9281.33 32829.4 -39073.2 -7.4202 
2417 1 34.1193 6.94943 7.5 6.03194 -132052 -151292 -60153.2 14288.9 -16131.4 -26092 -7.41589 
2418 1 34.8131 5.71282 7.5 6.03194 -143349 -153443 -304.73 -10122.7 32094.6 -37800.5 -7.41946 
2419 1 34.0891 4.49362 7.5 6.03194 -133762 -151757 -50559.4 13785 -20290.1 -28865.2 -7.41646 
2420 1 34.783 3.257 7.5 6.03194 -140613 -153423 -12754.2 -10908.7 30465.1 -36228.4 -7.41871 
2421 1 34.0589 2.0378 7.5 6.03191 -135817 -152093 -40021.9 13181 -24106.4 -31422.8 -7.41708 
2422 1 34.7528 0.801188 7.5 6.03191 -138019 -153423 -25007.9 -11701.7 28031.4 -34361.5 -7.41798 
2557 1 36.2612 8.15121 7.5 6.03194 -131443 -151601 -62156.9 13157 -16496.5 -22276.4 -7.41578 
2559 1 36.231 5.6954 7.5 6.03194 -132961 -152319 -52165 12742.6 -20582.8 -24886.4 -7.41637 
2561 1 36.2008 3.23959 7.5 6.03194 -134850 -152886 -41169.8 12231.8 -24385.5 -27311.7 -7.41702 
2563 1 36.1706 0.783771 7.5 6.03191 -137074 -153430 -29378.9 11700.4 -27753 -29534.8 -7.41772 
2556 1 36.9852 9.37041 7.5 6.03194 -147496 -154888 25623.9 -7873.85 33750.2 -35618.1 -7.42101 
2558 1 36.955 6.9146 7.5 6.03194 -144763 -154868 12816.3 -8652.59 33714.3 -34640.4 -7.42024 
2560 1 36.9248 4.45878 7.5 6.03194 -142021 -154766 -285.444 -9384.48 32745.7 -33389.5 -7.41946 
2562 1 36.8947 2.00297 7.5 6.03191 -139351 -154572 -13383 -10070.3 30917.7 -31868.5 -7.41867 
2697 1 38.403 9.353 7.5 6.03194 -130922 -151664 -65017.3 11735.6 -16725.8 -18300.8 -7.41561 
2698 1 39.0969 8.11638 7.5 6.03194 -146155 -156225 25637.3 -7116.76 34763.6 -30637.3 -7.42101 
2699 1 38.3729 6.89718 7.5 6.03194 -132245 -152628 -54732.8 11413.1 -20737.1 -20677 -7.41622 
2700 1 39.0667 5.66057 7.5 6.03194 -143424 -156065 12079.9 -7772.42 34452.3 -29702.4 -7.4202 
2701 1 38.3427 4.44137 7.5 6.03194 -133955 -153429 -43384 10999.7 -24523 -22901 -7.41689 
2702 1 39.0365 3.20475 7.5 6.03194 -140732 -155801 -1663.85 -8390.53 33236.1 -28528 -7.41937 
2703 1 38.3125 1.98555 7.5 6.03191 -135996 -154081 -31169.1 10509.1 -27934.4 -24957 -7.41761 
2704 1 39.0064 0.748936 7.5 6.03191 -138185 -155535 -15300.1 -9034.5 31204.5 -27115.6 -7.41856 
2838 1 41.2388 9.31816 7.5 6.03194 -147516 -157456 37857.5 -5561.71 35261.5 -25849.5 -7.42175 
2839 1 40.5147 8.09896 7.5 6.03194 -131611 -152683 -58156.9 9811.15 -20696.2 -16354.6 -7.41602 
2840 1 41.2086 6.86235 7.5 6.03194 -144815 -157259 24046.1 -6120.73 35593.8 -25212.6 -7.42092 
2841 1 40.4846 5.64315 7.5 6.03194 -133136 -153711 -46580 9497.16 -24464 -18306.9 -7.4167 
2842 1 41.1784 4.40653 7.5 6.03194 -142113 -156959 9860.01 -6650.47 34985.7 -24372.4 -7.42007 
2843 1 40.4544 3.18733 7.5 6.03194 -135016 -154569 -34064.5 9111.97 -27918.1 -20127.8 -7.41744 
2844 1 41.1483 1.95072 7.5 6.03191 -139489 -156546 -4400 -7152.08 33510.3 -23328.9 -7.41921 
2845 1 40.4242 0.731519 7.5 6.03191 -137218 -155381 -20826.1 8727.86 -30910.9 -21803.3 -7.41823 
2979 1 42.6566 9.30075 7.5 6.03194 -131052 -152494 -62290.1 7959.59 -20401.2 -12049.5 -7.41578 
2980 1 43.3505 8.06413 7.5 6.03194 -146186 -158291 35316 -4476.16 36194.6 -20000.6 -7.42159 
2981 1 42.6265 6.84493 7.5 6.03194 -132389 -153734 -50632.2 7743.67 -24151.9 -13659.1 -7.41647 
2982 1 43.3203 5.60831 7.5 6.03194 -143490 -157978 20894.6 -4898.31 36180.7 -19469.5 -7.42073 
2983 1 42.5963 4.38912 7.5 6.03194 -134097 -154793 -37960.8 7465.19 -27649.4 -15175.7 -7.41721 
2984 1 43.2901 3.1525 7.5 6.03194 -140839 -157544 6220.72 -5299.97 35257 -18775.8 -7.41985 
2985 1 42.5661 1.9333 7.5 6.03191 -136124 -155683 -24482.3 7133.59 -30748.1 -16587.5 -7.41801 
2986 1 43.26 0.696685 7.5 6.03191 -138336 -157088 -8410.82 -5747.09 33512.7 -17917.7 -7.41897 
3121 1 44.7683 8.04671 7.5 6.03194 -131710 -153510 -55374.8 5766.72 -23529.6 -9097.96 -7.41619 
3123 1 44.7382 5.5909 7.5 6.03194 -133242 -154754 -42712.1 5592.67 -27073.2 -10242.5 -7.41694 
3124 1 45.432 4.35428 7.5 6.03194 -142189 -158377 16272.8 -3465.69 36464.2 -13546 -7.42045 
3125 1 44.708 3.13508 7.5 6.03194 -135116 -155810 -29154.9 5373.9 -30281 -11324.5 -7.41774 
3126 1 45.4019 1.89847 7.5 6.03191 -139602 -157824 1269.74 -3740.85 35209.1 -13050.4 -7.41955 
3127 1 44.6778 0.679268 7.5 6.03191 -137304 -156805 -14924.1 5179.69 -33008.2 -12334.4 -7.41859 
3120 1 45.4924 9.26591 7.5 6.03194 -147533 -159104 45601.1 -2883.56 36292.9 -14180.2 -7.42221 
3122 1 45.4622 6.8101 7.5 6.03194 -144858 -158799 31150.4 -3180.55 36850 -13921.5 -7.42134 
3261 1 46.9102 9.24849 7.5 6.03194 -131096 -153064 -60604 3603.5 -22541.9 -4768.31 -7.41588 
3262 1 47.6041 8.01188 7.5 6.03194 -146213 -159375 40352.8 -1540.51 37035.2 -7861.3 -7.4219 
3263 1 46.8801 6.79268 7.5 6.03194 -132446 -154468 -48133.5 3526.6 -26135 -5477.44 -7.41662 
3264 1 47.5739 5.55606 7.5 6.03194 -143541 -158984 25478.2 -1694 37165.1 -7761.94 -7.421 
3265 1 46.8499 4.33686 7.5 6.03194 -134157 -155678 -34677.8 3417.11 -29456.5 -6166.28 -7.41741 
3266 1 47.5437 3.10025 7.5 6.03194 -140918 -158459 10315 -1845.08 36385.6 -7591.42 -7.42009 
3267 1 46.8197 1.88105 7.5 6.03191 -136178 -156706 -20448.5 3279.62 -32362.3 -6828.17 -7.41826 
3268 1 47.5136 0.644434 7.5 6.03191 -138445 -157899 -4842.37 -2058.24 34786.4 -7344.87 -7.41919 
3402 1 49.746 9.21366 7.5 6.03194 -147549 -159667 48251.5 -15.8051 36787.3 -1444.6 -7.42237 
3403 1 49.0219 7.99446 7.5 6.03194 -131709 -153966 -54005.1 1309.21 -24784.9 -1028.36 -7.41627 
3404 1 49.7158 6.75784 7.5 6.03194 -144889 -159322 33579.6 -26.4722 37403.7 -1572.14 -7.42149 
3405 1 48.9918 5.53865 7.5 6.03194 -133250 -155303 -40847.1 1299.44 -28224 -1267.38 -7.41705 
3406 1 49.6856 4.30203 7.5 6.03194 -142239 -158853 18461.1 -41.894 37079.3 -1679.97 -7.42058 
3407 1 48.9616 3.08283 7.5 6.03194 -135128 -156446 -26811.8 1273.59 -31314.4 -1523.66 -7.41788 
3408 1 49.6555 1.84622 7.5 6.03191 -139672 -158247 3197.25 -63.9064 35888.9 -1762.42 -7.41967 
3409 1 48.9314 0.627017 7.5 6.03191 -137315 -157521 -12123.1 1295.82 -33911.7 -1792.31 -7.41875 
3543 1 51.1638 9.19624 7.5 6.03194 -131032 -153293 -60079.2 -1007.81 -22981.2 2968.43 -7.41591 
3544 1 51.8577 7.95963 7.5 6.03194 -146231 -159361 40349.2 1501.49 37231.8 4858.56 -7.4219 
3545 1 51.1337 6.74043 7.5 6.03194 -132395 -154723 -47427.3 -933.048 -26539.7 3225.18 -7.41666 
3546 1 51.8275 5.50381 7.5 6.03194 -143568 -158963 25470.9 1630.33 37336.5 4524.61 -7.421 
3547 1 51.1035 4.28461 7.5 6.03194 -134116 -155959 -33791.9 -858.576 -29818.8 3423.77 -7.41747 
3548 1 51.7973 3.048 7.5 6.03194 -140955 -158429 10301.2 1746.04 36536.6 4164.03 -7.42009 
3549 1 51.0733 1.8288 7.5 6.03191 -136146 -157013 -19386.3 -785.758 -32673.9 3565.06 -7.41832 
3550 1 51.7672 0.592182 7.5 6.03191 -138494 -157860 -4866.21 1782.72 34923.2 3784.22 -7.41919 
3684 1 53.9996 9.16141 7.5 6.03194 -147562 -159081 45596.9 2860.65 36705.2 11359.1 -7.42221 
3685 1 53.2755 7.94221 7.5 6.03194 -131596 -153986 -54159.7 -3225.47 -24369.9 7182.47 -7.41626 
3686 1 53.9694 6.70559 7.5 6.03194 -144902 -158765 31141 3139 37209.2 10853.6 -7.42134 
3687 1 53.2454 5.48639 7.5 6.03194 -133151 -155282 -41138.7 -3068.4 -27838.1 7872.78 -7.41703 
3688 1 53.9392 4.24978 7.5 6.03194 -142251 -158327 16253.9 3397.17 36778.1 10270 -7.42045 
3689 1 53.2152 3.03058 7.5 6.03194 -135044 -156388 -27228.3 -2897.91 -30954.5 8465.4 -7.41786 
3690 1 53.909 1.79396 7.5 6.03191 -139686 -157756 1235.42 3632.72 35488.6 9616.02 -7.41955 
3691 1 53.185 0.574765 7.5 6.03191 -137247 -157430 -12652.9 -2655.96 -33572.9 8959.88 -7.41872 
3825 1 55.4174 9.14399 7.5 6.03194 -130862 -153149 -60772.5 -5517.37 -21695.1 10502.7 -7.41587 
3826 1 56.1113 7.90738 7.5 6.03194 -146237 -158248 35308.1 4457.85 36752.1 17138.6 -7.42159 
3827 1 55.3872 6.68818 7.5 6.03194 -132238 -154467 -48583.8 -5299.46 -25347.2 11706.3 -7.41659 
3828 1 56.0811 5.45156 7.5 6.03194 -143565 -157917 20877.1 4860.95 36665.3 16388.1 -7.42073 
3829 1 55.3571 4.23236 7.5 6.03194 -133978 -155600 -35385.9 -5050.64 -28723.2 12778.4 -7.41737 
3830 1 56.0509 2.99575 7.5 6.03194 -140943 -157458 6186.45 5235.37 35682.6 15517.8 -7.41985 
3831 1 55.3269 1.77655 7.5 6.03191 -136030 -156560 -21390.8 -4777.11 -31675.6 13713.7 -7.4182 
3832 1 56.0208 0.539931 7.5 6.03191 -138473 -156971 -8472.14 5514.24 33896.7 14537.3 -7.41897 
3966 1 58.2531 9.10916 7.5 6.03194 -147564 -157413 37853.5 5565.16 36021.2 23219.9 -7.42175 
3967 1 57.5291 7.88996 7.5 6.03194 -131387 -153572 -55851.2 -7491.51 -22336.2 14839.1 -7.41616 
3968 1 58.223 6.65334 7.5 6.03194 -144891 -157193 24034.3 6114.27 36252.3 22357.5 -7.42092 
3969 1 57.499 5.43414 7.5 6.03194 -132960 -154698 -43582.8 -7187.74 -25963.2 16403.2 -7.41688 
3970 1 58.1928 4.19753 7.5 6.03194 -142223 -156865 9833.52 6626.57 35557.9 21328.9 -7.42006 
3971 1 57.4688 2.97833 7.5 6.03194 -134879 -155648 -30385.2 -6843 -29245.2 17799.2 -7.41766 
3972 1 58.1626 1.74171 7.5 6.03191 -139640 -156416 -4451.69 7100.45 34016.6 20143.8 -7.41921 
3973 1 57.4386 0.522514 7.5 6.03191 -137112 -156550 -16481.1 -6401.63 -32032.7 19021.2 -7.41849 
4107 1 59.671 9.09174 7.5 6.03194 -130615 -152659 -62669.3 -9582.46 -18812.3 17220.9 -7.41575 
4108 1 60.3649 7.85512 7.5 6.03194 -146221 -156163 25633.8 7138.09 35593.4 28030 -7.42101 
4109 1 59.6408 6.63592 7.5 6.03194 -132002 -153741 -51540.9 -9250.71 -22673.4 19273.5 -7.41641 
4110 1 60.3347 5.39931 7.5 6.03194 -143528 -155970 12066.1 7787.18 35167.8 26899.5 -7.4202 
4111 1 59.6107 4.18011 7.5 6.03194 -133766 -154656 -39354.2 -8858.39 -26272.6 21135 -7.41713 
4112 1 60.3045 2.94349 7.5 6.03194 -140881 -155667 -1697.6 8391.3 33858.6 25569.8 -7.41937 
4113 1 59.5805 1.7243 7.5 6.03191 -135852 -155417 -26316.8 -8415.63 -29457.7 22794.2 -7.4179 
4114 1 60.2744 0.48768 7.5 6.03191 -138388 -155353 -15368.4 8883.08 31761 24052.4 -7.41856 
4248 1 62.5067 9.05691 7.5 6.03194 -147545 -154836 25629.4 7919.19 34743.1 33272.6 -7.42101 
4249 1 61.7827 7.83771 7.5 6.03194 -131122 -152790 -58991 -11179.8 -18869.5 21358.9 -7.41597 
4250 1 62.4766 6.60109 7.5 6.03194 -144848 -154783 12817.4 8701.76 34565.7 32095 -7.42024 
4251 1 61.7526 5.38189 7.5 6.03194 -132712 -153638 -48019.3 -10767.2 -22764.7 23675.5 -7.41661 
4252 1 62.4464 4.14528 7.5 6.03194 -142153 -154639 -296.291 9431.95 33476 30679.2 -7.41946 
4253 1 61.7224 2.92608 7.5 6.03194 -134662 -154333 -36056.6 -10286.9 -26331.2 25770 -7.41732 
4254 1 62.4162 1.68946 7.5 6.03191 -139540 -154394 -13418.2 10106.9 31554.8 29036.9 -7.41867 
4255 1 61.6922 0.470262 7.5 6.03191 -136936 -154999 -23321.5 -9687.23 -29415.2 27630.8 -7.41808 
4389 1 63.9246 9.03949 7.5 6.03194 -130338 -151898 -65683.9 -12918.7 -14583.2 22662.1 -7.41557 
4390 1 64.6185 7.80287 7.5 6.03194 -146173 -153316 12065.2 9359.24 33805.5 36796.2 -7.4202 
4391 1 63.8944 6.58367 7.5 6.03194 -131733 -152652 -56116 -12513.9 -18744.2 25409.7 -7.41613 
4392 1 64.5883 5.34706 7.5 6.03194 -143453 -153334 -291.151 10211.3 32921.7 35351.2 -7.41946 
4393 1 63.8643 4.12786 7.5 6.03194 -133521 -153259 -45424 -12022.2 -22667 27923.8 -7.41677 
4394 1 64.5581 2.89124 7.5 6.03194 -140774 -153262 -12752.6 11001.6 31170.2 33644.5 -7.41871 
4395 1 63.8341 1.67204 7.5 6.03191 -135644 -153734 -33808.1 -11456.4 -26194.1 30187.3 -7.41746 
4396 1 64.528 0.435428 7.5 6.03191 -138249 -153200 -25034.1 11661.8 28648.7 31689.5 -7.41798 
4530 1 66.7603 9.00465 7.5 6.03194 -147488 -151584 9831.33 9753.6 32941.5 40897.5 -7.42007 
4531 1 66.0363 7.78546 7.5 6.03194 -130850 -151747 -63402.5 -14046.7 -14248.5 26356.2 -7.4157 
4532 1 66.7302 6.54884 7.5 6.03194 -144767 -151766 -1682.9 10720.4 32249.3 39478.9 -7.41937 
4533 1 66.0062 5.32964 7.5 6.03194 -132454 -152243 -54160.6 -13571.1 -18493.4 29262.2 -7.41625 
4534 1 66.7 4.09302 7.5 6.03194 -142042 -151877 -13393.4 11619.7 30660.6 37767.3 -7.41867 
4535 1 65.976 2.87383 7.5 6.03194 -134432 -152605 -43851.3 -13003.8 -22435.2 31908.5 -7.41686 
4536 1 66.6698 1.63721 7.5 6.03191 -139396 -151908 -25011.4 12447.7 28258.8 35775.5 -7.41798 
4537 1 65.9458 0.418011 7.5 6.03191 -136746 -152961 -32686.1 -12294.7 -25914.6 34277.7 -7.41752 
4671 1 68.1782 8.98724 7.5 6.03194 -130084 -150967 -69667.2 -15320.6 -9327.98 26556.5 -7.41533 
4672 1 68.8721 7.75062 7.5 6.03194 -146084 -149948 -4429.73 10956.3 31512.9 42966.2 -7.41921 
4673 1 68.148 6.53142 7.5 6.03194 -131479 -151331 -62033.3 -14885.8 -13852.3 29816.8 -7.41578 
4674 1 68.8419 5.29481 7.5 6.03194 -143335 -150243 -15321.2 11957.4 30079.2 41308 -7.41856 
4675 1 68.1179 4.07561 7.5 6.03194 -133285 -151567 -53199.9 -14342.5 -18171.4 32815.6 -7.4163 
4676 1 68.8117 2.83899 7.5 6.03194 -140626 -150469 -26203.9 12883.2 27795.4 39341.1 -7.41791 
4677 1 68.0877 1.61979 7.5 6.03191 -135438 -151690 -43356.5 -13702.6 -22121.9 35529.7 -7.41689 
4678 1 68.7816 0.383177 7.5 6.03191 -138072 -150724 -36798.4 13663.1 24762.8 37079.2 -7.41728 
4812 1 71.0139 8.9524 7.5 6.03194 -147385 -147897 -8447.72 10921 30766.2 45724.3 -7.41897 
4813 1 70.2899 7.7332 7.5 6.03194 -130619 -150559 -68840.4 -15926.1 -8796.8 29636.5 -7.41537 
4814 1 70.9838 6.49659 7.5 6.03194 -144641 -148372 -18475.5 12013.7 29479.8 44176.2 -7.41837 
4815 1 70.2598 5.27739 7.5 6.03194 -132226 -150653 -61630.4 -15430.1 -13447.6 32948.9 -7.4158 
4816 1 70.9536 4.04077 7.5 6.03194 -141888 -148800 -28572.8 13028.6 27312.2 42294.9 -7.41777 
4817 1 70.2296 2.82157 7.5 6.03194 -134224 -150629 -53268.2 -14822.4 -17830 35975.7 -7.4163 
4818 1 70.9234 1.58496 7.5 6.03191 -139216 -149167 -38457.2 13958.4 24351.1 40092.1 -7.41718 
4819 1 70.1994 0.36576 7.5 6.03191 -136569 -150618 -43955.2 -14052.9 -21778.9 38693 -7.41685 
4953 1 72.4318 8.93499 7.5 6.03194 -129894 -149957 -74415.6 -16658.7 -3390.26 28781.7 -7.41504 
4955 1 72.4016 6.47917 7.5 6.03194 -131278 -149894 -68951 -16230.6 -8319.14 32360.9 -7.41537 
4957 1 72.3715 4.02336 7.5 6.03194 -133088 -149717 -62207.2 -15676.5 -13085.9 35660.4 -7.41577 
4959 1 72.3413 1.56754 7.5 6.03191 -135260 -149442 -54359.8 -15008 -17520.6 38649.7 -7.41623 
4954 1 73.1256 7.69837 7.5 6.03194 -145944 -146279 -22754.7 11794.3 28914.8 46285.9 -7.41812 
4956 1 73.0955 5.24255 7.5 6.03194 -143173 -146903 -32039 12887.1 26862.3 44548.6 -7.41757 
4958 1 73.0653 2.78674 7.5 6.03194 -140440 -147479 -41182.4 13895.1 23975.5 42467.3 -7.41702 
4960 1 73.0351 0.330925 7.5 6.03191 -137866 -148104 -49911.7 14744.8 20362.5 40054.5 -7.4165 
5094 1 75.2675 8.90015 7.5 6.03194 -147227 -143984 -28016.7 11313.3 28432.4 47555.4 -7.41781 
5095 1 74.5435 7.68095 7.5 6.03194 -130461 -149314 -75004.7 -16714.8 -2851.19 31111.8 -7.41501 
5096 1 75.2374 6.44434 7.5 6.03194 -144465 -144793 -36483.2 12468.3 26496 46015.8 -7.4173 
5097 1 74.5133 5.22514 7.5 6.03194 -132056 -148974 -69991.2 -16233 -7946.52 34636.4 -7.41531 
5098 1 75.2072 3.98852 7.5 6.03194 -141692 -145580 -44876 13541.2 23688.5 44115.1 -7.41681 
5099 1 74.4832 2.76932 7.5 6.03194 -134058 -148528 -63736.9 -15624.6 -12818.7 37856.8 -7.41568 
5100 1 75.177 1.53271 7.5 6.03191 -139003 -146326 -52919 14521.1 20105.1 41862 -7.41633 
5101 1 74.453 0.313508 7.5 6.03191 -136419 -148108 -56429.6 -14839.5 -17294.4 40742.4 -7.41612 
5235 1 76.6854 8.88273 7.5 6.03194 -129792 -148929 -79671.9 -16860.5 2881.32 29267.4 -7.41474 
5236 1 77.3792 7.64612 7.5 6.03194 -145750 -142492 -41746.1 11790.7 26256.7 46614.2 -7.417 
5237 1 76.6552 6.42692 7.5 6.03194 -131151 -148417 -76472.1 -16466.4 -2478.59 32961.1 -7.41493 
5238 1 77.3491 5.1903 7.5 6.03194 -142963 -143476 -49400 12911.1 23537.5 44946.7 -7.41654 
5239 1 76.6251 3.9711 7.5 6.03194 -132948 -147800 -71912.9 -15935.6 -7731.08 36363.9 -7.4152 
5240 1 77.3189 2.73449 7.5 6.03194 -140216 -144434 -56766.1 13944.8 19994.2 42912.2 -7.4161 
5241 1 76.5949 1.51529 7.5 6.03191 -135121 -147097 -66152.3 -15277.8 -12697.6 39437.9 -7.41554 
5242 1 77.2887 0.278674 7.5 6.03191 -137636 -145460 -63578.7 14814.4 15745.8 40519.8 -7.4157 
5376 1 79.5211 8.8479 7.5 6.03194 -147017 -140030 -47630.4 10881.7 26176.1 46271.8 -7.41665 
5377 1 78.7971 7.6287 7.5 6.03194 -130388 -148060 -81538.1 -16358.5 3240.25 30697.5 -7.41463 
5378 1 79.491 6.39209 7.5 6.03194 -144240 -141191 -54576.9 12028.6 23560 44879.3 -7.41624 
5379 1 78.7669 5.17289 7.5 6.03194 -131956 -147267 -78747.5 -15918.3 -2326.03 34224.8 -7.4148 
5380 1 79.4608 3.93627 7.5 6.03194 -141454 -142353 -61294.9 13096.1 20073.5 43113.5 -7.41584 
5381 1 78.7368 2.71707 7.5 6.03194 -133943 -146379 -74626.4 -15343.6 -7725.2 37437.4 -7.41504 
5382 1 79.4306 1.48046 7.5 6.03191 -138760 -143499 -67514.6 14071.4 15823.3 40978 -7.41547 
5383 1 78.7066 0.261257 7.5 6.03191 -136301 -145529 -69345.8 -14583.6 -12772.6 40298.6 -7.41536 
5517 1 80.939 8.83048 7.5 6.03194 -129783 -147908 -85116.1 -15899.3 9120.17 27918.5 -7.41442 
5518 1 81.6328 7.59387 7.5 6.03194 -145511 -138762 -60193 10925.9 23778.7 43844.4 -7.41591 
5519 1 80.9088 6.37467 7.5 6.03194 -131101 -146939 -84136.3 -15558.9 3315.96 31501.2 -7.41448 
5520 1 81.6027 5.13805 7.5 6.03194 -142711 -140105 -66309.2 12004.4 20373.9 42384.3 -7.41555 
5521 1 80.8787 3.91885 7.5 6.03194 -132868 -145872 -81718.4 -15078.8 -2447.07 34792.4 -7.41463 
5522 1 81.5725 2.68224 7.5 6.03194 -139959 -141451 -71982.8 13001.8 16146.5 40552.6 -7.41521 
5523 1 80.8485 1.46304 7.5 6.03191 -135024 -144728 -78000.5 -14469.4 -7978.77 37748 -7.41485 
5524 1 81.5423 0.226423 7.5 6.03191 -137385 -142887 -76954.7 13838 11231.2 38353.7 -7.41492 
5658 1 83.7747 8.79565 7.5 6.03194 -146769 -136240 -66003.9 9645.62 24196.7 41799.1 -7.41557 
5659 1 83.0507 7.57645 7.5 6.03194 -130396 -146822 -88013.2 -14851.3 9100.51 28268.2 -7.41426 
5660 1 83.7446 6.33983 7.5 6.03194 -143976 -137734 -71578.6 10707.3 20908.1 40663.5 -7.41524 
5661 1 83.0205 5.12063 7.5 6.03194 -131922 -145578 -87330.8 -14474 3053.46 31565.8 -7.4143 
5662 1 83.7144 3.88402 7.5 6.03194 -141183 -139261 -76767.4 11700.8 16738.8 39166.6 -7.41493 
5663 1 82.9904 2.66482 7.5 6.03194 -133877 -144245 -85230.4 -13965.5 -2891.39 34553.9 -7.41443 
5664 1 83.6842 1.4282 7.5 6.03191 -138493 -140797 -81305.1 12609.5 11811.2 37306.2 -7.41466 
5665 1 82.9602 0.209005 7.5 6.03191 -136217 -142966 -81863.8 -13274.4 -8534.29 37192.1 -7.41463 
5799 1 85.1926 8.77823 7.5 6.03194 -129851 -146914 -90355 -13798.5 14918.7 24620.4 -7.41412 
5800 1 85.8864 7.54162 7.5 6.03194 -145243 -135298 -76846.2 9252.34 21666.1 37923.1 -7.41493 