(written by TR)

13256	atoms
2	atom types
0	99.9745849	xlo xhi
0	173.16106	ylo yhi
0	18.4	zlo zhi


Masses

1	12
2	12

Atoms

1 1 1 0 0.69384901 171.92444741 7.50000000 0 0 0
2 1 1 0 0.66368166 169.46863270 7.50000000 0 0 0
3 1 1 0 0.63351431 167.01281798 7.50000000 0 0 0
4 1 1 0 0.60334697 164.55700326 7.50000000 0 0 0
5 1 1 0 0.57317962 162.10118854 7.50000000 0 0 0
6 1 1 0 0.54301227 159.64537382 7.50000000 0 0 0
7 1 1 0 0.51284492 157.18955910 7.50000000 0 0 0
8 1 1 0 0.48267758 154.73374439 7.50000000 0 0 0
9 1 1 0 0.45251023 152.27792967 7.50000000 0 0 0
10 1 1 0 0.42234288 149.82211495 7.50000000 0 0 0
11 1 1 0 0.39217554 147.36630023 7.50000000 0 0 0
12 1 1 0 0.36200819 144.91048551 7.50000000 0 0 0
13 1 1 0 0.33184084 142.45467079 7.50000000 0 0 0
14 1 1 0 0.30167349 139.99885608 7.50000000 0 0 0
15 1 1 0 0.27150615 137.54304136 7.50000000 0 0 0
16 1 1 0 0.24133880 135.08722664 7.50000000 0 0 0
17 1 1 0 0.21117145 132.63141192 7.50000000 0 0 0
18 1 1 0 0.18100411 130.17559720 7.50000000 0 0 0
19 1 1 0 0.15083676 127.71978248 7.50000000 0 0 0
20 1 1 0 0.12066941 125.26396776 7.50000000 0 0 0
21 1 1 0 0.09050207 122.80815305 7.50000000 0 0 0
22 1 1 0 0.06033472 120.35233833 7.50000000 0 0 0
23 1 1 0 0.03016737 117.89652361 7.50000000 0 0 0
24 1 1 0 0.00000002 115.44070889 7.50000000 0 0 0
25 1 1 0 2.83573061 173.12622909 7.50000000 0 0 0
26 1 1 0 2.11171430 171.90703029 7.50000000 0 0 0
27 1 1 0 2.80556327 170.67041437 7.50000000 0 0 0
28 1 1 0 2.08154695 169.45121557 7.50000000 0 0 0
29 1 1 0 2.77539592 168.21459965 7.50000000 0 0 0
30 1 1 0 2.05137960 166.99540085 7.50000000 0 0 0
31 1 1 0 2.74522857 165.75878493 7.50000000 0 0 0
32 1 1 0 2.02121225 164.53958613 7.50000000 0 0 0
33 1 1 0 2.71506122 163.30297021 7.50000000 0 0 0
34 1 1 0 1.99104491 162.08377142 7.50000000 0 0 0
35 1 1 0 2.68489388 160.84715549 7.50000000 0 0 0
36 1 1 0 1.96087756 159.62795670 7.50000000 0 0 0
37 1 1 0 2.65472653 158.39134077 7.50000000 0 0 0
38 1 1 0 1.93071021 157.17214198 7.50000000 0 0 0
39 1 1 0 2.62455918 155.93552606 7.50000000 0 0 0
40 1 1 0 1.90054287 154.71632726 7.50000000 0 0 0
41 1 1 0 2.59439184 153.47971134 7.50000000 0 0 0
42 1 1 0 1.87037552 152.26051254 7.50000000 0 0 0
43 1 1 0 2.56422449 151.02389662 7.50000000 0 0 0
44 1 1 0 1.84020817 149.80469782 7.50000000 0 0 0
45 1 1 0 2.53405714 148.56808190 7.50000000 0 0 0
46 1 1 0 1.81004082 147.34888310 7.50000000 0 0 0
47 1 1 0 2.50388980 146.11226718 7.50000000 0 0 0
48 1 1 0 1.77987348 144.89306839 7.50000000 0 0 0
49 1 1 0 2.47372245 143.65645246 7.50000000 0 0 0
50 1 1 0 1.74970613 142.43725367 7.50000000 0 0 0
51 1 1 0 2.44355510 141.20063775 7.50000000 0 0 0
52 1 1 0 1.71953878 139.98143895 7.50000000 0 0 0
53 1 1 0 2.41338775 138.74482303 7.50000000 0 0 0
54 1 1 0 1.68937144 137.52562423 7.50000000 0 0 0
55 1 1 0 2.38322041 136.28900831 7.50000000 0 0 0
56 1 1 0 1.65920409 135.06980951 7.50000000 0 0 0
57 1 1 0 2.35305306 133.83319359 7.50000000 0 0 0
58 1 1 0 1.62903674 132.61399479 7.50000000 0 0 0
59 1 1 0 2.32288571 131.37737887 7.50000000 0 0 0
60 1 1 0 1.59886940 130.15818008 7.50000000 0 0 0
61 1 1 0 2.29271837 128.92156415 7.50000000 0 0 0
62 1 1 0 1.56870205 127.70236536 7.50000000 0 0 0
63 1 1 0 2.26255102 126.46574944 7.50000000 0 0 0
64 1 1 0 1.53853470 125.24655064 7.50000000 0 0 0
65 1 1 0 2.23238367 124.00993472 7.50000000 0 0 0
66 1 1 0 1.50836735 122.79073592 7.50000000 0 0 0
67 1 1 0 2.20221632 121.55412000 7.50000000 0 0 0
68 1 1 0 1.47820001 120.33492120 7.50000000 0 0 0
69 1 1 0 2.17204898 119.09830528 7.50000000 0 0 0
70 1 1 0 1.44803266 117.87910648 7.50000000 0 0 0
71 1 1 0 2.14188163 116.64249056 7.50000000 0 0 0
72 1 1 0 1.41786531 115.42329177 7.50000000 0 0 0
73 1 1 0 2.11171428 114.18667584 7.50000000 0 0 0
74 1 1 0 1.38769797 112.96747705 7.50000000 0 0 0
75 1 1 0 2.08154694 111.73086112 7.50000000 0 0 0
76 1 1 0 1.35753062 110.51166233 7.50000000 0 0 0
77 1 1 0 2.05137959 109.27504641 7.50000000 0 0 0
78 1 1 0 1.32736327 108.05584761 7.50000000 0 0 0
79 1 1 0 2.02121224 106.81923169 7.50000000 0 0 0
80 1 1 0 1.29719592 105.60003289 7.50000000 0 0 0
81 1 1 0 1.99104490 104.36341697 7.50000000 0 0 0
82 1 1 0 1.26702858 103.14421817 7.50000000 0 0 0
83 1 1 0 1.96087755 101.90760225 7.50000000 0 0 0
84 1 1 0 1.23686123 100.68840345 7.50000000 0 0 0
85 1 1 0 1.93071020 99.45178753 7.50000000 0 0 0
86 1 1 0 1.20669388 98.23258874 7.50000000 0 0 0
87 1 1 0 1.90054285 96.99597281 7.50000000 0 0 0
88 1 1 0 1.17652654 95.77677402 7.50000000 0 0 0
89 1 1 0 1.87037551 94.54015810 7.50000000 0 0 0
90 1 1 0 1.14635919 93.32095930 7.50000000 0 0 0
91 1 1 0 1.84020816 92.08434338 7.50000000 0 0 0
92 1 1 0 1.11619184 90.86514458 7.50000000 0 0 0
93 1 1 0 1.81004081 89.62852866 7.50000000 0 0 0
94 1 1 0 1.08602449 88.40932986 7.50000000 0 0 0
95 1 1 0 1.77987347 87.17271394 7.50000000 0 0 0
96 1 1 0 1.05585715 85.95351514 7.50000000 0 0 0
97 1 1 0 1.74970612 84.71689922 7.50000000 0 0 0
98 1 1 0 1.02568980 83.49770043 7.50000000 0 0 0
99 1 1 0 1.71953877 82.26108450 7.50000000 0 0 0
100 1 1 0 0.99552245 81.04188571 7.50000000 0 0 0
101 1 1 0 1.68937142 79.80526979 7.50000000 0 0 0
102 1 1 0 0.96535511 78.58607099 7.50000000 0 0 0
103 1 1 0 1.65920408 77.34945507 7.50000000 0 0 0
104 1 1 0 0.93518776 76.13025627 7.50000000 0 0 0
105 1 1 0 1.62903673 74.89364035 7.50000000 0 0 0
106 1 1 0 0.90502041 73.67444155 7.50000000 0 0 0
107 1 1 0 1.59886938 72.43782563 7.50000000 0 0 0
108 1 1 0 0.87485307 71.21862683 7.50000000 0 0 0
109 1 1 0 1.56870204 69.98201091 7.50000000 0 0 0
110 1 1 0 0.84468572 68.76281212 7.50000000 0 0 0
111 1 1 0 1.53853469 67.52619619 7.50000000 0 0 0
112 1 1 0 0.81451837 66.30699740 7.50000000 0 0 0
113 1 1 0 1.50836734 65.07038147 7.50000000 0 0 0
114 1 1 0 0.78435102 63.85118268 7.50000000 0 0 0
115 1 1 0 1.47819999 62.61456676 7.50000000 0 0 0
116 1 1 0 0.75418368 61.39536796 7.50000000 0 0 0
117 1 1 0 1.44803265 60.15875204 7.50000000 0 0 0
118 1 1 0 0.72401633 58.93955324 7.50000000 0 0 0
119 1 1 0 1.41786530 57.70293732 7.50000000 0 0 0
120 1 1 0 0.69384898 56.48373852 7.50000000 0 0 0
121 1 1 0 1.38769795 55.24712260 7.50000000 0 0 0
122 1 1 0 0.66368164 54.02792381 7.50000000 0 0 0
123 1 1 0 1.35753061 52.79130788 7.50000000 0 0 0
124 1 1 0 0.63351429 51.57210909 7.50000000 0 0 0
125 1 1 0 1.32736326 50.33549316 7.50000000 0 0 0
126 1 1 0 0.60334694 49.11629437 7.50000000 0 0 0
127 1 1 0 1.29719591 47.87967845 7.50000000 0 0 0
128 1 1 0 0.57317959 46.66047965 7.50000000 0 0 0
129 1 1 0 1.26702857 45.42386373 7.50000000 0 0 0
130 1 1 0 0.54301225 44.20466493 7.50000000 0 0 0
131 1 1 0 1.23686122 42.96804901 7.50000000 0 0 0
132 1 1 0 0.51284490 41.74885021 7.50000000 0 0 0
133 1 1 0 1.20669387 40.51223429 7.50000000 0 0 0
134 1 1 0 0.48267755 39.29303549 7.50000000 0 0 0
135 1 1 0 1.17652652 38.05641957 7.50000000 0 0 0
136 1 1 0 0.45251021 36.83722078 7.50000000 0 0 0
137 1 1 0 1.14635918 35.60060485 7.50000000 0 0 0
138 1 1 0 0.42234286 34.38140606 7.50000000 0 0 0
139 1 1 0 1.11619183 33.14479014 7.50000000 0 0 0
140 1 1 0 0.39217551 31.92559134 7.50000000 0 0 0
141 1 1 0 1.08602448 30.68897542 7.50000000 0 0 0
142 1 1 0 0.36200816 29.46977662 7.50000000 0 0 0
143 1 1 0 1.05585714 28.23316070 7.50000000 0 0 0
144 1 1 0 0.33184082 27.01396190 7.50000000 0 0 0
145 1 1 0 1.02568979 25.77734598 7.50000000 0 0 0
146 1 1 0 0.30167347 24.55814718 7.50000000 0 0 0
147 1 1 0 0.99552244 23.32153126 7.50000000 0 0 0
148 1 1 0 0.27150612 22.10233247 7.50000000 0 0 0
149 1 1 0 0.96535509 20.86571654 7.50000000 0 0 0
150 1 1 0 0.24133878 19.64651775 7.50000000 0 0 0
151 1 1 0 0.93518775 18.40990183 7.50000000 0 0 0
152 1 1 0 0.21117143 17.19070303 7.50000000 0 0 0
153 1 1 0 0.90502040 15.95408711 7.50000000 0 0 0
154 1 1 0 0.18100408 14.73488831 7.50000000 0 0 0
155 1 1 0 0.87485305 13.49827239 7.50000000 0 0 0
156 1 1 0 0.15083674 12.27907359 7.50000000 0 0 0
157 1 1 0 0.84468571 11.04245767 7.50000000 0 0 0
158 1 1 0 0.12066939 9.82325887 7.50000000 0 0 0
159 1 1 0 0.81451836 8.58664295 7.50000000 0 0 0
160 1 1 0 0.09050204 7.36744416 7.50000000 0 0 0
161 1 1 0 0.78435101 6.13082823 7.50000000 0 0 0
162 1 1 0 0.06033469 4.91162944 7.50000000 0 0 0
163 1 1 0 0.75418366 3.67501351 7.50000000 0 0 0
164 1 1 0 0.03016735 2.45581472 7.50000000 0 0 0
165 1 1 0 0.72401632 1.21919880 7.50000000 0 0 0
166 1 1 0 0.00000000 0.00000000 7.50000000 0 0 0
167 1 1 0 4.25359590 173.10881196 7.50000000 0 0 0
168 1 1 0 4.94744487 171.87219604 7.50000000 0 0 0
169 1 1 0 4.22342855 170.65299724 7.50000000 0 0 0
170 1 1 0 4.91727753 169.41638132 7.50000000 0 0 0
171 1 1 0 4.19326121 168.19718252 7.50000000 0 0 0
172 1 1 0 4.88711018 166.96056660 7.50000000 0 0 0
173 1 1 0 4.16309386 165.74136780 7.50000000 0 0 0
174 1 1 0 4.85694283 164.50475188 7.50000000 0 0 0
175 1 1 0 4.13292651 163.28555309 7.50000000 0 0 0
176 1 1 0 4.82677548 162.04893716 7.50000000 0 0 0
177 1 1 0 4.10275917 160.82973837 7.50000000 0 0 0
178 1 1 0 4.79660814 159.59312244 7.50000000 0 0 0
179 1 1 0 4.07259182 158.37392365 7.50000000 0 0 0
180 1 1 0 4.76644079 157.13730773 7.50000000 0 0 0
181 1 1 0 4.04242447 155.91810893 7.50000000 0 0 0
182 1 1 0 4.73627344 154.68149301 7.50000000 0 0 0
183 1 1 0 4.01225713 153.46229421 7.50000000 0 0 0
184 1 1 0 4.70610610 152.22567829 7.50000000 0 0 0
185 1 1 0 3.98208978 151.00647949 7.50000000 0 0 0
186 1 1 0 4.67593875 149.76986357 7.50000000 0 0 0
187 1 1 0 3.95192243 148.55066478 7.50000000 0 0 0
188 1 1 0 4.64577140 147.31404885 7.50000000 0 0 0
189 1 1 0 3.92175508 146.09485006 7.50000000 0 0 0
190 1 1 0 4.61560406 144.85823413 7.50000000 0 0 0
191 1 1 0 3.89158774 143.63903534 7.50000000 0 0 0
192 1 1 0 4.58543671 142.40241942 7.50000000 0 0 0
193 1 1 0 3.86142039 141.18322062 7.50000000 0 0 0
194 1 1 0 4.55526936 139.94660470 7.50000000 0 0 0
195 1 1 0 3.83125304 138.72740590 7.50000000 0 0 0
196 1 1 0 4.52510201 137.49078998 7.50000000 0 0 0
197 1 1 0 3.80108570 136.27159118 7.50000000 0 0 0
198 1 1 0 4.49493467 135.03497526 7.50000000 0 0 0
199 1 1 0 3.77091835 133.81577646 7.50000000 0 0 0
200 1 1 0 4.46476732 132.57916054 7.50000000 0 0 0
201 1 1 0 3.74075100 131.35996175 7.50000000 0 0 0
202 1 1 0 4.43459997 130.12334582 7.50000000 0 0 0
203 1 1 0 3.71058365 128.90414703 7.50000000 0 0 0
204 1 1 0 4.40443263 127.66753111 7.50000000 0 0 0
205 1 1 0 3.68041631 126.44833231 7.50000000 0 0 0
206 1 1 0 4.37426528 125.21171639 7.50000000 0 0 0
207 1 1 0 3.65024896 123.99251759 7.50000000 0 0 0
208 1 1 0 4.34409793 122.75590167 7.50000000 0 0 0
209 1 1 0 3.62008161 121.53670287 7.50000000 0 0 0
210 1 1 0 4.31393058 120.30008695 7.50000000 0 0 0
211 1 1 0 3.58991427 119.08088815 7.50000000 0 0 0
212 1 1 0 4.28376324 117.84427223 7.50000000 0 0 0
213 1 1 0 3.55974692 116.62507344 7.50000000 0 0 0
214 1 1 0 4.25359589 115.38845751 7.50000000 0 0 0
215 1 1 0 3.52957957 114.16925872 7.50000000 0 0 0
216 1 1 0 4.22342854 112.93264280 7.50000000 0 0 0
217 1 1 0 3.49941223 111.71344400 7.50000000 0 0 0
218 1 1 0 4.19326120 110.47682808 7.50000000 0 0 0
219 1 1 0 3.46924488 109.25762928 7.50000000 0 0 0
220 1 1 0 4.16309385 108.02101336 7.50000000 0 0 0
221 1 1 0 3.43907753 106.80181456 7.50000000 0 0 0
222 1 1 0 4.13292650 105.56519864 7.50000000 0 0 0
223 1 1 0 3.40891018 104.34599984 7.50000000 0 0 0
224 1 1 0 4.10275915 103.10938392 7.50000000 0 0 0
225 1 1 0 3.37874284 101.89018513 7.50000000 0 0 0
226 1 1 0 4.07259181 100.65356920 7.50000000 0 0 0
227 1 1 0 3.34857549 99.43437041 7.50000000 0 0 0
228 1 1 0 4.04242446 98.19775448 7.50000000 0 0 0
229 1 1 0 3.31840814 96.97855569 7.50000000 0 0 0
230 1 1 0 4.01225711 95.74193977 7.50000000 0 0 0
231 1 1 0 3.28824080 94.52274097 7.50000000 0 0 0
232 1 1 0 3.98208977 93.28612505 7.50000000 0 0 0
233 1 1 0 3.25807345 92.06692625 7.50000000 0 0 0
234 1 1 0 3.95192242 90.83031033 7.50000000 0 0 0
235 1 1 0 3.22790610 89.61111153 7.50000000 0 0 0
236 1 1 0 3.92175507 88.37449561 7.50000000 0 0 0
237 1 1 0 3.19773875 87.15529681 7.50000000 0 0 0
238 1 1 0 3.89158773 85.91868089 7.50000000 0 0 0
239 1 1 0 3.16757141 84.69948210 7.50000000 0 0 0
240 1 1 0 3.86142038 83.46286617 7.50000000 0 0 0
241 1 1 0 3.13740406 82.24366738 7.50000000 0 0 0
242 1 1 0 3.83125303 81.00705146 7.50000000 0 0 0
243 1 1 0 3.10723671 79.78785266 7.50000000 0 0 0
244 1 1 0 3.80108568 78.55123674 7.50000000 0 0 0
245 1 1 0 3.07706937 77.33203794 7.50000000 0 0 0
246 1 1 0 3.77091834 76.09542202 7.50000000 0 0 0
247 1 1 0 3.04690202 74.87622322 7.50000000 0 0 0
248 1 1 0 3.74075099 73.63960730 7.50000000 0 0 0
249 1 1 0 3.01673467 72.42040850 7.50000000 0 0 0
250 1 1 0 3.71058364 71.18379258 7.50000000 0 0 0
251 1 1 0 2.98656732 69.96459379 7.50000000 0 0 0
252 1 1 0 3.68041630 68.72797786 7.50000000 0 0 0
253 1 1 0 2.95639998 67.50877907 7.50000000 0 0 0
254 1 1 0 3.65024895 66.27216315 7.50000000 0 0 0
255 1 1 0 2.92623263 65.05296435 7.50000000 0 0 0
256 1 1 0 3.62008160 63.81634843 7.50000000 0 0 0
257 1 1 0 2.89606528 62.59714963 7.50000000 0 0 0
258 1 1 0 3.58991425 61.36053371 7.50000000 0 0 0
259 1 1 0 2.86589794 60.14133491 7.50000000 0 0 0
260 1 1 0 3.55974691 58.90471899 7.50000000 0 0 0
261 1 1 0 2.83573059 57.68552019 7.50000000 0 0 0
262 1 1 0 3.52957956 56.44890427 7.50000000 0 0 0
263 1 1 0 2.80556324 55.22970548 7.50000000 0 0 0
264 1 1 0 3.49941221 53.99308955 7.50000000 0 0 0
265 1 1 0 2.77539590 52.77389076 7.50000000 0 0 0
266 1 1 0 3.46924487 51.53727483 7.50000000 0 0 0
267 1 1 0 2.74522855 50.31807604 7.50000000 0 0 0
268 1 1 0 3.43907752 49.08146012 7.50000000 0 0 0
269 1 1 0 2.71506120 47.86226132 7.50000000 0 0 0
270 1 1 0 3.40891017 46.62564540 7.50000000 0 0 0
271 1 1 0 2.68489385 45.40644660 7.50000000 0 0 0
272 1 1 0 3.37874282 44.16983068 7.50000000 0 0 0
273 1 1 0 2.65472651 42.95063188 7.50000000 0 0 0
274 1 1 0 3.34857548 41.71401596 7.50000000 0 0 0
275 1 1 0 2.62455916 40.49481716 7.50000000 0 0 0
276 1 1 0 3.31840813 39.25820124 7.50000000 0 0 0
277 1 1 0 2.59439181 38.03900245 7.50000000 0 0 0
278 1 1 0 3.28824078 36.80238652 7.50000000 0 0 0
279 1 1 0 2.56422447 35.58318773 7.50000000 0 0 0
280 1 1 0 3.25807344 34.34657181 7.50000000 0 0 0
281 1 1 0 2.53405712 33.12737301 7.50000000 0 0 0
282 1 1 0 3.22790609 31.89075709 7.50000000 0 0 0
283 1 1 0 2.50388977 30.67155829 7.50000000 0 0 0
284 1 1 0 3.19773874 29.43494237 7.50000000 0 0 0
285 1 1 0 2.47372242 28.21574357 7.50000000 0 0 0
286 1 1 0 3.16757140 26.97912765 7.50000000 0 0 0
287 1 1 0 2.44355508 25.75992885 7.50000000 0 0 0
288 1 1 0 3.13740405 24.52331293 7.50000000 0 0 0
289 1 1 0 2.41338773 23.30411414 7.50000000 0 0 0
290 1 1 0 3.10723670 22.06749821 7.50000000 0 0 0
291 1 1 0 2.38322038 20.84829942 7.50000000 0 0 0
292 1 1 0 3.07706935 19.61168350 7.50000000 0 0 0
293 1 1 0 2.35305304 18.39248470 7.50000000 0 0 0
294 1 1 0 3.04690201 17.15586878 7.50000000 0 0 0
295 1 1 0 2.32288569 15.93666998 7.50000000 0 0 0
296 1 1 0 3.01673466 14.70005406 7.50000000 0 0 0
297 1 1 0 2.29271834 13.48085526 7.50000000 0 0 0
298 1 1 0 2.98656731 12.24423934 7.50000000 0 0 0
299 1 1 0 2.26255099 11.02504054 7.50000000 0 0 0
300 1 1 0 2.95639997 9.78842462 7.50000000 0 0 0
301 1 1 0 2.23238365 8.56922583 7.50000000 0 0 0
302 1 1 0 2.92623262 7.33260990 7.50000000 0 0 0
303 1 1 0 2.20221630 6.11341111 7.50000000 0 0 0
304 1 1 0 2.89606527 4.87679518 7.50000000 0 0 0
305 1 1 0 2.17204895 3.65759639 7.50000000 0 0 0
306 1 1 0 2.86589792 2.42098047 7.50000000 0 0 0
307 1 1 0 2.14188161 1.20178167 7.50000000 0 0 0
308 1 1 0 7.08932648 173.07397771 7.50000000 0 0 0
309 1 1 0 6.36531016 171.85477891 7.50000000 0 0 0
310 1 1 0 7.05915913 170.61816299 7.50000000 0 0 0
311 1 1 0 6.33514281 169.39896419 7.50000000 0 0 0
312 1 1 0 7.02899179 168.16234827 7.50000000 0 0 0
313 1 1 0 6.30497547 166.94314947 7.50000000 0 0 0
314 1 1 0 6.99882444 165.70653355 7.50000000 0 0 0
315 1 1 0 6.27480812 164.48733476 7.50000000 0 0 0
316 1 1 0 6.96865709 163.25071883 7.50000000 0 0 0
317 1 1 0 6.24464077 162.03152004 7.50000000 0 0 0
318 1 1 0 6.93848974 160.79490412 7.50000000 0 0 0
319 1 1 0 6.21447343 159.57570532 7.50000000 0 0 0
320 1 1 0 6.90832240 158.33908940 7.50000000 0 0 0
321 1 1 0 6.18430608 157.11989060 7.50000000 0 0 0
322 1 1 0 6.87815505 155.88327468 7.50000000 0 0 0
323 1 1 0 6.15413873 154.66407588 7.50000000 0 0 0
324 1 1 0 6.84798770 153.42745996 7.50000000 0 0 0
325 1 1 0 6.12397138 152.20826116 7.50000000 0 0 0
326 1 1 0 6.81782036 150.97164524 7.50000000 0 0 0
327 1 1 0 6.09380404 149.75244645 7.50000000 0 0 0
328 1 1 0 6.78765301 148.51583052 7.50000000 0 0 0
329 1 1 0 6.06363669 147.29663173 7.50000000 0 0 0
330 1 1 0 6.75748566 146.06001580 7.50000000 0 0 0
331 1 1 0 6.03346934 144.84081701 7.50000000 0 0 0
332 1 1 0 6.72731831 143.60420109 7.50000000 0 0 0
333 1 1 0 6.00330200 142.38500229 7.50000000 0 0 0
334 1 1 0 6.69715097 141.14838637 7.50000000 0 0 0
335 1 1 0 5.97313465 139.92918757 7.50000000 0 0 0
336 1 1 0 6.66698362 138.69257165 7.50000000 0 0 0
337 1 1 0 5.94296730 137.47337285 7.50000000 0 0 0
338 1 1 0 6.63681627 136.23675693 7.50000000 0 0 0
339 1 1 0 5.91279996 135.01755813 7.50000000 0 0 0
340 1 1 0 6.60664893 133.78094221 7.50000000 0 0 0
341 1 1 0 5.88263261 132.56174342 7.50000000 0 0 0
342 1 1 0 6.57648158 131.32512749 7.50000000 0 0 0
343 1 1 0 5.85246526 130.10592870 7.50000000 0 0 0
344 1 1 0 6.54631423 128.86931278 7.50000000 0 0 0
345 1 1 0 5.82229791 127.65011398 7.50000000 0 0 0
346 1 1 0 6.51614689 126.41349806 7.50000000 0 0 0
347 1 1 0 5.79213057 125.19429926 7.50000000 0 0 0
348 1 1 0 6.48597954 123.95768334 7.50000000 0 0 0
349 1 1 0 5.76196322 122.73848454 7.50000000 0 0 0
350 1 1 0 6.45581219 121.50186862 7.50000000 0 0 0
351 1 1 0 5.73179587 120.28266982 7.50000000 0 0 0
352 1 1 0 6.42564484 119.04605390 7.50000000 0 0 0
353 1 1 0 5.70162853 117.82685511 7.50000000 0 0 0
354 1 1 0 6.39547750 116.59023918 7.50000000 0 0 0
355 1 1 0 5.67146118 115.37104039 7.50000000 0 0 0
356 1 1 0 6.36531015 114.13442447 7.50000000 0 0 0
357 1 1 0 5.64129383 112.91522567 7.50000000 0 0 0
358 1 1 0 6.33514280 111.67860975 7.50000000 0 0 0
359 1 1 0 5.61112648 110.45941095 7.50000000 0 0 0
360 1 1 0 6.30497546 109.22279503 7.50000000 0 0 0
361 1 1 0 5.58095914 108.00359623 7.50000000 0 0 0
362 1 1 0 6.27480811 106.76698031 7.50000000 0 0 0
363 1 1 0 5.55079179 105.54778151 7.50000000 0 0 0
364 1 1 0 6.24464076 104.31116559 7.50000000 0 0 0
365 1 1 0 5.52062444 103.09196680 7.50000000 0 0 0
366 1 1 0 6.21447341 101.85535087 7.50000000 0 0 0
367 1 1 0 5.49045710 100.63615208 7.50000000 0 0 0
368 1 1 0 6.18430607 99.39953615 7.50000000 0 0 0
369 1 1 0 5.46028975 98.18033736 7.50000000 0 0 0
370 1 1 0 6.15413872 96.94372144 7.50000000 0 0 0
371 1 1 0 5.43012240 95.72452264 7.50000000 0 0 0
372 1 1 0 6.12397137 94.48790672 7.50000000 0 0 0
373 1 1 0 5.39995506 93.26870792 7.50000000 0 0 0
374 1 1 0 6.09380403 92.03209200 7.50000000 0 0 0
375 1 1 0 5.36978771 90.81289320 7.50000000 0 0 0
376 1 1 0 6.06363668 89.57627728 7.50000000 0 0 0
377 1 1 0 5.33962036 88.35707848 7.50000000 0 0 0
378 1 1 0 6.03346933 87.12046256 7.50000000 0 0 0
379 1 1 0 5.30945301 85.90126377 7.50000000 0 0 0
380 1 1 0 6.00330198 84.66464784 7.50000000 0 0 0
381 1 1 0 5.27928567 83.44544905 7.50000000 0 0 0
382 1 1 0 5.97313464 82.20883313 7.50000000 0 0 0
383 1 1 0 5.24911832 80.98963433 7.50000000 0 0 0
384 1 1 0 5.94296729 79.75301841 7.50000000 0 0 0
385 1 1 0 5.21895097 78.53381961 7.50000000 0 0 0
386 1 1 0 5.91279994 77.29720369 7.50000000 0 0 0
387 1 1 0 5.18878363 76.07800489 7.50000000 0 0 0
388 1 1 0 5.88263260 74.84138897 7.50000000 0 0 0
389 1 1 0 5.15861628 73.62219017 7.50000000 0 0 0
390 1 1 0 5.85246525 72.38557425 7.50000000 0 0 0
391 1 1 0 5.12844893 71.16637546 7.50000000 0 0 0
392 1 1 0 5.82229790 69.92975953 7.50000000 0 0 0
393 1 1 0 5.09828158 68.71056074 7.50000000 0 0 0
394 1 1 0 5.79213056 67.47394482 7.50000000 0 0 0
395 1 1 0 5.06811424 66.25474602 7.50000000 0 0 0
396 1 1 0 5.76196321 65.01813010 7.50000000 0 0 0
397 1 1 0 5.03794689 63.79893130 7.50000000 0 0 0
398 1 1 0 5.73179586 62.56231538 7.50000000 0 0 0
399 1 1 0 5.00777954 61.34311658 7.50000000 0 0 0
400 1 1 0 5.70162851 60.10650066 7.50000000 0 0 0
401 1 1 0 4.97761220 58.88730186 7.50000000 0 0 0
402 1 1 0 5.67146117 57.65068594 7.50000000 0 0 0
403 1 1 0 4.94744485 56.43148715 7.50000000 0 0 0
404 1 1 0 5.64129382 55.19487122 7.50000000 0 0 0
405 1 1 0 4.91727750 53.97567243 7.50000000 0 0 0
406 1 1 0 5.61112647 52.73905651 7.50000000 0 0 0
407 1 1 0 4.88711015 51.51985771 7.50000000 0 0 0
408 1 1 0 5.58095913 50.28324179 7.50000000 0 0 0
409 1 1 0 4.85694281 49.06404299 7.50000000 0 0 0
410 1 1 0 5.55079178 47.82742707 7.50000000 0 0 0
411 1 1 0 4.82677546 46.60822827 7.50000000 0 0 0
412 1 1 0 5.52062443 45.37161235 7.50000000 0 0 0
413 1 1 0 4.79660811 44.15241355 7.50000000 0 0 0
414 1 1 0 5.49045708 42.91579763 7.50000000 0 0 0
415 1 1 0 4.76644077 41.69659884 7.50000000 0 0 0
416 1 1 0 5.46028974 40.45998291 7.50000000 0 0 0
417 1 1 0 4.73627342 39.24078412 7.50000000 0 0 0
418 1 1 0 5.43012239 38.00416819 7.50000000 0 0 0
419 1 1 0 4.70610607 36.78496940 7.50000000 0 0 0
420 1 1 0 5.39995504 35.54835348 7.50000000 0 0 0
421 1 1 0 4.67593873 34.32915468 7.50000000 0 0 0
422 1 1 0 5.36978770 33.09253876 7.50000000 0 0 0
423 1 1 0 4.64577138 31.87333996 7.50000000 0 0 0
424 1 1 0 5.33962035 30.63672404 7.50000000 0 0 0
425 1 1 0 4.61560403 29.41752524 7.50000000 0 0 0
426 1 1 0 5.30945300 28.18090932 7.50000000 0 0 0
427 1 1 0 4.58543668 26.96171052 7.50000000 0 0 0
428 1 1 0 5.27928565 25.72509460 7.50000000 0 0 0
429 1 1 0 4.55526934 24.50589581 7.50000000 0 0 0
430 1 1 0 5.24911831 23.26927988 7.50000000 0 0 0
431 1 1 0 4.52510199 22.05008109 7.50000000 0 0 0
432 1 1 0 5.21895096 20.81346517 7.50000000 0 0 0
433 1 1 0 4.49493464 19.59426637 7.50000000 0 0 0
434 1 1 0 5.18878361 18.35765045 7.50000000 0 0 0
435 1 1 0 4.46476730 17.13845165 7.50000000 0 0 0
436 1 1 0 5.15861627 15.90183573 7.50000000 0 0 0
437 1 1 0 4.43459995 14.68263693 7.50000000 0 0 0
438 1 1 0 5.12844892 13.44602101 7.50000000 0 0 0
439 1 1 0 4.40443260 12.22682221 7.50000000 0 0 0
440 1 1 0 5.09828157 10.99020629 7.50000000 0 0 0
441 1 1 0 4.37426525 9.77100750 7.50000000 0 0 0
442 1 1 0 5.06811423 8.53439157 7.50000000 0 0 0
443 1 1 0 4.34409791 7.31519278 7.50000000 0 0 0
444 1 1 0 5.03794688 6.07857686 7.50000000 0 0 0
445 1 1 0 4.31393056 4.85937806 7.50000000 0 0 0
446 1 1 0 5.00777953 3.62276214 7.50000000 0 0 0
447 1 1 0 4.28376321 2.40356334 7.50000000 0 0 0
448 1 1 0 4.97761218 1.16694742 7.50000000 0 0 0
449 1 1 0 8.50719177 173.05656058 7.50000000 0 0 0
450 1 1 0 9.20104074 171.81994466 7.50000000 0 0 0
451 1 1 0 8.47702442 170.60074586 7.50000000 0 0 0
452 1 1 0 9.17087339 169.36412994 7.50000000 0 0 0
453 1 1 0 8.44685707 168.14493114 7.50000000 0 0 0
454 1 1 0 9.14070604 166.90831522 7.50000000 0 0 0
455 1 1 0 8.41668973 165.68911643 7.50000000 0 0 0
456 1 1 0 9.11053870 164.45250050 7.50000000 0 0 0
457 1 1 0 8.38652238 163.23330171 7.50000000 0 0 0
458 1 1 0 9.08037135 161.99668579 7.50000000 0 0 0
459 1 1 0 8.35635503 160.77748699 7.50000000 0 0 0
460 1 1 0 9.05020400 159.54087107 7.50000000 0 0 0
461 1 1 0 8.32618769 158.32167227 7.50000000 0 0 0
462 1 1 0 9.02003666 157.08505635 7.50000000 0 0 0
463 1 1 0 8.29602034 155.86585755 7.50000000 0 0 0
464 1 1 0 8.98986931 154.62924163 7.50000000 0 0 0
465 1 1 0 8.26585299 153.41004283 7.50000000 0 0 0
466 1 1 0 8.95970196 152.17342691 7.50000000 0 0 0
467 1 1 0 8.23568564 150.95422812 7.50000000 0 0 0
468 1 1 0 8.92953462 149.71761219 7.50000000 0 0 0
469 1 1 0 8.20551830 148.49841340 7.50000000 0 0 0
470 1 1 0 8.89936727 147.26179747 7.50000000 0 0 0
471 1 1 0 8.17535095 146.04259868 7.50000000 0 0 0
472 1 1 0 8.86919992 144.80598276 7.50000000 0 0 0
473 1 1 0 8.14518360 143.58678396 7.50000000 0 0 0
474 1 1 0 8.83903257 142.35016804 7.50000000 0 0 0
475 1 1 0 8.11501626 141.13096924 7.50000000 0 0 0
476 1 1 0 8.80886523 139.89435332 7.50000000 0 0 0
477 1 1 0 8.08484891 138.67515452 7.50000000 0 0 0
478 1 1 0 8.77869788 137.43853860 7.50000000 0 0 0
479 1 1 0 8.05468156 136.21933981 7.50000000 0 0 0
480 1 1 0 8.74853053 134.98272388 7.50000000 0 0 0
481 1 1 0 8.02451422 133.76352509 7.50000000 0 0 0
482 1 1 0 8.71836319 132.52690916 7.50000000 0 0 0
483 1 1 0 7.99434687 131.30771037 7.50000000 0 0 0
484 1 1 0 8.68819584 130.07109445 7.50000000 0 0 0
485 1 1 0 7.96417952 128.85189565 7.50000000 0 0 0
486 1 1 0 8.65802849 127.61527973 7.50000000 0 0 0
487 1 1 0 7.93401217 126.39608093 7.50000000 0 0 0
488 1 1 0 8.62786114 125.15946501 7.50000000 0 0 0
489 1 1 0 7.90384483 123.94026621 7.50000000 0 0 0
490 1 1 0 8.59769380 122.70365029 7.50000000 0 0 0
491 1 1 0 7.87367748 121.48445149 7.50000000 0 0 0
492 1 1 0 8.56752645 120.24783557 7.50000000 0 0 0
493 1 1 0 7.84351013 119.02863678 7.50000000 0 0 0
494 1 1 0 8.53735910 117.79202085 7.50000000 0 0 0
495 1 1 0 7.81334279 116.57282206 7.50000000 0 0 0
496 1 1 0 8.50719176 115.33620614 7.50000000 0 0 0
497 1 1 0 7.78317544 114.11700734 7.50000000 0 0 0
498 1 1 0 8.47702441 112.88039142 7.50000000 0 0 0
499 1 1 0 7.75300809 111.66119262 7.50000000 0 0 0
500 1 1 0 8.44685706 110.42457670 7.50000000 0 0 0
501 1 1 0 7.72284074 109.20537790 7.50000000 0 0 0
502 1 1 0 8.41668972 107.96876198 7.50000000 0 0 0
503 1 1 0 7.69267340 106.74956318 7.50000000 0 0 0
504 1 1 0 8.38652237 105.51294726 7.50000000 0 0 0
505 1 1 0 7.66250605 104.29374847 7.50000000 0 0 0
506 1 1 0 8.35635502 103.05713254 7.50000000 0 0 0
507 1 1 0 7.63233870 101.83793375 7.50000000 0 0 0
508 1 1 0 8.32618767 100.60131783 7.50000000 0 0 0
509 1 1 0 7.60217136 99.38211903 7.50000000 0 0 0
510 1 1 0 8.29602033 98.14550311 7.50000000 0 0 0
511 1 1 0 7.57200401 96.92630431 7.50000000 0 0 0
512 1 1 0 8.26585298 95.68968839 7.50000000 0 0 0
513 1 1 0 7.54183666 94.47048959 7.50000000 0 0 0
514 1 1 0 8.23568563 93.23387367 7.50000000 0 0 0
515 1 1 0 7.51166931 92.01467487 7.50000000 0 0 0
516 1 1 0 8.20551829 90.77805895 7.50000000 0 0 0
517 1 1 0 7.48150197 89.55886016 7.50000000 0 0 0
518 1 1 0 8.17535094 88.32224423 7.50000000 0 0 0
519 1 1 0 7.45133462 87.10304544 7.50000000 0 0 0
520 1 1 0 8.14518359 85.86642951 7.50000000 0 0 0
521 1 1 0 7.42116727 84.64723072 7.50000000 0 0 0
522 1 1 0 8.11501624 83.41061480 7.50000000 0 0 0
523 1 1 0 7.39099993 82.19141600 7.50000000 0 0 0
524 1 1 0 8.08484890 80.95480008 7.50000000 0 0 0
525 1 1 0 7.36083258 79.73560128 7.50000000 0 0 0
526 1 1 0 8.05468155 78.49898536 7.50000000 0 0 0
527 1 1 0 7.33066523 77.27978656 7.50000000 0 0 0
528 1 1 0 8.02451420 76.04317064 7.50000000 0 0 0
529 1 1 0 7.30049789 74.82397184 7.50000000 0 0 0
530 1 1 0 7.99434686 73.58735592 7.50000000 0 0 0
531 1 1 0 7.27033054 72.36815713 7.50000000 0 0 0
532 1 1 0 7.96417951 71.13154120 7.50000000 0 0 0
533 1 1 0 7.24016319 69.91234241 7.50000000 0 0 0
534 1 1 0 7.93401216 68.67572649 7.50000000 0 0 0
535 1 1 0 7.20999584 67.45652769 7.50000000 0 0 0
536 1 1 0 7.90384481 66.21991177 7.50000000 0 0 0
537 1 1 0 7.17982850 65.00071297 7.50000000 0 0 0
538 1 1 0 7.87367747 63.76409705 7.50000000 0 0 0
539 1 1 0 7.14966115 62.54489825 7.50000000 0 0 0
540 1 1 0 7.84351012 61.30828233 7.50000000 0 0 0
541 1 1 0 7.11949380 60.08908353 7.50000000 0 0 0
542 1 1 0 7.81334277 58.85246761 7.50000000 0 0 0
543 1 1 0 7.08932646 57.63326882 7.50000000 0 0 0
544 1 1 0 7.78317543 56.39665289 7.50000000 0 0 0
545 1 1 0 7.05915911 55.17745410 7.50000000 0 0 0
546 1 1 0 7.75300808 53.94083818 7.50000000 0 0 0
547 1 1 0 7.02899176 52.72163938 7.50000000 0 0 0
548 1 1 0 7.72284073 51.48502346 7.50000000 0 0 0
549 1 1 0 6.99882441 50.26582466 7.50000000 0 0 0
550 1 1 0 7.69267339 49.02920874 7.50000000 0 0 0
551 1 1 0 6.96865707 47.81000994 7.50000000 0 0 0
552 1 1 0 7.66250604 46.57339402 7.50000000 0 0 0
553 1 1 0 6.93848972 45.35419522 7.50000000 0 0 0
554 1 1 0 7.63233869 44.11757930 7.50000000 0 0 0
555 1 1 0 6.90832237 42.89838051 7.50000000 0 0 0
556 1 1 0 7.60217134 41.66176458 7.50000000 0 0 0
557 1 1 0 6.87815503 40.44256579 7.50000000 0 0 0
558 1 1 0 7.57200400 39.20594986 7.50000000 0 0 0
559 1 1 0 6.84798768 37.98675107 7.50000000 0 0 0
560 1 1 0 7.54183665 36.75013515 7.50000000 0 0 0
561 1 1 0 6.81782033 35.53093635 7.50000000 0 0 0
562 1 1 0 7.51166930 34.29432043 7.50000000 0 0 0
563 1 1 0 6.78765298 33.07512163 7.50000000 0 0 0
564 1 1 0 7.48150196 31.83850571 7.50000000 0 0 0
565 1 1 0 6.75748564 30.61930691 7.50000000 0 0 0
566 1 1 0 7.45133461 29.38269099 7.50000000 0 0 0
567 1 1 0 6.72731829 28.16349219 7.50000000 0 0 0
568 1 1 0 7.42116726 26.92687627 7.50000000 0 0 0
569 1 1 0 6.69715094 25.70767748 7.50000000 0 0 0
570 1 1 0 7.39099991 24.47106155 7.50000000 0 0 0
571 1 1 0 6.66698360 23.25186276 7.50000000 0 0 0
572 1 1 0 7.36083257 22.01524684 7.50000000 0 0 0
573 1 1 0 6.63681625 20.79604804 7.50000000 0 0 0
574 1 1 0 7.33066522 19.55943212 7.50000000 0 0 0
575 1 1 0 6.60664890 18.34023332 7.50000000 0 0 0
576 1 1 0 7.30049787 17.10361740 7.50000000 0 0 0
577 1 1 0 6.57648156 15.88441860 7.50000000 0 0 0
578 1 1 0 7.27033053 14.64780268 7.50000000 0 0 0
579 1 1 0 6.54631421 13.42860388 7.50000000 0 0 0
580 1 1 0 7.24016318 12.19198796 7.50000000 0 0 0
581 1 1 0 6.51614686 10.97278917 7.50000000 0 0 0
582 1 1 0 7.20999583 9.73617324 7.50000000 0 0 0
583 1 1 0 6.48597951 8.51697445 7.50000000 0 0 0
584 1 1 0 7.17982849 7.28035853 7.50000000 0 0 0
585 1 1 0 6.45581217 6.06115973 7.50000000 0 0 0
586 1 1 0 7.14966114 4.82454381 7.50000000 0 0 0
587 1 1 0 6.42564482 3.60534501 7.50000000 0 0 0
588 1 1 0 7.11949379 2.36872909 7.50000000 0 0 0
589 1 1 0 6.39547747 1.14953029 7.50000000 0 0 0
590 1 1 0 11.34292235 173.02172633 7.50000000 0 0 0
591 1 1 0 10.61890603 171.80252753 7.50000000 0 0 0
592 1 1 0 11.31275500 170.56591161 7.50000000 0 0 0
593 1 1 0 10.58873868 169.34671281 7.50000000 0 0 0
594 1 1 0 11.28258765 168.11009689 7.50000000 0 0 0