ITEM: TIMESTEP
110
ITEM: NUMBER OF ATOMS
3176
ITEM: BOX BOUNDS pp pp pp
0.0000000000000000e+00 4.8935453299999999e+01
0.0000000000000000e+00 8.4758691400000004e+01
0.0000000000000000e+00 1.5000000000000000e+01
ITEM: ATOMS id type x y z c_csym c_2[1] c_2[2] c_2[3] c_2[4] c_2[5] c_2[6] c_3 
74 1 0.279247 9.81889 2.99611 6.01388 -135322 -158600 29357.3 -20039.3 19383.3 -2150.38 -7.4171 
75 1 0.954281 8.5719 2.99143 6.02108 -180830 -136163 -17946.2 -31392.8 -92.5274 -3054.28 -7.41303 
76 1 0.212775 7.36368 2.98606 6.01044 -140430 -159287 20350 -35639.3 31171.6 -6944.07 -7.41603 
77 1 0.887593 6.11652 2.9785 6.01084 -185083 -135066 -6263.2 -37036.2 18840.8 -3155.52 -7.41338 
78 1 0.145161 4.90891 2.96891 6.00979 -146496 -161648 7689.14 -31085.4 44214.4 -6318.76 -7.41448 
79 1 0.818528 3.66105 2.95904 6.00392 -176995 -137562 -3643.04 -21272.7 30954 -6475.78 -7.41325 
80 1 0.0741495 2.45449 2.94893 6.01685 -149795 -160230 -5940.8 -11180 32910.8 -1880.24 -7.41314 
81 1 0.745834 1.20582 2.9429 6.0184 -161799 -147596 -10255.9 -3346.97 16091.7 -10081.7 -7.4128 
82 1 1.36692e-05 -2.7277e-06 2.93962 6.02983 -154300 -154328 -12504.1 38.8863 0.00375628 0.125872 -7.41265 
144 1 3.11218 9.73993 2.99555 6.01695 -195910 -111467 -15744 -27045.2 -6542.69 -8917.18 -7.41349 
145 1 2.37155 8.53111 2.99218 6.01016 -166199 -132489 19037.9 -26500 20170.5 3342.26 -7.41614 
146 1 3.04553 7.28333 2.98789 6.01569 -204278 -109829 -3016.88 -35040.1 1195.25 -12874.4 -7.41399 
147 1 2.30476 6.07464 2.98065 6.00448 -174599 -133460 9051.79 -26673.6 35452.4 -7834.86 -7.41496 
148 1 2.9779 4.82645 2.97477 6.00867 -202080 -110882 4681.29 -23653.7 18362.9 -23302.5 -7.41416 
149 1 2.23564 3.61858 2.9633 6.00228 -173323 -139846 -1228.52 -7295.69 38524.5 -16939.2 -7.41367 
150 1 2.90746 2.36986 2.95908 6.0101 -182770 -127316 1054.29 -1727.97 21313.8 -34269.3 -7.41372 
151 1 2.16297 1.16319 2.94891 6.00862 -161159 -150366 -7499.94 11926.9 15552.6 -23699.2 -7.41297 
213 1 4.52938 9.69971 2.99559 6.00854 -180952 -118079 8520.33 -22507.6 11616.3 13206.8 -7.41545 
214 1 5.20293 8.4516 2.99349 6.01061 -202425 -100364 4076.56 -33857.7 -8812.93 -16000 -7.41494 
215 1 4.46263 7.24258 2.98999 6.00965 -188024 -120115 1408.34 -19912.5 15536.4 3226.92 -7.41462 
216 1 5.13586 5.99434 2.98792 6.00781 -204065 -99909.4 14038.4 -23030.7 1276.69 -23181.8 -7.41545 
217 1 4.39492 4.78559 2.98047 6.00488 -191939 -125500 -4504.7 -7.84311 24335.6 -10496.3 -7.41375 
218 1 5.06723 3.53704 2.97865 6.00915 -194191 -110315 14541.7 2222.47 13299.2 -36106.7 -7.41525 
219 1 4.3245 2.3292 2.96881 6.00398 -179066 -139164 -4439.35 27318.7 17127.2 -24127.4 -7.41333 
220 1 4.99629 1.08063 2.97051 6.00511 -169885 -140087 5488.55 22183.9 11632.3 -43032.9 -7.41439 
282 1 7.36039 9.62028 2.99772 6.00801 -197777 -97974.7 12268.7 -40662.5 -4029.85 -25716.4 -7.41584 
283 1 6.62008 8.41129 2.99493 6.01378 -183731 -119234 -11978.1 -20493.1 3717.65 7033.55 -7.41391 
284 1 7.29384 7.1633 2.99531 6.00967 -188657 -107179 22487.1 -27999.2 -4603.88 -21016.5 -7.41649 
285 1 6.55294 5.95456 2.99156 6.01451 -187245 -126833 -15834.4 -862.278 5385.64 1599.44 -7.4133 
286 1 7.22623 4.70648 2.99171 6.01074 -183860 -112025 25271.2 -2749.09 4657.93 -23172.5 -7.41662 
287 1 6.48427 3.49814 2.98575 6.01563 -184695 -135708 -12701.7 30404.5 5843.49 -7977.74 -7.41317 
288 1 7.15694 2.24998 2.98664 6.00925 -173171 -128443 17273.3 25336.6 11431.9 -27951.2 -7.41582 
289 1 6.4134 1.04241 2.98052 6.01339 -167206 -149796 -1381.71 53885.4 -4872.87 -18294.1 -7.41381 
351 1 8.7776 9.57991 3.00126 6.00959 -180284 -113927 -25614.1 -24607.6 7210.55 -5726.9 -7.41358 
352 1 9.45205 8.33227 3.00291 6.01213 -182080 -115207 30374.4 -34597.6 3985.58 -33432.4 -7.41728 
353 1 8.71106 7.12365 2.99856 6.02079 -168709 -133984 -28502.1 -7146.71 -1171.79 -1219.78 -7.41293 
354 1 9.3855 5.87618 2.99999 6.01502 -167996 -126960 32746.4 -12782.6 7648.6 -20841.4 -7.41742 
355 1 8.64339 4.66804 2.9956 6.02276 -168445 -143246 -25290 20372.1 -3630.32 1009.44 -7.41278 
356 1 9.31729 3.42047 2.99615 6.01228 -161778 -133203 26063.3 15774.9 13627.9 -13363.6 -7.41683 
357 1 8.57408 2.21273 2.99186 6.01952 -165844 -148182 -12936.3 49707.8 -8454.53 -1013.56 -7.41343 
358 1 9.2475 0.965118 2.99269 6.00943 -157067 -144424 10366 36988 13962.7 -8880.89 -7.41545 
1597 2 0.462834 8.61132 6.40829 6.01073 -127557 -168301 25271.9 29671.9 22396.7 7552.03 -7.41662 
1598 2 0.529563 6.15686 6.42135 6.00914 -133098 -171406 14542.7 37344 37918.6 6536.8 -7.41525 
1599 2 0.59865 3.70285 6.44092 6.01006 -139646 -170492 1053.69 23106.6 40335.1 -1322.28 -7.41372 
1600 2 0.671372 1.24881 6.4571 6.01839 -148252 -161148 -10256.2 4410.41 16777.7 -8894.75 -7.41279 
1601 2 1.25424e-05 -2.55013e-06 6.46038 6.02983 -154363 -154354 -12505 3.14193 0.373001 -0.597259 -7.41265 
1662 2 2.55669 9.89829 6.40469 6.00967 -103260 -192524 22488 21207.2 15899.6 14495.4 -7.41649 
1663 2 1.88035 8.65227 6.40844 6.01451 -141189 -172832 -15835 25761.7 1307.01 -5463.68 -7.4133 
1664 2 2.62334 7.44494 6.41208 6.00781 -105861 -197949 14039 33546.8 20714.1 10485.4 -7.41545 
1665 2 1.947 6.1989 6.41953 6.00487 -142048 -175262 -4505.08 28881.9 21256.8 -15826.5 -7.41375 
1666 2 2.6909 4.99215 6.42523 6.00867 -113078 -199841 4680.75 27572.9 29362.5 -4250.66 -7.41416 
1667 2 2.01598 3.7454 6.4367 6.00227 -141924 -171288 -1228.85 10901.1 33932 -24892.4 -7.41367 
1668 2 2.76131 2.53938 6.44096 6.00389 -129025 -185602 -3643.52 6412.55 21086 -23568.7 -7.41325 
1669 2 2.0886 1.29145 6.45108 6.01683 -147941 -162072 -5941.33 -10153.3 18084.2 -27561.2 -7.41314 
1670 2 2.83439 0.0855475 6.44832 6.00811 -154577 -156845 -5704.77 -7073.65 -2622.09 -35705.9 -7.41317 
1731 2 3.97436 9.93879 6.40507 6.01379 -117608 -185313 -11979 17700.5 -4232.23 -6736.44 -7.41391 
1732 2 4.71786 8.73166 6.4065 6.01063 -96478.9 -206177 4076.88 27291.2 9449.95 15632.7 -7.41494 
1733 2 4.04097 7.48603 6.41001 6.00966 -119751 -188202 1406.98 19515.7 4973.06 -15068.8 -7.41462 
1734 2 4.7848 6.27916 6.41211 6.01568 -103024 -211018 -3016.7 23364 11747.9 5402.08 -7.41399 
1735 2 4.10843 5.03328 6.41935 6.00448 -120612 -187470 9050.35 4540.07 24511.5 -26785.1 -7.41496 
1736 2 4.85329 3.82693 6.42151 6.01084 -115539 -204652 -6262.99 3216.68 12154.2 -14739.3 -7.41337 
1737 2 4.17868 2.58016 6.43109 6.00977 -130946 -177164 7687.74 -22123.5 27580.4 -35132.4 -7.41448 
1738 2 4.92419 1.374 6.42958 6.00211 -139436 -177869 -3545.41 -18992 1700.21 -34738 -7.41354 
1739 2 4.25156 0.126097 6.4367 6.0056 -153930 -158855 995.863 -37749.4 6986.47 -33903.3 -7.41367 
1800 2 6.81254 10.018 6.40171 6.00829 -92795.8 -204826 -8863.32 31634.4 12898.2 10112.3 -7.41432 
1801 2 6.13553 8.7724 6.40441 6.00853 -114245 -184699 8520.06 15878.9 -5629.19 -16663 -7.41545 
1802 2 6.87895 7.56518 6.40445 6.01695 -109161 -198092 -15743.7 23037.7 4451.61 10125 -7.41349 
1803 2 6.2024 6.31936 6.40782 6.01014 -117896 -180681 19037.1 1349.68 7190.71 -19139.9 -7.41614 
1804 2 6.94636 5.11237 6.40857 6.02108 -120141 -196795 -17945.7 3690.16 2599.2 1606.86 -7.41303 
1805 2 6.27077 3.8661 6.41394 6.01045 -123743 -176091 20349.8 -25971.3 21600.1 -23524.3 -7.41603 
1806 2 7.01551 2.65939 6.41375 6.01119 -134405 -184463 -11699.2 -22275.5 -1364.4 -13232.5 -7.41334 
1807 2 6.34148 1.41231 6.41942 6.00849 -141825 -165292 12038.9 -51226.4 19603.5 -24362.8 -7.41501 
1808 2 7.08621 0.205431 6.41606 6.00481 -154502 -157374 2120.33 -36379.3 -8615.87 -25475.3 -7.41446 
1869 2 8.23021 10.0588 6.39671 5.99891 -110832 -188287 15427.1 20688.2 -2179.57 -32745 -7.41626 
1870 2 8.97309 8.85127 6.39603 6.01456 -110624 -186681 -27413.9 29589.4 11306.4 -1080.54 -7.41328 
1871 2 8.29649 7.60538 6.40006 6.00854 -128856 -167682 26072.7 4259.62 -263.781 -23409.7 -7.4169 
1872 2 9.03941 6.39769 6.40026 6.02357 -130874 -173864 -29947.6 10300 4210.54 3151.53 -7.41276 
1873 2 8.36381 5.15127 6.40389 6.0139 -135368 -158446 29356.6 -20081.2 11553.6 -15711.8 -7.41709 
1874 2 9.10739 3.94381 6.40472 6.02065 -141986 -168260 -24306.3 -15463.1 -1040.88 1798.95 -7.41289 
1875 2 8.43284 2.69688 6.40812 6.00855 -142505 -155054 21763.7 -47717 19777.9 -10223.6 -7.4163 
1876 2 9.17706 1.48964 6.40776 6.01265 -150422 -158658 -9119.29 -36397.1 -7952.52 -3577.04 -7.41389 
1877 2 8.50341 0.242249 6.41001 6.0105 -155198 -152049 5392.37 -61616.3 16684.9 -5463.52 -7.41481 
420 1 11.6092 9.50235 3.01747 6.00668 -198975 -105891 42469.3 -32601.4 14989 -55942.4 -7.4185 
421 1 10.8693 8.29298 3.0093 6.01018 -162344 -128903 -39818.7 -5988.71 5913.83 -18480.8 -7.41309 
422 1 11.5446 7.04595 3.01152 6.01085 -171323 -133047 40907.3 -14585.3 19008.7 -37833.4 -7.41819 
423 1 10.8028 5.83769 3.00459 6.02069 -149529 -148702 -36236 13978.1 -1056.5 -9529.15 -7.41276 
424 1 11.4778 4.5907 3.00528 6.00833 -155815 -143971 32724.7 9387.44 23785.2 -20129.5 -7.4175 
425 1 10.7345 3.38307 2.99946 6.01955 -149562 -153850 -25231.2 39545.2 -7247.55 -2149.41 -7.41308 
426 1 11.4087 2.13583 2.99909 6.00539 -151480 -145866 17107.7 33328.5 22871.2 -7690.7 -7.41622 
427 1 10.6647 0.928462 2.99544 6.01246 -153422 -149152 -7127.18 58907.3 -15213.6 312.123 -7.4142 
489 1 13.0264 9.46495 3.02762 5.9902 -179956 -106404 -54487.2 8518.73 15290.4 -31747.1 -7.41336 
490 1 13.702 8.21803 3.03044 6.00505 -198229 -116528 57112.8 -1521.36 26065.9 -58170.1 -7.41981 
491 1 12.9619 7.00864 3.01986 6.00086 -152138 -137260 -47833.8 24211 8571.16 -27324.6 -7.41314 
492 1 13.6375 5.76194 3.02113 5.99999 -171122 -139772 44343.9 18431.4 35366 -41308.4 -7.41864 
493 1 12.8951 4.5538 3.01123 6.00857 -140501 -153275 -36068.9 43838.7 1700.59 -19393.6 -7.41318 
494 1 13.5699 3.3069 3.01075 5.99399 -154962 -148193 25874.5 42239.9 37015.6 -25468.2 -7.41716 
495 1 12.826 2.09945 3.00298 6.00744 -143193 -152384 -19475.7 63817.9 -8800.29 -12539.5 -7.41382 
496 1 13.4999 0.852128 3.00274 5.99757 -151064 -146423 3788.79 58655.4 25593.6 -15630.9 -7.41554 
558 1 15.8568 9.39478 3.0527 6.00006 -230559 -85531.2 85565.6 20143.2 21942.2 -63806.1 -7.42249 
559 1 15.1192 8.18359 3.04114 5.98877 -178527 -109085 -67782.8 46678.2 13137 -32210.1 -7.41313 
560 1 15.7951 6.93693 3.04331 5.99422 -202070 -114532 66693.1 39460.9 38101.8 -56194.8 -7.42083 
561 1 15.0547 5.72732 3.03082 5.99304 -154175 -136346 -50167.5 65041.8 9512.22 -33424.9 -7.41339 
562 1 15.73 4.48064 3.03093 5.98064 -174411 -135324 43046.5 65032.1 49388.1 -45512.1 -7.4189 
563 1 14.9872 3.27237 3.01877 5.99591 -143282 -148953 -31073.8 86431.4 492.394 -30213.6 -7.41382 
564 1 15.6614 2.02531 3.01832 5.97819 -157333 -143996 16544.9 89054 43253 -36012.9 -7.4169 
565 1 14.9171 0.817706 3.00944 5.99204 -146562 -145139 -10700.1 100725 -15991.6 -27842.4 -7.41475 
627 1 17.2738 9.36364 3.06151 5.99029 -209239 -79582.8 -100640 65907.7 7105.6 -18432.6 -7.41202 
628 1 17.9501 8.11701 3.06462 5.99541 -226905 -83052.7 99356.9 59370.2 28678.3 -52807.7 -7.42387 
629 1 17.2121 6.90562 3.05343 5.99216 -183605 -108324 -74372.9 88765.7 6870.42 -30418.7 -7.41292 
630 1 17.888 5.65913 3.0545 5.97407 -199264 -108672 68992.5 89041.2 50856.9 -51475.1 -7.42155 
631 1 17.1472 4.44933 3.04141 5.98796 -160453 -133403 -46797.2 116190 4299.3 -36450.4 -7.41368 
632 1 17.822 3.20259 3.04087 5.96082 -172657 -129325 36750.9 123503 58805 -47724.3 -7.41899 
633 1 17.0786 1.99411 3.02854 5.97891 -149260 -143165 -22230.4 140776 -9358.19 -37548 -7.41455 
634 1 17.7522 0.746969 3.02961 5.95998 -155289 -141426 5755.69 144713 40947.7 -44281.4 -7.41667 
695 1 19.4262 10.5473 3.07417 6.00117 -218711 -67449.6 -139949 67449.4 -5036.76 1728.36 -7.40998 
697 1 19.367 8.0885 3.0709 6.00512 -205866 -86932.5 -109136 98581.1 -5955.45 -14331.6 -7.41145 
699 1 19.305 5.63106 3.06298 5.99232 -183393 -114574 -71686.5 134336 -1765.48 -27219.9 -7.41289 
701 1 19.2391 3.17502 3.05078 5.97331 -162202 -134869 -37988.3 173315 -6188.14 -33505.7 -7.41412 
703 1 19.1694 0.71967 3.04045 5.96023 -151016 -139786 -9844.03 195907 -26315.9 -36490.1 -7.41555 
1938 2 11.0685 10.1364 6.38018 5.99882 -91815 -199841 -39023.2 34147.3 22183.4 -18738.9 -7.41345 
1939 2 10.3906 8.89122 6.38813 6.00048 -130687 -174022 34353.9 5813.7 7781.35 -42825.3 -7.41774 
1940 2 11.1327 7.68304 6.38852 6.00999 -125822 -167479 -40460.8 14911.4 14823 -12231.7 -7.41297 
1941 2 10.4568 6.43676 6.39474 6.01328 -149876 -149276 36159.6 -14740.4 13340.8 -27062.4 -7.41775 
1942 2 11.1993 5.22864 6.39631 6.02083 -145071 -151990 -35739.5 -8486.44 7990.25 -4917.99 -7.41283 
1943 2 10.5247 3.98161 6.40091 6.01328 -155270 -139750 29466.8 -39281 20382.2 -12912 -7.41714 
1944 2 11.2681 2.77386 6.40233 6.0157 -152779 -147229 -22741.2 -32275.7 -1558.97 -1037.02 -7.41338 
1945 2 10.5943 1.52644 6.40485 6.0094 -155625 -141994 13437.9 -58462.8 21364 -3265.88 -7.41578 
1946 2 11.3383 0.319006 6.40415 6.00992 -153019 -146193 -3220.75 -43192.1 -13744 -1671.87 -7.41465 
2007 2 12.4862 10.1746 6.36827 5.99088 -110012 -203660 51222.1 -1977.85 20841.3 -61060.7 -7.41942 
2008 2 13.2279 8.96618 6.36942 5.99381 -98439.9 -190226 -55068.7 9034.54 22496.8 -26078.5 -7.41326 
2009 2 12.5501 7.72103 6.37928 6.00719 -145092 -165982 47457.9 -20323.8 26295.8 -47007.1 -7.41885 
2010 2 13.2921 6.51254 6.3815 6.00059 -128699 -159693 -47545.8 -11542 18502.3 -22178.2 -7.41319 
2011 2 12.6165 5.26605 6.38999 6.01121 -160977 -141194 38248.5 -40946.9 30642.3 -32137.4 -7.41799 
2012 2 13.3593 4.05785 6.39231 6.00502 -146000 -144545 -34995.6 -36516.5 9863.34 -16679.9 -7.41341 
2013 2 12.6852 2.81053 6.3983 6.00798 -161800 -134152 22051.5 -61820.8 29639.2 -18958.7 -7.41667 
2014 2 13.429 1.60281 6.39855 6.00174 -151424 -142344 -17564.8 -56282.9 -6404.96 -13371.4 -7.41418 
2015 2 12.7555 0.355231 6.40105 6.00474 -153381 -141647 1039.86 -71767.1 21173.7 -11714 -7.41512 
2076 2 15.3261 10.2448 6.34737 5.98984 -62895.6 -226500 -81052.2 -6297.98 19488.8 -22441.6 -7.41276 
2077 2 14.6456 9.00147 6.35761 6.00344 -116910 -201113 69753.6 -36042.2 38159.4 -55721.6 -7.42102 
2078 2 15.3874 7.79277 6.36049 5.98626 -96312 -190558 -67462.4 -24858.7 19505.5 -29591.7 -7.41317 
2079 2 14.7095 6.54776 6.37139 6.00486 -145509 -165642 54511.9 -55055.2 44902.1 -48741.2 -7.41965 
2080 2 15.4519 5.33927 6.37421 5.98526 -124208 -162594 -49196.7 -50479.9 17218.4 -31952.7 -7.41358 
2081 2 14.7765 4.09281 6.38417 5.99951 -157593 -142167 34953.1 -78078.5 44389.7 -39798.3 -7.418 
2082 2 15.5199 2.88473 6.38511 5.98282 -141568 -147956 -30004.8 -79272.3 4256.69 -31161 -7.41416 
2083 2 14.8462 1.6374 6.39182 5.99343 -155304 -137500 12081.9 -97262.9 33691.3 -31277.3 -7.41625 
2084 2 15.5905 0.429745 6.38832 5.97975 -149850 -144766 -8777.62 -95730.8 -20230.7 -31297.2 -7.41523 
2145 2 16.7441 10.2771 6.3366 5.99753 -81643.2 -230019 103513 -50507.2 39272.8 -45679.3 -7.42408 
2146 2 17.4858 9.06807 6.34005 5.984 -66863.3 -221498 -100389 -40041.4 8325.89 -19311.2 -7.41205 
2147 2 16.805 7.82482 6.34909 5.99228 -114296 -198031 82486.5 -71063.1 51428.6 -48797.5 -7.42235 
2148 2 17.5473 6.61604 6.3522 5.97421 -97373.5 -191660 -73333.2 -65811.5 12270.9 -32643.5 -7.41307 
2149 2 16.8693 5.37113 6.36294 5.98512 -138225 -164411 56108.7 -97795.4 57376.6 -49398.8 -7.42024 
2150 2 17.6124 4.16265 6.36467 5.96717 -124110 -166121 -45589.2 -102546 9924.77 -39715.2 -7.41399 
2151 2 16.9372 2.91625 6.37448 5.9786 -148799 -143401 28514.6 -128042 50906.3 -45191 -7.41797 
2152 2 17.6813 1.70815 6.37246 5.96186 -142226 -150499 -20847.8 -135984 -10177.4 -42253.5 -7.41503 
2153 2 17.0077 0.460975 6.37818 5.97462 -149058 -140515 1947.03 -146484 31739.4 -39722.3 -7.41596 
2215 2 18.9036 9.09757 6.3307 5.98386 -87312.1 -212654 119496 -76875.6 43506.3 -34197.1 -7.4256 
2217 2 18.9648 6.64484 6.34114 5.97391 -114478 -183285 86750.3 -107283 57977.1 -42987.1 -7.42328 
2219 2 19.0298 4.19074 6.35292 5.96448 -135114 -154417 51349.4 -148019 63211.7 -45584.1 -7.4205 
2221 2 19.0986 1.73565 6.36093 5.95842 -145529 -140525 18821.9 -185153 50999.4 -41435.2 -7.41772 
696 1 20.1035 9.30105 3.07807 5.99364 -223027 -67590.5 135835 66089 13777.6 -34101.8 -7.42702 
698 1 20.0439 6.84237 3.07306 5.97664 -209221 -86459 100701 100518 39624 -39356.5 -7.42464 
700 1 19.9809 4.3848 3.06254 5.95341 -185632 -109194 61536.5 145238 62729.9 -42107.4 -7.42166 
702 1 19.9134 1.92835 3.05012 5.94526 -164603 -129283 24733.7 185296 60147.2 -43510.3 -7.41859 
764 1 22.2569 10.4863 3.0822 5.99751 -186419 -81303.9 164953 57839 3185.23 -12848 -7.42944 
765 1 21.5204 9.27369 3.07887 6.00884 -198962 -89129.5 -145126 88402.8 -20358.6 225.068 -7.40948 
766 1 22.1989 8.02828 3.08206 5.98271 -190099 -87914.8 132270 95674.7 24103.4 -17709.9 -7.42739 
767 1 21.4609 6.8163 3.07641 5.99607 -190371 -108384 -103459 130069 -14265.7 -10994.7 -7.41147 
768 1 22.1384 5.57077 3.07641 5.95662 -181569 -100984 88481.5 144939 54037.5 -21926.3 -7.42439 
769 1 21.398 4.35994 3.06814 5.97586 -173046 -129157 -60360.9 180918 -8108.27 -18540.9 -7.41327 
770 1 22.0736 3.11392 3.066 5.9379 -167793 -117589 45619.3 200483 68638.1 -26798.2 -7.42083 
771 1 21.3306 1.90436 3.05762 5.95595 -157936 -138772 -25237.4 224832 -19365 -21765 -7.41489 
772 1 22.0047 0.657841 3.05732 5.93983 -156240 -134999 8392.14 234219 51275.8 -31017.3 -7.41756 
833 1 23.6742 10.4584 3.07924 6.00854 -160594 -118040 -171279 65516.3 -26043.4 2292.52 -7.40786 
834 1 24.3545 9.21408 3.08301 5.98629 -147196 -117826 155142 80874.1 14970.1 496.834 -7.42906 
835 1 23.616 8.00249 3.08042 5.99503 -167766 -125517 -133177 107229 -25000.2 441.033 -7.40995 
836 1 24.2955 6.75797 3.08091 5.96465 -155582 -117221 113569 127073 41923.5 1306.1 -7.42646 
837 1 23.5555 5.54692 3.07635 5.97713 -165931 -136908 -86010.2 160583 -13296.1 -1185.52 -7.41218 
838 1 24.233 4.30173 3.07331 5.94212 -157017 -119840 66921.2 186642 65746.4 -1201.6 -7.42293 
839 1 23.4908 3.09164 3.06777 5.95768 -158798 -143273 -43782.7 219597 -12548.9 -1774.87 -7.41408 
840 1 24.1659 1.84562 3.06447 5.93425 -155165 -128226 25719 240169 63827.2 -7419.89 -7.41919 
841 1 23.4219 0.636347 3.06111 5.94451 -153707 -139317 -9770.68 254397 -35228.3 -2880.1 -7.41609 
902 1 26.5116 10.398 3.08091 5.98651 -100983 -164784 164231 65745.5 16207.8 9124.72 -7.42941 
903 1 25.7719 9.18727 3.07872 5.99406 -122422 -163319 -152217 78687.9 -26032.8 1428.9 -7.40898 
904 1 26.4532 7.9439 3.07906 5.97263 -118919 -155528 130486 103413 35996.7 17297.5 -7.42733 
905 1 25.7127 6.73343 3.07643 5.97964 -136321 -161872 -108139 123828 -16776.4 10318.6 -7.41122 
906 1 26.3921 5.4892 3.07267 5.9533 -134982 -141710 85777 154449 59220.5 21745 -7.42427 
907 1 25.6503 4.2792 3.06947 5.96149 -144978 -157442 -62564.5 183473 -7414.93 16195.4 -7.41329 
908 1 26.3268 3.03378 3.06374 5.93999 -145287 -133280 42791.6 212808 67116.5 19044.3 -7.42063 
909 1 25.5832 1.82444 3.06211 5.94672 -150128 -148148 -25535 236844 -20556.9 19146.2 -7.41515 
910 1 26.2576 0.57815 3.05878 5.94188 -151184 -135831 6465.45 249442 49093.5 12481 -7.41732 
971 1 27.9294 10.3697 3.07604 5.99734 -76461.6 -206330 -155201 54072.2 -15436.8 -3663.99 -7.40901 
972 1 28.6121 9.12734 3.07499 5.97958 -89176.3 -198360 134205 82055.2 37206.9 25496.6 -7.42698 
973 1 27.8708 7.91765 3.07224 5.98288 -97097.8 -195272 -120152 86014.1 -13069.7 13426.3 -7.41084 
974 1 28.5516 6.67427 3.06726 5.96732 -113743 -174788 97166.6 118343 55350.2 35408.5 -7.42452 
975 1 27.8095 5.4648 3.06482 5.96802 -119497 -178692 -77461.1 132968 -2607.78 26865.4 -7.41275 
976 1 28.4875 4.21998 3.05702 5.95465 -133445 -150203 56977.6 166709 65478.5 38579.2 -7.42141 
977 1 27.7441 3.0109 3.0561 5.95336 -137257 -160986 -39684.3 188344 -5940.75 34173.2 -7.4144 
978 1 28.4192 1.76478 3.04926 5.94944 -145078 -138585 21122 210942 55754.7 34222.3 -7.41825 
979 1 27.6748 0.556047 3.05243 5.94384 -150510 -144139 -7926.97 222524 -33643.1 36728.4 -7.41625 
2214 2 19.5863 10.3397 6.32693 5.99483 -60141.3 -225691 -139830 -47262.6 -6495.75 -360.737 -7.40999 
2216 2 19.6453 7.88831 6.33382 5.97971 -84126.5 -207028 -108420 -74140.1 -3849.92 -19057.4 -7.41154 
2218 2 19.7073 5.43581 6.34354 5.9657 -111339 -183564 -70491.3 -115042 3961.46 -33274.7 -7.41312 
2220 2 19.7733 2.98204 6.35317 5.95432 -133289 -162046 -36886.6 -163961 -2384.46 -40577.8 -7.4145 
2222 2 19.843 0.52723 6.35651 5.94731 -149424 -145305 -7600.28 -194318 -30916.8 -43334.2 -7.41613 
2283 2 21.0042 10.3684 6.32102 5.98501 -83264.7 -193703 154722 -67403.5 24810.1 -15829.4 -7.42851 
2284 2 21.7448 9.15833 6.32374 5.99074 -96475.3 -190421 -144839 -72492.6 -20204.8 -3233.87 -7.40951 
2285 2 21.063 7.91541 6.32549 5.97272 -105018 -178485 122178 -101109 43093.5 -26636.8 -7.42642 
2286 2 21.8043 6.70554 6.32805 5.97669 -116665 -180272 -102716 -113734 -11247.5 -17479.2 -7.41158 
2287 2 21.1248 5.46147 6.33375 5.95725 -126462 -156204 80263.7 -147081 61557.5 -33310.1 -7.4235 
2288 2 21.8672 4.25195 6.33602 5.96087 -133649 -166646 -59530.2 -169978 -3522.63 -26768.7 -7.41348 
2289 2 21.1907 3.0065 6.3432 5.94698 -140991 -139855 40000.5 -200123 64878.5 -31906.5 -7.42011 
2290 2 21.9345 1.79746 6.34308 5.94799 -145996 -151419 -24296.3 -221084 -18669.3 -31178.2 -7.41523 
2291 2 21.2603 0.551049 6.34744 5.94595 -149473 -137331 5660.96 -233713 45883 -25765.1 -7.41705 
2352 2 23.8438 10.4289 6.32124 6.00391 -130374 -147884 -171248 -62109 -26047.4 1668.39 -7.40786 
2353 2 23.1624 9.18538 6.31839 5.981 -120696 -146420 152449 -82915.7 20973.9 -9293.81 -7.4288 
2354 2 23.9019 7.97445 6.32064 5.98968 -142564 -150078 -133032 -102641 -24572.8 -4126.35 -7.40996 
2355 2 23.2217 6.73048 6.32151 5.9631 -135842 -138075 111078 -127938 45837.3 -14343.7 -7.4262 
2356 2 23.9624 5.51993 6.32495 5.97235 -149869 -152376 -85768.2 -156564 -12066.8 -8764.38 -7.41222 
2357 2 23.2845 4.27502 6.32938 5.94332 -145570 -130605 65029.1 -186690 66133.2 -14173.5 -7.4227 
2358 2 24.0271 3.06518 6.33301 5.95403 -151752 -150135 -43572.4 -217529 -11519.3 -11614.5 -7.41415 
2359 2 23.3518 1.81925 6.33746 5.93705 -150541 -131501 24575.8 -239851 62234.9 -8257.66 -7.41902 
2360 2 24.0959 0.610042 6.33839 5.94335 -153091 -140730 -9339.98 -254101 -35882.4 -11999.2 -7.4162 
2421 2 25.2612 10.4568 6.3175 5.9969 -156189 -104693 169363 -60514.9 4528.72 3909.09 -7.42991 
2422 2 25.9987 9.24479 6.31978 6.00426 -177988 -108657 -152372 -87118.1 -26218.9 -1326.47 -7.40897 
2423 2 25.3192 8.00006 6.31702 5.97855 -165067 -106037 135764 -100683 25642.5 4898.73 -7.42785 
2424 2 26.0579 6.78843 6.32112 5.99003 -176997 -122241 -108549 -132750 -18444.7 3953.71 -7.41116 
2425 2 25.3796 5.54339 6.32202 5.95345 -165530 -111063 90141.5 -153503 55027.7 6951.52 -7.42475 
2426 2 26.1204 4.33266 6.32828 5.96975 -167211 -136470 -63016.8 -189499 -10012.6 7554.51 -7.41318 
2427 2 25.4443 3.08692 6.33143 5.93559 -160390 -120624 45806.8 -213173 69039.5 11999.3 -7.42102 
2428 2 26.1874 1.87728 6.33748 5.9521 -156968 -140835 -26036.9 -238890 -21088.4 8975.6 -7.41497 
2429 2 25.5132 0.630927 6.33873 5.9381 -154965 -134342 7936.37 -249728 51900.7 17751.7 -7.41759 
2490 2 28.0939 10.5175 6.32244 6.00976 -207335 -76208.4 -155333 -69802.8 -14588.9 -5772.23 -7.409 
2491 2 27.4157 9.27171 6.31834 5.99181 -202566 -75931.3 146883 -73424.4 11771 21450.6 -7.42812 
2492 2 28.1526 8.05923 6.32351 6.00441 -201733 -91912.4 -120761 -106246 -14735.5 8179.43 -7.41076 
2493 2 27.4749 6.81354 6.32159 5.97202 -196047 -89349.2 108336 -113619 39158.6 26736 -7.42563 
2494 2 28.2139 5.60206 6.32968 5.9889 -184416 -116379 -78465 -149499 -7569.7 19703.2 -7.41256 
2495 2 27.5375 4.35613 6.33072 5.94742 -179505 -107764 65279.5 -165449 64381.6 31072.7 -7.42238 
2496 2 28.2792 3.14605 6.34059 5.96743 -164748 -134666 -40597.1 -196595 -9683.62 25641.4 -7.41409 
2497 2 27.6047 1.89962 6.34194 5.93835 -163068 -126776 26046.7 -211675 62994.7 35107.5 -7.41897 
2498 2 28.3486 0.690623 6.34994 5.95228 -152530 -138863 -9801.34 -223729 -30272.1 28782.5 -7.41577 
1040 1 30.7714 10.3083 3.07062 5.99077 -74732.5 -227743 122987 61069.9 38018.2 34573.8 -7.42573 
1041 1 30.0299 9.09904 3.06709 5.98566 -67249.7 -221220 -117657 53836.4 -1562.85 12893.1 -7.41118 
1042 1 30.7114 7.85619 3.06025 5.98302 -104088 -200953 96934.3 85151.4 52333.3 42724.2 -7.4238 
1043 1 29.9692 6.64719 3.0573 5.97186 -95849.6 -196328 -84198 84221.8 4688.82 29509.5 -7.41262 
1044 1 30.6479 5.40276 3.04775 5.97377 -129150 -168209 64636.1 117918 61518.6 47601.2 -7.42136 
1045 1 29.9049 4.19404 3.04617 5.96098 -122092 -171283 -50334.3 127887 6026.73 39472.1 -7.41391 
1046 1 30.5806 2.94806 3.03665 5.96664 -143252 -145278 32558.7 155527 56872.1 45746 -7.41869 
1047 1 29.8365 1.73968 3.03869 5.95289 -141463 -152733 -21649.6 168062 -13073.6 43668.6 -7.4152 
1048 1 30.5103 0.492785 3.03292 5.9631 -148174 -139854 3404.71 179220 36775.8 40448 -7.41634 
1109 1 32.1894 10.2777 3.06151 5.9903 -54760.9 -233993 -100640 22970.8 12409.5 15369.5 -7.41202 
1110 1 32.871 9.03496 3.0527 6.00005 -104438 -211549 85567.6 52993.5 44286 50905.1 -7.42249 
1111 1 32.129 7.82615 3.04943 5.98047 -85339 -202316 -80468.3 42820 14021.7 28353.9 -7.41283 
1112 1 32.808 6.58179 3.03879 5.99433 -133766 -176412 64194.2 74083.8 52880.9 50321 -7.42073 
1113 1 32.0654 5.37322 3.03606 5.97436 -114984 -173285 -55506.7 72086.3 14955.3 36290.7 -7.4136 
1114 1 32.7415 4.12725 3.02537 5.98843 -149506 -148663 39549.7 101103 52495.3 46213.8 -7.41869 
1115 1 31.9979 2.91904 3.02496 5.96974 -136083 -154053 -31952.8 106591 3275.35 39017.8 -7.41439 
1116 1 32.672 1.67199 3.01716 5.98194 -151571 -139262 13783.5 124690 39519.1 39746.3 -7.41666 
1117 1 31.9275 0.464141 3.02168 5.96624 -148929 -145421 -8452.18 127362 -23712.6 40324.3 -7.41558 
1178 1 35.0304 10.2105 3.04331 5.99421 -102363 -214416 66695.6 18302.5 29615.6 61093.7 -7.42083 
1179 1 34.2887 9.00181 3.04115 5.98873 -85981.4 -201747 -67782.4 6546.54 21325.3 27481.5 -7.41313 
1180 1 34.9674 7.75729 3.03044 6.00505 -138401 -176428 57114.7 36253.4 37344.4 51658.8 -7.41981 
1181 1 34.2254 6.5487 3.02763 5.99017 -117328 -169083 -54486.8 27483.7 19848.4 29115.6 -7.41336 
1182 1 34.9016 5.30265 3.01747 6.00663 -157462 -147386 42470.6 56767.4 40954.3 40952.7 -7.4185 
1183 1 34.1588 4.09438 3.01516 5.99113 -138481 -149578 -38027.1 54429.1 12151.5 27201.5 -7.4137 
1184 1 34.833 2.84723 3.00733 6.0011 -160171 -135803 22840.5 78180.6 36604.9 30021.1 -7.41692 
1185 1 34.0892 1.63944 3.00786 5.9884 -148222 -143872 -19311.3 76939.6 -6561.93 25245.5 -7.41446 
1186 1 34.7626 0.391897 3.00406 5.9969 -151974 -140773 373.757 89413.4 23618.4 23216 -7.41531 
1247 1 36.4481 10.1741 3.03082 5.993 -84422.5 -206069 -50167.7 -24941.7 24190.6 24951.6 -7.41339 
1248 1 37.1267 8.92943 3.02113 5.99996 -131720 -179142 44344.6 4402.17 18092.5 51283.4 -7.41864 
1249 1 36.3849 7.72101 3.01986 6.00087 -120041 -169465 -47833.8 -5687.41 19379.2 21085.2 -7.41313 
1250 1 37.0612 6.47494 3.01152 6.01084 -155259 -149135 40908.4 23950.3 23260.8 35379.2 -7.4182 
1251 1 36.3189 5.26663 3.0093 6.0102 -142454 -148832 -39818.6 17416.2 13049 14362.8 -7.41309 
1252 1 36.9935 4.01957 3.00291 6.01211 -161868 -135353 30375 46363.5 26961.4 20168.6 -7.41728 
1253 1 36.2502 2.81166 3.00126 6.00957 -151816 -142340 -25614 41000.7 1353.98 9108.62 -7.41358 
1254 1 36.9239 1.56414 2.99772 6.00802 -158124 -137607 12267.7 63485.9 24286 9368.32 -7.41584 
1255 1 36.1798 0.356658 2.99886 6.00425 -152172 -144519 -6079.83 52355.6 -15314.2 8330.25 -7.41472 
1317 1 38.5442 8.89054 3.01123 6.00858 -112143 -181759 -36070.1 -27559.2 15945.5 11170.6 -7.41318 
1319 1 38.4785 6.43664 3.00459 6.02069 -136719 -161479 -36236.8 -6690.46 8780.72 3850.11 -7.41276 
1320 1 39.1538 5.18998 2.99999 6.015 -148299 -146631 32747 24200.9 14224.8 17045.4 -7.41742 
1321 1 38.4107 3.98217 2.99856 6.02078 -148792 -153834 -28502 18606.8 1642.76 -404.34 -7.41293 
1322 1 39.0849 2.735 2.99531 6.00971 -151759 -143981 22487 49341.7 20503 6521.17 -7.41649 
1323 1 38.341 1.5275 2.99493 6.01379 -153037 -149773 -11977.9 38108.3 -7950.84 -297.129 -7.41392 
1324 1 39.0147 0.28006 2.9935 6.01064 -155148 -147457 4076.89 61102.6 18262.9 367.58 -7.41493 
2559 2 29.5109 10.5458 6.32316 5.99188 -232049 -59292.6 141230 -47120.1 7364.01 37079.5 -7.42726 
2560 2 30.2463 9.33281 6.33025 5.99857 -214209 -75173.8 -118024 -78745.6 -1764.04 9948.93 -7.41114 
2561 2 29.5695 8.08643 6.32701 5.99065 -223329 -76609.2 113313 -75530.1 26621.9 42975 -7.42528 
2562 2 30.3071 6.87457 6.33658 5.99801 -192991 -101733 -85264.3 -107734 117.789 24815.6 -7.41246 
2563 2 29.6308 5.62828 6.33566 5.96709 -200119 -100108 77447.7 -111881 52628.7 45610.4 -7.42269 
2564 2 30.3713 4.41794 6.34773 5.98506 -168938 -127976 -51546.7 -142559 284.494 33878 -7.41359 
2565 2 29.6964 3.17138 6.34853 5.95097 -174657 -122389 40977 -153711 63693.2 45949.7 -7.41975 
2566 2 30.4395 1.96245 6.3604 5.9696 -153412 -140035 -23049.1 -172978 -12731.6 37148.8 -7.41471 
2567 2 29.7658 0.71549 6.35942 5.95035 -156304 -138821 7367.45 -178885 45605.2 45318.3 -7.41708 
2629 2 31.6632 9.36223 6.3366 5.99753 -236547 -75063.5 103515 -39178.7 19921.5 56850.7 -7.42408 
2630 2 32.4001 8.15039 6.34737 5.98984 -191187 -98222.7 -81053.2 -67531.1 9689.96 28097.7 -7.41276 
2631 2 31.7241 6.90381 6.34517 5.98757 -211542 -101803 78635.5 -62192.3 39964.2 54958 -7.4221 
2632 2 32.4638 5.69352 6.3578 5.99081 -165365 -126770 -56677.5 -89717.3 8354.32 35029.7 -7.41338 
2633 2 31.7884 4.4469 6.35774 5.9704 -182353 -125120 49581.5 -92626.3 55394.6 49571.2 -7.41979 
2634 2 32.5309 3.23811 6.37087 5.9883 -149438 -143218 -33066 -114794 115.017 36093.3 -7.41401 
2635 2 31.8567 1.9911 6.37113 5.9661 -161181 -139023 19315.6 -120505 49851.7 43761.9 -7.41746 
2636 2 32.6009 0.783186 6.3813 5.98115 -147597 -143404 -10581.8 -130383 -18393.3 35929.9 -7.41503 
2698 2 34.493 9.42949 6.36049 5.98626 -188586 -98196.4 -67462.8 -28206.4 15875.1 31687.3 -7.41318 
2699 2 33.8172 8.18267 6.35761 6.00344 -211191 -106795 69757.2 -18576.4 29175.7 60908 -7.42102 
2700 2 34.5566 6.97263 6.36942 5.99379 -159484 -129128 -55068.9 -44141.1 11336.2 32522.1 -7.41326 
2701 2 33.8809 5.72599 6.36827 5.99085 -181829 -131765 51224.7 -39646.7 42460.1 48580.9 -7.41942 
2702 2 34.6229 4.5174 6.38018 5.99885 -143367 -148365 -39022.9 -63788.6 5136.3 28582 -7.41345 