ITEM: TIMESTEP
0
ITEM: NUMBER OF ATOMS
3176
ITEM: BOX BOUNDS pp pp pp
0.0000000000000000e+00 4.8935453299999999e+01
0.0000000000000000e+00 8.4758691400000004e+01
0.0000000000000000e+00 1.5000000000000000e+01
ITEM: ATOMS id type x y z c_csym c_2[1] c_2[2] c_2[3] c_2[4] c_2[5] c_2[6] c_3 
74 1 0.247 9.821 3 6.02132 -107920 -191181 18387.1 17047.8 22519.6 -2391.2 -7.41561 
75 1 0.924 8.576 3 6.01789 -146665 -162899 -25395.6 13298.5 12415.6 -1134.95 -7.41424 
76 1 0.185 7.366 3 6.02358 -144973 -134462 -2027.21 -10742.9 40064.4 -5569.74 -7.41471 
77 1 0.863 6.12 3 6.02659 -175678 -96935.1 -31687.4 1181.25 37263.3 -3066.37 -7.41347 
78 1 0.123 4.91 3 6.02227 -140581 -147662 -29892.1 13367 53303.3 -4775.85 -7.41387 
79 1 0.801 3.665 3 6.02489 -133928 -154924 -46949.9 -4441.68 44804 -8140.05 -7.41253 
80 1 0.062 2.455 3 6.02592 -148042 -164086 -55181.8 132.386 39518.1 -1817.88 -7.41226 
81 1 0.74 1.21 3 6.02194 -166889 -137530 -61476.2 13167.5 20483.5 -12291.4 -7.41224 
82 1 0 0 3 6.02694 -137299 -117413 -64556.4 2418.84 37.5 21.3677 -7.41159 
144 1 3.082 9.75 3 6.02196 -175807 -132780 -19397.3 11502.7 -2806.83 -6840.92 -7.41434 
145 1 2.342 8.54 3 6.02658 -113073 -157762 5310.49 17761.3 27562.6 -1830.74 -7.41482 
146 1 3.02 7.295 3 6.02283 -178818 -132939 -18114.4 12985.8 15922.2 -13007.5 -7.41457 
147 1 2.28 6.085 3 6.02659 -158597 -116000 -16389.5 6851.35 45653.4 -14048.2 -7.41405 
148 1 2.958 4.839 3 6.02479 -132851 -119712 -27543 -16495.5 33501 -26175.9 -7.41318 
149 1 2.219 3.629 3 6.02393 -121871 -165004 -40969.3 5443.59 47183.9 -25176.4 -7.41318 
150 1 2.897 2.384 3 6.02606 -169056 -141062 -43226.1 9795.22 28917 -39668.4 -7.41301 
151 1 2.157 1.174 3 6.02513 -164382 -158076 -56207 23704.3 19780.7 -32081.6 -7.41219 
213 1 4.499 9.714 3 6.02479 -158793 -155927 2881.02 19395 13581.6 8770.67 -7.41509 
214 1 5.177 8.469 3 6.02527 -127572 -138259 -4000.19 6885.25 -2486.75 -14338.1 -7.41465 
215 1 4.437 7.259 3 6.02327 -159844 -153570 -10692.6 22287.4 24979.5 -5481.82 -7.41471 
216 1 5.115 6.014 3 6.02258 -134658 -155136 -4705.6 -3122.95 13320.8 -25453.3 -7.41515 
217 1 4.376 4.804 3 6.02479 -118129 -134354 -26678 -4525.77 35486.1 -23148.9 -7.41329 
218 1 5.054 3.558 3 6.02659 -168946 -105856 -15291.6 -3724.43 21872.6 -42020.7 -7.41407 
219 1 4.314 2.348 3 6.02131 -161476 -147101 -39504 24276 25781.9 -38982.2 -7.41368 
220 1 4.992 1.103 3 6.02659 -128803 -176081 -29656.8 -15130 12370.4 -53316.4 -7.41336 
282 1 7.334 9.643 3 6.02582 -136238 -156063 8404.59 -8648.89 -6420.73 -18667.6 -7.41519 
283 1 6.595 8.433 3 6.02507 -116231 -170191 -14647.1 7321.21 6876.42 5625.34 -7.41434 
284 1 7.273 7.188 3 6.02196 -176047 -139611 13114.5 6961 -219.845 -19371 -7.41579 
285 1 6.533 5.978 3 6.02658 -110044 -153699 -22550.1 21762.8 14197.1 -6798.36 -7.41387 
286 1 7.211 4.733 3 6.02283 -173990 -141432 9220.56 8093.21 10321.1 -27667.4 -7.41572 
287 1 6.471 3.523 3 6.02659 -157848 -114421 -27837.5 12588.3 15903.6 -21903.6 -7.41369 
288 1 7.149 2.277 3 6.0238 -125361 -130178 -3484.8 -22558.7 13134.7 -37704.6 -7.41424 
289 1 6.41 1.067 3 6.02163 -125537 -177282 -25646.4 15824.3 2837.27 -33677.7 -7.41404 
351 1 8.752 9.607 3 6.02393 -117665 -162459 -21462.2 6979.32 2664.21 3689.41 -7.41409 
352 1 9.43 8.362 3 6.0261 -176555 -140337 26072.9 4521.19 1462.24 -23559.1 -7.41647 
353 1 8.69 7.152 3 6.02479 -157863 -148648 -26407.5 22150 -108.473 2546.78 -7.41376 
354 1 9.368 5.907 3 6.02527 -127642 -144687 25375.5 3737.74 7179.23 -18225.1 -7.4158 
355 1 8.628 4.697 3 6.02327 -158961 -148588 -27074.9 24608.6 1570.39 -2718.87 -7.41403 
356 1 9.306 3.452 3 6.02258 -131568 -161226 15800.9 -10280.7 12484.5 -17990.8 -7.41587 
357 1 8.567 2.242 3 6.02479 -118418 -132348 -21199.1 -2866.05 -1813.33 -10105.8 -7.41356 
358 1 9.245 0.996 3 6.02466 -165528 -121829 274.037 -15297.7 11546.7 -18325.3 -7.41488 
1597 2 0.493 8.611 6.4 6.02679 -120653 -174830 9111.2 -10279.8 29134.7 4918.75 -7.4154 
1598 2 0.555 6.156 6.4 6.02602 -158189 -119713 -15338.5 11912.5 47384.7 1986.34 -7.41411 
1599 2 0.616 3.701 6.4 6.02099 -126493 -163974 -43206.3 21531.6 48838.8 -5112.55 -7.41266 
1600 2 0.678 1.245 6.4 6.02519 -167073 -151317 -61580.9 -8291.43 21078.8 -11333.5 -7.41227 
1601 2 0 0 6.4 6.02721 -142404 -150247 -64966.1 -11161.7 67.456 54.5642 -7.41228 
1662 2 2.589 9.892 6.4 6.02327 -158412 -157251 13154.4 -10792.8 16715.9 9805.56 -7.41579 
1663 2 1.911 8.647 6.4 6.02258 -138839 -148231 -22310.1 -1744.66 12992.1 -8909.29 -7.4142 
1664 2 2.65 7.437 6.4 6.02324 -115242 -139558 -4643.05 19342.5 28713.6 1311.8 -7.41426 
1665 2 1.972 6.191 6.4 6.02058 -183866 -129298 -27064.1 17791.2 37828.5 -19013 -7.41395 
1666 2 2.712 4.982 6.4 6.02213 -165858 -147205 -27604.7 22851 39313.1 -16103.2 -7.41388 
1667 2 2.034 3.736 6.4 6.02396 -128328 -121976 -40657.2 11604.4 45367.4 -28369.1 -7.41248 
1668 2 2.773 2.526 6.4 6.02105 -118791 -165197 -46991.9 5026.31 29477.3 -34602.9 -7.4131 
1669 2 2.095 1.281 6.4 6.02177 -168232 -139132 -54786.3 -15851.3 21360.1 -33198.3 -7.41243 
1670 2 2.835 0.071 6.4 6.02547 -108697 -124458 -52932.5 4525.62 -707.055 -44163.4 -7.41191 
1731 2 4.006 9.928 6.4 6.02283 -175924 -131625 -14583.3 -17393.9 -1404.68 -8778.89 -7.41467 
1732 2 4.746 8.718 6.4 6.02658 -152910 -119901 -3908.88 5307.85 11164.7 9312.07 -7.4147 
1733 2 4.068 7.472 6.4 6.02283 -143376 -149618 -10683.1 29681 17263.6 -18905.9 -7.41432 
1734 2 4.807 6.263 6.4 6.02283 -124520 -168069 -18107.8 40611.3 19251.8 -7214.95 -7.41402 
1735 2 4.129 5.017 6.4 6.02658 -170724 -103847 -16477.3 -3560.86 35043.7 -32378.8 -7.41406 
1736 2 4.869 3.807 6.4 6.02283 -160326 -150882 -31518.9 -5516.01 21238.1 -30824.4 -7.41394 
1737 2 4.191 2.562 6.4 6.02658 -120540 -145028 -29675.1 -15437 30828.5 -43760 -7.41334 
1738 2 4.931 1.352 6.4 6.02332 -160938 -151078 -36631.7 -5193.02 7747.61 -49626.7 -7.41344 
1739 2 4.253 0.107 6.4 6.02335 -125185 -173967 -40486.6 -1848.7 3567.97 -46768.4 -7.41331 
1800 2 6.841 9.999 6.4 6.02527 -111904 -133762 -10478 20082.6 6393.28 12396 -7.41418 
1801 2 6.163 8.753 6.4 6.02213 -181764 -131220 3002.7 11954.7 -840.472 -16164.2 -7.4153 
1802 2 6.903 7.544 6.4 6.02213 -162276 -146391 -19310.5 24763.9 4488.61 5903.86 -7.41434 
1803 2 6.225 6.298 6.4 6.02396 -131660 -123642 5477.74 9370.18 15380.6 -22952.9 -7.4147 
1804 2 6.964 5.088 6.4 6.02258 -119077 -167694 -25586.1 10779.4 7244.6 -10116.6 -7.4141 
1805 2 6.286 3.843 6.4 6.02327 -172803 -143174 -2078.03 -19840.3 24772.6 -31962.8 -7.41502 
1806 2 7.026 2.633 6.4 6.02658 -113320 -153883 -25698.2 -2191.26 4308.33 -28858.5 -7.41351 
1807 2 6.348 1.388 6.4 6.02283 -167243 -146379 -15483 -23243.7 16448.7 -37130.4 -7.41455 
1808 2 7.088 0.178 6.4 6.02663 -162508 -124893 -17883.4 2974.71 -5442.5 -39787.7 -7.41408 
1869 2 8.259 10.034 6.4 6.02283 -141202 -152307 13981.2 26271.1 -5469.23 -24673.1 -7.41546 
1870 2 8.998 8.825 6.4 6.02283 -121354 -161446 -24628.7 39081.4 3942.52 6144.64 -7.41359 
1871 2 8.32 7.579 6.4 6.02658 -171530 -104765 20124.5 -8296.18 1579.24 -20042.7 -7.4158 
1872 2 9.06 6.369 6.4 6.02283 -157063 -144509 -28371.2 -6273.77 867.292 3874.14 -7.41427 
1873 2 8.382 5.124 6.4 6.02582 -135656 -158925 18375.9 -5990.53 13305.3 -18396.5 -7.41584 
1874 2 9.121 3.914 6.4 6.02299 -125371 -182266 -25841 -1250.41 -971.797 -4544.97 -7.41407 
1875 2 8.444 2.669 6.4 6.0205 -137042 -176040 7171.77 -22754.6 17543.5 -18170.7 -7.41585 
1876 2 9.183 1.459 6.4 6.02612 -117812 -130229 -15787 24757.5 -5909.91 -13783.1 -7.41411 
1877 2 8.505 0.213 6.4 6.02466 -165004 -122046 -8515.87 -5760.8 11056 -16079 -7.41453 
420 1 11.587 9.536 3 6.02658 -171535 -109488 40770.2 -6401.19 11740.9 -39115 -7.41704 
421 1 10.847 8.326 3 6.02283 -157063 -140579 -29843.1 22809.1 334.772 -5226.19 -7.41405 
422 1 11.525 7.081 3 6.02582 -136446 -160576 37880.4 -11666.3 15015.3 -25382.8 -7.41697 
423 1 10.786 5.871 3 6.02299 -123999 -177813 -30845.6 20075.8 -3601.15 -207.636 -7.41372 
424 1 11.463 4.626 3 6.02299 -139651 -177830 28593.1 937.471 18842.9 -14185.8 -7.41658 
425 1 10.724 3.416 3 6.02582 -120443 -162355 -24775.5 7753.87 -6646.08 1732.38 -7.41389 
426 1 11.402 2.171 3 6.02283 -168423 -143154 12940.2 4224.41 18435 -7013.93 -7.4161 
427 1 10.662 0.961 3 6.02663 -160818 -120272 -11530.3 15620.2 -12018.3 36.4452 -7.41462 
489 1 13.004 9.501 3 6.02213 -162906 -139404 -26351 -7692.77 9209.6 -20001.5 -7.41379 
490 1 13.682 8.255 3 6.02396 -131675 -132019 54940.4 -21825.6 24201 -41055 -7.41751 
491 1 12.943 7.045 3 6.02258 -117098 -159462 -30432.6 7533.46 2332.69 -13429.5 -7.41359 
492 1 13.621 5.8 3 6.02327 -174347 -146654 42501.1 4812.45 29564.5 -27202.9 -7.41746 
493 1 12.881 4.59 3 6.02527 -110459 -145780 -28081.4 21160.7 -3369.14 -6112.98 -7.4132 
494 1 13.559 3.345 3 6.02479 -170983 -147517 24874.5 3508.59 29801.2 -14917 -7.41624 
495 1 12.819 2.135 3 6.02608 -162198 -142042 -17728.5 21677.7 -10477 -1748.01 -7.41437 
496 1 13.497 0.89 3 6.02223 -120867 -140836 4529.21 1508.52 22402.9 -6689.01 -7.41494 
558 1 15.839 9.429 3 6.02041 -142003 -165583 81138.1 -35973.3 24546.1 -48231.2 -7.41944 
559 1 15.1 8.22 3 6.02283 -122916 -161059 -24275.2 -22454.3 10073.2 -25170.9 -7.41349 
560 1 15.778 6.974 3 6.02658 -171392 -116241 64069.9 -4991.15 34799.8 -40827.3 -7.41828 
561 1 15.038 5.764 3 6.02283 -157118 -144193 -24517.6 23261.8 5176.34 -21682.2 -7.41403 
562 1 15.716 4.519 3 6.02658 -123096 -152012 42647.7 3970.79 39999.9 -31472.6 -7.41712 
563 1 14.976 3.309 3 6.02196 -157976 -145607 -19029.4 21294.6 -2965.04 -16731.7 -7.41417 
564 1 15.654 2.064 3 6.02507 -126510 -166265 19778.7 -8149.09 34537.3 -23244.2 -7.4161 
565 1 14.915 0.854 3 6.02525 -119927 -139542 -5930.86 -5881.73 -14731.6 -14810.2 -7.41414 
627 1 17.257 9.394 3 6.02527 -121414 -169446 -20871.1 13739.9 9792.11 -22018.1 -7.41373 
628 1 17.935 8.149 3 6.02283 -178417 -150998 93750.4 13762.5 28428.7 -40367 -7.42045 
629 1 17.195 6.939 3 6.02462 -155108 -113089 -17750.4 10424.7 9287.01 -27620.9 -7.41392 
630 1 17.873 5.693 3 6.02479 -131101 -135901 69176.5 -18608.2 41213.1 -39278.9 -7.41824 
631 1 17.134 4.483 3 6.02258 -115471 -165912 -12927 8510.59 5148.7 -28723.4 -7.41466 
632 1 17.812 3.238 3 6.02327 -169042 -153075 42712.8 9002.76 43298.6 -36598.4 -7.41744 
633 1 17.072 2.028 3 6.02641 -109200 -152874 -4171.54 17610 -6714.72 -28165.9 -7.41452 
634 1 17.75 0.783 3 6.02434 -165885 -161337 18343.8 4365.31 31089.4 -33974.2 -7.41629 
695 1 19.414 10.568 3 6.02527 -111852 -153783 -28461.4 21943.7 1412.05 -6954.01 -7.41342 
697 1 19.352 8.113 3 6.0261 -160774 -151941 -17240.8 22785.2 3204.86 -18630.3 -7.41433 
699 1 19.291 5.658 3 6.02479 -115790 -135601 -6804.22 -6550.31 5812.85 -26636.6 -7.41416 
701 1 19.229 3.202 3 6.02283 -158165 -152327 2894.66 20984.2 166.553 -30385.1 -7.41549 
703 1 19.167 0.747 3 6.02237 -161847 -165944 15580.5 24318.8 -15904.4 -32907.7 -7.416 
1938 2 11.094 10.106 6.4 6.02213 -162063 -139819 -24861.7 23996.6 12682.2 -7328.99 -7.41387 
1939 2 10.416 8.86 6.4 6.02396 -131959 -125898 32230.9 6701.64 1848.83 -31913.9 -7.41613 
1940 2 11.155 7.65 6.4 6.02393 -116345 -160371 -31135 7886.17 6118.21 -1036.27 -7.41362 
1941 2 10.477 6.405 6.4 6.0261 -176551 -141526 31575 -22160 9036.02 -20511.4 -7.41674 
1942 2 11.217 5.195 6.4 6.0261 -157131 -146525 -30251.8 -5028.06 1114.41 2099.1 -7.41353 
1943 2 10.539 3.95 6.4 6.02338 -125630 -142971 22592.2 -25325 16185 -11082.4 -7.41604 
1944 2 11.279 2.74 6.4 6.02306 -153478 -112171 -21618.1 7257.94 -5217.68 1066.23 -7.41385 
1945 2 10.601 1.494 6.4 6.02266 -132976 -160656 6501.98 21338.8 16837 -4326.8 -7.41505 
1946 2 11.34 0.285 6.4 6.02174 -129054 -171718 -5724.64 38273.5 -12947.8 -2261.45 -7.41477 
2007 2 12.511 10.141 6.4 6.02658 -172622 -110752 49473 -6866.31 10875.9 -48052.8 -7.41755 
2008 2 13.251 8.931 6.4 6.02283 -157012 -141829 -27277.7 -6763.36 14958.7 -15806.1 -7.4141 
2009 2 12.573 7.686 6.4 6.02582 -137775 -163193 45236.5 -5723.78 15332.5 -35844.8 -7.41723 
2010 2 13.312 6.476 6.4 6.02506 -114173 -163843 -30035.8 8323 9712.68 -9623.15 -7.41346 
2011 2 12.634 5.231 6.4 6.02196 -174342 -141572 35427.7 -25661.8 20702.6 -22276.2 -7.41738 
2012 2 13.374 4.021 6.4 6.0261 -102013 -113130 -25708.2 7992.31 1545.98 -4795.08 -7.41319 
2013 2 12.696 2.775 6.4 6.02213 -175475 -141538 18853.1 6025.31 22286.5 -10335.4 -7.41589 
2014 2 13.436 1.566 6.4 6.02213 -165005 -141242 -13719.9 24769.1 -10250.6 -3462.91 -7.41442 
2015 2 12.758 0.32 6.4 6.02305 -122666 -139960 -749.521 10572.2 18064.1 -2980.82 -7.41444 
2076 2 15.346 10.212 6.4 6.02393 -119082 -164836 -20929.2 10645.2 17610.6 -22181.7 -7.41406 
2077 2 14.668 8.967 6.4 6.0261 -178417 -148354 66665.9 -18463.1 24240.6 -47171.8 -7.4189 
2078 2 15.408 7.757 6.4 6.0261 -157184 -149223 -23912.7 -4526.81 15525.3 -22513.3 -7.4137 
2079 2 14.73 6.512 6.4 6.02338 -126621 -147437 53105.2 -20808.6 30028 -38738.7 -7.4181 
2080 2 15.47 5.302 6.4 6.02306 -150336 -113098 -22530.9 5081.2 9966.62 -20500 -7.41367 
2081 2 14.792 4.056 6.4 6.02283 -135262 -162026 34247.3 21881 31616.1 -28034.5 -7.41681 
2082 2 15.531 2.847 6.4 6.02283 -122896 -161537 -15504.3 38474.2 -2257.9 -18316.9 -7.41397 
2083 2 14.853 1.601 6.4 6.02583 -161664 -112605 13096.7 -9308.8 26039 -18870.4 -7.41547 
2084 2 15.593 0.391 6.4 6.02494 -163966 -155887 -1118.53 -13830.5 -19497.4 -18740.5 -7.41548 
2145 2 16.764 10.248 6.4 6.02582 -138574 -171378 96664.4 -144.31 26340.8 -41603.3 -7.42015 
2146 2 17.503 9.038 6.4 6.02582 -119304 -170508 -20563.5 12880.2 11900 -21266 -7.41374 
2147 2 16.825 7.793 6.4 6.02196 -176601 -149218 79499.7 -20357.8 35515.5 -43496.2 -7.41998 
2148 2 17.565 6.583 6.4 6.02603 -104507 -119288 -16096.8 6963.26 11635.1 -28015.8 -7.41345 
2149 2 16.887 5.337 6.4 6.02213 -179091 -148159 57707.1 10536.4 40558.8 -41055.9 -7.41812 
2150 2 17.627 4.128 6.4 6.02213 -161839 -146243 -9904.25 22656.5 4941.74 -31245.6 -7.41466 
2151 2 16.949 2.882 6.4 6.02396 -124174 -135229 33725.3 8142.62 36581.3 -35152 -7.41625 
2152 2 17.688 1.672 6.4 6.02489 -118713 -168136 593.341 5514.57 -11264.1 -32459.6 -7.41514 
2153 2 17.01 0.427 6.4 6.02613 -166107 -157282 11729.1 -15168.3 23280 -29927.1 -7.41614 
2215 2 18.921 9.074 6.4 6.02393 -137497 -168338 111743 -1794.09 30749.9 -31869.7 -7.42149 
2217 2 18.983 6.618 6.4 6.02056 -146536 -183442 87891.4 15031.3 41456.7 -38436.4 -7.41994 
2219 2 19.044 4.163 6.4 6.02658 -166055 -120137 61254.2 -4760.31 44094.9 -39428.7 -7.41811 
2221 2 19.106 1.708 6.4 6.02582 -127020 -171718 35489.5 -1836.24 34236.9 -36289.1 -7.41671 
696 1 20.092 9.323 3 6.02479 -176814 -156336 125540 12218.3 14905.8 -25824.1 -7.42174 
698 1 20.03 6.868 3 6.02393 -135572 -171578 100166 -2288.31 32026.9 -30980.3 -7.42051 
700 1 19.969 4.412 3 6.02659 -168124 -119542 71404.5 -1375.28 43623 -34620.5 -7.4186 
702 1 19.907 1.957 3 6.02656 -117758 -159270 42993.4 10226.9 39692.3 -36845.5 -7.41679 
764 1 22.249 10.497 3 6.02658 -128442 -156455 151592 12978.6 4050.28 -9253.67 -7.42265 
765 1 21.509 9.287 3 6.02196 -161366 -151492 -27888.4 21430.3 -8251.46 -4560.16 -7.41386 
766 1 22.187 8.042 3 6.02506 -136184 -174592 128322 -3009.05 19334.8 -13729.3 -7.42156 
767 1 21.448 6.832 3 6.02582 -121506 -172821 -8066.52 3971.92 -2102.97 -13424.1 -7.41449 
768 1 22.126 5.587 3 6.02283 -173254 -154108 99115.4 14182.6 36853.4 -18765.7 -7.42069 
769 1 21.386 4.377 3 6.02659 -155815 -119485 7076.6 5926.06 641.283 -19092.1 -7.41532 
770 1 22.064 3.131 3 6.0261 -124840 -139183 68242.5 -14828.6 42555.6 -23658.8 -7.4182 
771 1 21.325 1.921 3 6.01897 -124577 -188802 20366.7 17040.2 -9014.12 -22452.1 -7.41661 
772 1 22.002 0.676 3 6.02266 -130825 -202980 42091.9 4266.49 31444.1 -27332 -7.41737 
833 1 23.667 10.461 3 6.0205 -127881 -178781 -44297.4 15869.4 -14855.8 1436.08 -7.41339 
834 1 24.344 9.216 3 6.02299 -142172 -188292 146575 11448.4 11949.1 469.773 -7.42289 
835 1 23.605 8.006 3 6.02582 -122720 -169364 -18555.3 375.295 -11554.9 -686.809 -7.41421 
836 1 24.283 6.761 3 6.02479 -174872 -156446 119587 12958.1 29339.2 721.066 -7.4214 
837 1 23.543 5.551 3 6.0261 -160963 -155663 3939.49 15098.1 -3832.46 -2105.78 -7.41554 
838 1 24.221 4.306 3 6.02393 -130689 -174666 88312.1 -296.755 41465.3 -1850.62 -7.41968 
839 1 23.482 3.096 3 6.02479 -115603 -141042 19799 -12529.6 -5530.8 -3352.93 -7.41563 
840 1 24.16 1.85 3 6.0222 -160062 -124589 59390.9 2321.57 37749.4 -5749.95 -7.41787 
841 1 23.42 0.64 3 6.0211 -114093 -170465 36152.5 22375.5 -20104.3 -5381.19 -7.41689 
902 1 26.502 10.39 3 6.02306 -169595 -120462 151428 2246.74 12133.2 7487.8 -7.4229 
903 1 25.762 9.18 3 6.02338 -114193 -150387 -30340.4 12048.1 -13606.6 3608.35 -7.41354 
904 1 26.44 7.935 3 6.0261 -175852 -157272 128385 13704.8 26412.6 14583.5 -7.42174 
905 1 25.7 6.725 3 6.02479 -161588 -154342 -6213.59 10575.4 -6923.96 10407.1 -7.41502 
906 1 26.378 5.48 3 6.02582 -133466 -176329 99285.2 -1613.38 40101.2 18435.4 -7.41996 
907 1 25.639 4.27 3 6.02582 -119782 -176362 12405 -3800.52 -3518.6 15148.2 -7.41559 
908 1 26.317 3.025 3 6.02283 -167701 -155614 69323.2 16295.9 41923.3 17478.1 -7.41909 
909 1 25.577 1.815 3 6.02658 -154824 -125290 27469.9 966.174 -12975 16633 -7.41612 
910 1 26.255 0.569 3 6.02454 -110978 -136318 43953 -4707.27 28752.7 14169.7 -7.41679 
971 1 27.919 10.355 3 6.02213 -165402 -148213 -34540.8 -23971.8 -6271.74 2723.2 -7.41329 
972 1 28.597 9.109 3 6.0261 -121262 -123436 125311 500.979 26867.8 23247.2 -7.42127 
973 1 27.857 7.899 3 6.02196 -160025 -151083 -16238.1 8995.29 -3364.99 15415.2 -7.41482 
974 1 28.535 6.654 3 6.02507 -133240 -175203 100370 885.061 39632 31419.3 -7.42036 
975 1 27.796 5.444 3 6.02582 -119747 -174445 50.7643 -7566.83 512.311 25519.1 -7.41492 
976 1 28.474 4.199 3 6.02479 -171344 -156168 71786.4 15377.1 44547.7 34015.5 -7.41894 
977 1 27.734 2.989 3 6.0261 -158428 -156745 13568.2 9834.6 -5312.88 31314.3 -7.41597 
978 1 28.412 1.744 3 6.02393 -124822 -173682 44769.4 2423.39 35622.8 31900.2 -7.41742 
979 1 27.673 0.534 3 6.0249 -114701 -152112 28759.8 -10735.2 -22334.7 32579.8 -7.41648 
2214 2 19.599 10.319 6.4 6.0261 -160626 -151862 -28320.4 -3100.23 1080.58 -7655.37 -7.41379 
2216 2 19.66 7.864 6.4 6.02048 -120417 -152684 -16117.6 9047.31 3337.53 -20438.6 -7.4141 
2218 2 19.722 5.409 6.4 6.02283 -123364 -166988 -4351.55 37815.9 4592.08 -30325.1 -7.41485 
2220 2 19.784 2.953 6.4 6.02283 -157906 -151979 6457.1 -10766.4 -3836.22 -35783.2 -7.41592 
2222 2 19.845 0.498 6.4 6.02372 -115786 -151864 21050.4 16779 -22316 -37362.3 -7.4156 
2283 2 21.016 10.355 6.4 6.02283 -176327 -151271 141911 -15418.8 17832.9 -13991.9 -7.42315 
2284 2 21.756 9.145 6.4 6.02658 -155615 -119382 -27525 4965.06 -8969.06 -6998.28 -7.41336 
2285 2 21.078 7.899 6.4 6.02224 -133125 -153381 119391 15177.2 31338.4 -23634.9 -7.42097 
2286 2 21.818 6.69 6.4 6.01795 -164593 -150704 -6880.29 20433.8 -3331.24 -17683.1 -7.41496 
2287 2 21.14 5.444 6.4 6.02396 -127936 -141503 91071.9 12654.9 42622.8 -29162.1 -7.41927 
2288 2 21.879 4.234 6.4 6.02393 -119033 -172937 9403.08 3628.61 -1942.09 -25194.2 -7.41577 
2289 2 21.201 2.989 6.4 6.0261 -168219 -157257 62280.3 -15103.1 42005.7 -29077.1 -7.41839 
2290 2 21.941 1.779 6.4 6.02612 -158416 -158827 23381.8 -11160.1 -13052.5 -28256.7 -7.41642 
2291 2 21.263 0.534 6.4 6.02546 -125326 -182999 37473.2 3546.57 27521.5 -25866.7 -7.41721 
2352 2 23.851 10.426 6.4 6.02396 -113710 -133818 -44374.8 14081 -15154.8 -614.125 -7.41254 
2353 2 23.173 9.18 6.4 6.01795 -179817 -150812 144059 15233.7 15908.3 -7608.75 -7.42279 
2354 2 23.913 7.971 6.4 6.02224 -116831 -150983 -18396.4 19057.2 -11884.1 -4622.05 -7.41403 
2355 2 23.235 6.725 6.4 6.02658 -169079 -124198 117188 -1853.87 32201.2 -11942.5 -7.42077 
2356 2 23.975 5.515 6.4 6.02283 -160638 -153038 4307.13 -14476.2 -4428.98 -8274.45 -7.41593 
2357 2 23.297 4.27 6.4 6.02582 -130936 -177325 86447.2 1761.58 42371.6 -12045.5 -7.41923 
2358 2 24.036 3.06 6.4 6.02582 -119173 -177467 20752.2 2531.42 -6497.36 -9959.48 -7.416 
2359 2 23.358 1.815 6.4 6.02283 -164134 -157083 58077 -15960.5 37118 -8982.01 -7.41848 
2360 2 24.098 0.605 6.4 6.02663 -158185 -136550 36880 -7464.33 -21229.3 -9184.97 -7.41663 
2421 2 25.269 10.461 6.4 6.02224 -130297 -152306 156405 18028 4327.58 2750.7 -7.42309 
2422 2 26.009 9.252 6.4 6.01795 -166036 -146513 -30587.6 11087.8 -13111.5 804.604 -7.41374 
2423 2 25.331 8.006 6.4 6.02396 -127770 -141226 133134 12764.4 19450 3839.52 -7.42167 
2424 2 26.07 6.796 6.4 6.02393 -121772 -170283 -6777.17 -3430.54 -6080.63 5408.32 -7.41496 
2425 2 25.392 5.551 6.4 6.0261 -173248 -157377 103589 -12745.1 36587.2 6539.76 -7.42052 
2426 2 26.132 4.341 6.4 6.0261 -159769 -156739 11181.6 -15897.9 -1978.84 8519.21 -7.41589 
2427 2 25.454 3.096 6.4 6.02393 -127838 -175219 72580.7 601.567 41839.6 10872.6 -7.41886 
2428 2 26.193 1.886 6.4 6.02396 -112034 -142392 25867.8 10556.4 -10804.4 10973.5 -7.41619 
2429 2 25.515 0.64 6.4 6.02144 -160132 -134430 46506.8 4024.86 30774.8 14813.7 -7.41729 
2490 2 28.104 10.533 6.4 6.02224 -118725 -148055 -35031.7 7446.05 -5463.72 1423.41 -7.41289 
2491 2 27.426 9.287 6.4 6.02658 -170587 -122372 136879 -910.309 11572.3 15954.2 -7.42193 
2492 2 28.166 8.077 6.4 6.02283 -161367 -149533 -17115 -23294.6 -2668.64 12445.1 -7.41475 
2493 2 27.488 6.832 6.4 6.02582 -135437 -175164 110069 3485.27 29579.3 21572.5 -7.4206 
2494 2 28.227 5.622 6.4 6.02582 -120209 -173435 -1769.02 -4011.33 2338.75 20591.7 -7.41479 
2495 2 27.549 4.377 6.4 6.02283 -171065 -154323 80071.7 -13634.8 42358.1 26673.6 -7.41969 
2496 2 28.289 3.167 6.4 6.02658 -152866 -123389 10429.5 -6073.04 -1474.92 25183.1 -7.41525 
2497 2 27.611 1.921 6.4 6.02283 -119389 -157221 51154.6 19682.7 39189.1 30695.3 -7.4174 
2498 2 28.351 0.712 6.4 6.01874 -164424 -163492 24235.7 8018.53 -17162.6 28499.7 -7.41672 
1040 1 30.754 10.283 3 6.02283 -142458 -168399 113166 -30203.8 26039.1 32312.4 -7.421 
1041 1 30.015 9.074 3 6.02283 -122123 -168032 -21380 -40271.8 5363.85 16793.1 -7.41394 
1042 1 30.693 7.828 3 6.02306 -170728 -119850 93397 5052.07 36971 39043.8 -7.42001 
1043 1 29.953 6.618 3 6.02338 -108746 -153040 -11806.6 5394.26 7460.56 27540 -7.41462 
1044 1 30.631 5.373 3 6.0261 -174265 -154985 68886.4 17261.8 43686.6 41199.6 -7.4187 
1045 1 29.891 4.163 3 6.02479 -157845 -153281 -2519.53 7284.31 3224.09 34049.6 -7.41509 
1046 1 30.569 2.918 3 6.02582 -129373 -172104 42801.2 2114.34 39730.6 38527.8 -7.41704 
1047 1 29.83 1.708 3 6.02658 -120120 -171373 8918.84 -6711.48 -11963.4 36886.5 -7.41536 
1048 1 30.508 0.463 3 6.02192 -158087 -128945 20253.3 31149.9 24820.8 34360.3 -7.41614 
1109 1 32.172 10.248 3 6.02396 -114044 -135803 -20929.6 -25122.9 14200.1 19459.7 -7.4134 
1110 1 32.85 9.002 3 6.01995 -182113 -146017 81003.6 -12015.4 29518.9 45334.2 -7.41982 
1111 1 32.11 7.793 3 6.02213 -162353 -147400 -20086.3 -25427.9 13955.2 25065.6 -7.41391 
1112 1 32.788 6.547 3 6.02603 -123886 -118656 63195.4 7370.74 36532.5 42334.8 -7.41766 
1113 1 32.048 5.337 3 6.02196 -156235 -147024 -16577.3 8817.35 10216.1 27702.7 -7.41468 
1114 1 32.726 4.092 3 6.02582 -132888 -168175 41210.1 4256.91 37518.3 35652.4 -7.41701 
1115 1 31.987 2.882 3 6.02582 -118182 -168461 -9328.65 -8394.1 -1921.87 28218.3 -7.41431 
1116 1 32.665 1.637 3 6.02477 -168191 -146715 18521.9 20035.7 29363 28456 -7.4162 
1117 1 31.925 0.427 3 6.02741 -158878 -124843 4904.23 -3793.54 -20849.3 29019.3 -7.4151 
1178 1 35.007 10.177 3 6.02283 -177049 -147259 63968 19593.1 17867.8 50527.5 -7.41897 
1179 1 34.267 8.967 3 6.02666 -158722 -146892 -24381.7 8856.04 16811.4 21265.3 -7.41388 
1180 1 34.945 7.722 3 6.02144 -139282 -161459 54966.3 9121.87 23638.9 41515.2 -7.41817 
1181 1 34.206 6.512 3 6.02048 -119249 -143094 -26044.5 -7988.03 12755 17965.3 -7.41349 
1182 1 34.883 5.266 3 6.02048 -137828 -143017 40707.9 8405.94 27930.6 29683.6 -7.41704 
1183 1 34.144 4.056 3 6.02393 -117383 -159812 -22474.5 -6967.99 3924.66 14165.6 -7.41421 
1184 1 34.822 2.811 3 6.0261 -170837 -145228 21747 22019.8 27205.6 18302.4 -7.41628 
1185 1 34.082 1.601 3 6.02612 -159915 -146659 -11229.4 5715.46 -10527.2 12593.1 -7.41453 
1186 1 34.76 0.356 3 6.02546 -127653 -171831 1083.64 2232.7 19961.4 11062.7 -7.4152 
1247 1 36.424 10.141 3 6.02479 -158089 -144467 -24539.7 4596.55 16108.4 15301.8 -7.41387 
1248 1 37.102 8.896 3 6.02582 -138116 -162283 42399.3 4950.29 8742.79 39198.9 -7.41707 
1249 1 36.363 7.686 3 6.02582 -116639 -163002 -30534.3 -10097.1 10517.2 8709.58 -7.41323 
1250 1 37.041 6.441 3 6.02196 -175716 -140704 37783.5 25365.7 14561.4 25715 -7.4175 
1251 1 36.301 5.231 3 6.02603 -105685 -110193 -29689.4 -6187.15 4343.06 2934.39 -7.4128 
1252 1 36.979 3.985 3 6.02658 -169745 -109073 26155 11634.4 19595.5 13054.6 -7.41594 
1253 1 36.239 2.775 3 6.02283 -159155 -141673 -21353.8 6620.5 -4564.67 423.565 -7.41448 
1254 1 36.917 1.53 3 6.02582 -128462 -164151 8356.04 7740.26 19350 3738.37 -7.41515 
1255 1 36.178 0.32 3 6.02371 -125714 -175760 -5535.23 -6132.81 -15479.4 1950.68 -7.41452 
1317 1 38.52 8.86 3 6.02582 -116872 -163747 -27977.2 -9787.55 6984.98 120.134 -7.41339 
1319 1 38.458 6.405 3 6.0261 -156665 -146929 -30810.1 5201.05 2043.72 -3058.99 -7.41351 
1320 1 39.136 5.16 3 6.02338 -125187 -142261 25423.4 22801.5 12199.5 15303.4 -7.41638 
1321 1 38.396 3.95 3 6.02299 -154349 -110506 -26570.3 -7127.62 -2227.17 -1309.47 -7.41365 
1322 1 39.074 2.704 3 6.02479 -125359 -128082 13093.7 -2448.48 16879 9627.53 -7.41529 
1323 1 38.335 1.494 3 6.0224 -121541 -163949 -14647.1 -10671.1 -8251.2 3197.39 -7.41446 
1324 1 39.013 0.249 3 6.02606 -168755 -156844 -3745.93 17774.5 13609.7 5056.8 -7.41505 
2559 2 29.522 10.568 6.4 6.02048 -137644 -153667 128632 1301.28 10547.6 28110 -7.42184 
2560 2 30.261 9.358 6.4 6.02393 -121042 -165647 -22007.1 -10982.7 4770.33 16239.6 -7.41427 
2561 2 29.583 8.113 6.4 6.0261 -176754 -154446 107740 -11006.1 25090.2 33000 -7.42101 
2562 2 30.323 6.903 6.4 6.0261 -159592 -151513 -13360.3 -22129.4 7015.28 25491.9 -7.4145 
2563 2 29.645 5.658 6.4 6.02393 -134130 -171138 80214.7 3267.78 40244.5 36214.5 -7.41945 
2564 2 30.384 4.448 6.4 6.02396 -112722 -136850 -5534.62 7382.09 5147.04 29983.7 -7.41419 
2565 2 29.706 3.202 6.4 6.01795 -172883 -151145 51949.5 18775.4 43997.6 37495.8 -7.4179 
2566 2 30.446 1.993 6.4 6.02224 -115586 -151104 4148.5 10709.6 -6571.86 31855.7 -7.41475 
2567 2 29.768 0.747 6.4 6.02466 -159682 -132900 26897.7 8141.26 31935.7 37702.8 -7.41606 
2629 2 31.679 9.394 6.4 6.02582 -137988 -171978 96416.6 5549.54 22851.2 43538.1 -7.42015 
2630 2 32.418 8.184 6.4 6.02582 -119246 -167744 -20931.2 -7634.06 10413.3 26247 -7.41368 
2631 2 31.74 6.939 6.4 6.02283 -176074 -149314 75852.2 -10406.1 35966.1 41354.1 -7.41971 
2632 2 32.48 5.729 6.4 6.02658 -152072 -113598 -18942.7 -9225 7655.11 27251.5 -7.41385 
2633 2 31.802 4.483 6.4 6.02283 -137289 -164459 50950.4 37037.8 43359.5 36751 -7.41775 
2634 2 32.541 3.274 6.4 6.02056 -129057 -176826 -13027.9 11038.3 -514.826 25225.6 -7.41446 
2635 2 31.864 2.028 6.4 6.01974 -127118 -151022 26003.8 6231.69 37761.6 31989.8 -7.41618 
2636 2 32.603 0.818 6.4 6.02371 -123693 -173703 -481.54 -12460 -14731.2 24688.3 -7.41532 
2698 2 34.514 9.465 6.4 6.0261 -159036 -145599 -23906.1 -22641.4 11647.4 24684.5 -7.41391 
2699 2 33.836 8.22 6.4 6.02393 -137392 -165684 66419.6 6579.3 28675.6 44522.3 -7.41887 
2700 2 34.575 7.01 6.4 6.02396 -111804 -129606 -27282.1 5975.1 6277.89 20885.9 -7.41304 
2701 2 33.897 5.764 6.4 6.02213 -179440 -143880 49584.9 24194.7 36241.2 33546.9 -7.41788 
2702 2 34.637 4.555 6.4 6.02213 -162114 -141508 -25072 8525.45 -62.7888 14648.3 -7.41366 
2703 2 33.959 3.309 6.4 6.02603 -117380 -115870 28725.6 7003.8 36188.8 22712.7 -7.41578 
2704 2 34.699 2.099 6.4 6.02337 -159225 -142950 -15242.5 -23982.9 -9335.59 10133.7 -7.41469 
2705 2 34.021 0.854 6.4 6.02659 -127578 -173613 6680.19 14421.1 26240.5 15275.3 -7.41549 
2767 2 35.931 9.501 6.4 6.02283 -177522 -143312 52793.5 -8195.37 18480.6 45352.7 -7.41845 
2768 2 36.671 8.291 6.4 6.02658 -151652 -108940 -29973.4 -9095.94 3489.03 13164.5 -7.41332 
2769 2 35.993 7.045 6.4 6.02283 -140870 -160241 45390.2 40873.9 23496.6 31105.6 -7.41722 
2770 2 36.732 5.836 6.4 6.02283 -119603 -158590 -30938.3 22207.4 -2059.24 5766.52 -7.41346 
2771 2 36.054 4.59 6.4 6.02306 -166882 -111596 32287.7 7955.04 26674.8 17633.5 -7.41652 
2772 2 36.794 3.38 6.4 6.02338 -109554 -143899 -24485.5 -22266.3 -7330.39 321.818 -7.41399 
2773 2 36.116 2.135 6.4 6.02615 -169690 -145372 13933.2 -3324.51 24115.1 7582.98 -7.41572 
2774 2 36.856 0.925 6.4 6.02721 -158821 -121454 -10361.5 -11617 -13928.9 -639.778 -7.41437 
2836 2 38.766 9.572 6.4 6.02396 -112150 -129180 -25644.4 6713.81 3379 3724.6 -7.41318 
2837 2 38.088 8.326 6.4 6.02213 -181165 -137907 35359.4 25224.8 8920.3 29047.7 -7.417 
2838 2 38.828 7.117 6.4 6.02213 -161773 -141961 -30084.1 7780.19 -2361.9 -112.971 -7.41353 
2839 2 38.15 5.871 6.4 6.0261 -119428 -111986 31576.5 10593.3 13267.8 18093.8 -7.41605 
2840 2 38.89 4.661 6.4 6.02196 -158136 -143374 -28309.7 -25762.5 -3892.49 -1186.85 -7.41427 
2841 2 38.212 3.416 6.4 6.02506 -129234 -164495 20105.2 11467.1 16394.6 11353 -7.41594 
2842 2 38.951 2.206 6.4 6.02506 -121816 -166517 -19203.1 -8274.83 -7341.45 1035.99 -7.41392 
2843 2 38.273 0.961 6.4 6.02434 -169440 -154375 2972.34 1873.12 14432.8 7476.57 -7.41557 
1316 1 39.259 10.07 3 6.02582 -137357 -158730 24869.9 3690.42 -1972.44 33238.9 -7.41606 
1318 1 39.198 7.615 3 6.02479 -177254 -140226 28688 21218.2 2866.32 23433.1 -7.41658 
1385 1 40.677 10.034 3 6.02393 -117167 -164136 -17681.2 -7018.32 6736.5 -8182.55 -7.41427 
1386 1 41.355 8.789 3 6.0261 -177191 -137128 12907 18904.2 -3182.72 19507.1 -7.41577 
1387 1 40.615 7.579 3 6.02479 -157103 -148179 -24612.6 4824.79 1861.2 -6658.89 -7.41406 
1388 1 41.293 6.334 3 6.02582 -136982 -158847 16152.9 4317.71 9433.68 19706 -7.41552 
1389 1 40.554 5.124 3 6.02506 -116157 -169004 -27121.2 -10781.6 1531.16 2619.5 -7.41385 
1390 1 41.232 3.879 3 6.02196 -172543 -141090 9375.4 23802.4 18727.3 22712 -7.41594 
1391 1 40.492 2.669 3 6.02603 -107238 -116648 -22707.5 -11302.5 -1303.75 15660.8 -7.41355 
1392 1 41.17 1.423 3 6.02583 -164295 -113220 -4799.92 10726.9 15415.9 24257.6 -7.41439 