ITEM: TIMESTEP
0
ITEM: NUMBER OF ATOMS
7352
ITEM: BOX BOUNDS pp pp pp
0.0000000000000000e+00 7.4560136700000001e+01
0.0000000000000000e+00 1.2914194499999999e+02
0.0000000000000000e+00 1.8399999600000001e+01
ITEM: ATOMS id type x y z c_csym c_2[1] c_2[2] c_2[3] c_2[4] c_2[5] c_2[6] c_3 
1 1 0 0 7.5 6.0491 5140.88 5026.11 -158818 -24.5297 0.022104 0.199887 -7.40754 
2 1 2.14999 1.19446 7.5 6.04915 3726.47 6661.63 -157586 -2942.92 4733.19 -8470.52 -7.40761 
3 1 3.5698 1.17104 7.5 6.04919 6760.69 3470.66 -156308 5080.48 3699.75 -12661.5 -7.40769 
4 1 6.40941 1.1242 7.5 6.04919 4019.75 5066.56 -150400 -8177.82 6445.93 -23396.4 -7.40804 
5 1 7.82922 1.10077 7.5 6.04919 6607.72 2521.87 -148347 10258.6 56.1259 -24863.5 -7.40816 
36 1 0.0405659 2.45918 7.5 6.04911 1601.61 8495.36 -157716 -168.079 8914.25 -104.689 -7.4076 
37 1 1.46037 2.43576 7.5 6.04914 8373.41 2012.97 -157270 2231.9 9477.01 -5025.33 -7.40762 
38 1 2.19056 3.65364 7.5 6.04915 60.4518 10033.9 -155350 -2851.02 12852.8 -9015.49 -7.40774 
39 1 3.61037 3.63021 7.5 6.0492 9675.84 360.185 -154282 5408.37 13299.2 -11345.4 -7.40781 
40 1 4.29999 2.38892 7.5 6.04919 2053.75 7654.7 -153736 -5512.05 9447.27 -16951.8 -7.40784 
41 1 5.71979 2.36549 7.5 6.04919 8237.41 1669.22 -152628 8035.95 6787.72 -18315.1 -7.40791 
42 1 6.44998 3.58337 7.5 6.0492 284.587 8075.67 -147191 -7685.64 13813.8 -24829.6 -7.40823 
43 1 7.86979 3.55995 7.5 6.0492 9617.33 -22.1086 -148040 10757.8 8862.74 -22099.1 -7.40818 
44 1 8.55941 2.31865 7.5 6.04919 2312.75 5293.67 -142781 -10071.6 11570.4 -30167.8 -7.4085 
106 1 0.0811318 4.91835 7.5 6.04911 -2074.52 11803.3 -154760 -326.119 16326.2 -184.573 -7.40778 
107 1 1.50094 4.89493 7.5 6.04915 10909.9 -1232.42 -153515 2453.78 19159.6 -4519.64 -7.40785 
108 1 2.23113 6.11281 7.5 6.04915 -3574.76 13217.6 -151565 -2730.45 19202 -9327.66 -7.40797 
109 1 3.65093 6.08939 7.5 6.0492 11872.7 -2660.85 -149647 5663.28 22574.2 -9755 -7.40808 
110 1 4.34055 4.84809 7.5 6.0492 -1674.3 10794 -150304 -5184.54 16452.7 -17725 -7.40804 
111 1 5.76036 4.82467 7.5 6.0492 10846.2 -1184.65 -150075 8419.75 16010.5 -16001.1 -7.40806 
112 1 6.49055 6.04255 7.5 6.0492 -3433.03 10953.4 -142594 -7091.99 19485.3 -25679.4 -7.40851 
113 1 7.91035 6.01913 7.5 6.0492 11905.8 -2454.92 -145316 11100.5 17520.8 -18835.7 -7.40835 
114 1 8.59997 4.77783 7.5 6.0492 -1515.26 7947.96 -138060 -9382.03 17611.5 -31666.1 -7.40878 
176 1 0.121698 7.37753 7.5 6.04911 -5554.31 14916.2 -150564 -465.76 21740.5 -258.164 -7.40803 
177 1 1.5415 7.35411 7.5 6.04915 12679.3 -4299.27 -147083 2620.59 28150.8 -3909.57 -7.40823 
178 1 2.27169 8.57199 7.5 6.04915 -6879.21 16163 -146884 -2552.81 23444.7 -9458.2 -7.40825 
179 1 3.6915 8.54857 7.5 6.0492 13253.7 -5464.65 -142403 5805.04 30932.7 -7947.96 -7.40852 
180 1 4.38112 7.30727 7.5 6.0492 -5214.69 13767.7 -145701 -4765.09 21523.4 -18104.2 -7.40832 
181 1 5.80093 7.28385 7.5 6.0492 12683.6 -3849.36 -144961 8644.13 24673.8 -13324.5 -7.40837 
182 1 6.53111 8.50173 7.5 6.0492 -6833.18 13653.9 -137250 -6371.51 23171 -26036.7 -7.40883 
183 1 7.95092 8.47831 7.5 6.0492 13359.1 -4671.98 -140105 11250.6 25485.6 -15196.1 -7.40866 
184 1 8.64054 7.23701 7.5 6.0492 -5173.22 10514.8 -132394 -8531.58 21841.7 -32518.8 -7.40912 
6 1 10.6688 1.05393 7.5 6.04919 4341.42 2598.99 -137707 -12210.1 9910.85 -33506.5 -7.4088 
7 1 12.0886 1.03051 7.5 6.04919 6593.6 896.821 -136208 13914.8 -5513.01 -32166.5 -7.40889 
8 1 14.9283 0.983671 7.5 6.04919 4710.97 -374.878 -121936 -14530.1 14693.2 -38083.4 -7.40975 
9 1 16.3481 0.96025 7.5 6.04919 6712.75 -1342.55 -121951 15678.8 -12138.7 -34717.9 -7.40975 
45 1 9.97921 2.29523 7.5 6.04919 8205.02 706.175 -143405 12591.2 1560.6 -27588.4 -7.40846 
46 1 10.7094 3.51311 7.5 6.0492 497.114 4958.33 -132697 -11472.6 16126.5 -35740.4 -7.4091 
47 1 12.1292 3.48969 7.5 6.0492 9709.25 -852.007 -138549 14488.9 2176.35 -28501.4 -7.40875 
48 1 12.8188 2.24839 7.5 6.04919 2603.63 2167.24 -127129 -13216.2 15151.8 -37826.9 -7.40944 
49 1 14.2386 2.22497 7.5 6.04919 8308.83 -797.928 -131405 15343.7 -5251.55 -32096.2 -7.40918 
50 1 14.9688 3.44285 7.5 6.0492 754.057 1179.27 -114500 -13704.4 19715.1 -40897.5 -7.4102 
51 1 16.3886 3.41943 7.5 6.0492 9888.91 -2252.94 -127481 16262.7 -5566.46 -30718.8 -7.40942 
52 1 17.0782 2.17813 7.5 6.04919 2949.88 -1452.51 -109345 -14569.7 19805 -40131.1 -7.41051 
53 1 18.4981 2.15471 7.5 6.04919 8490.27 -2996.88 -118408 16119.5 -12605.8 -32604.8 -7.40996 
115 1 10.0198 4.75441 7.5 6.0492 10919.3 -1428.98 -143207 13068.4 9884.45 -24012.7 -7.40847 
116 1 10.75 5.97229 7.5 6.0492 -3352.4 7265.09 -126579 -10575 20736.1 -37235 -7.40947 
117 1 12.1698 5.94887 7.5 6.0492 12087.9 -2479.3 -138725 14879.2 9958.99 -24288.6 -7.40875 
118 1 12.8594 4.70757 7.5 6.0492 -1356.54 4110.11 -120416 -12343.6 20009.8 -40010.3 -7.40984 
119 1 14.2792 4.68415 7.5 6.0492 11103.1 -2094.41 -134313 15856.4 2031.5 -27924.8 -7.40901 
120 1 15.0094 5.90203 7.5 6.0492 -3258.15 2740.92 -106258 -12689.1 23188.9 -43002.8 -7.41069 
121 1 16.4292 5.87861 7.5 6.0492 12301.2 -3052.07 -131100 16684.8 1324.92 -26245.3 -7.4092 
122 1 17.1188 4.63731 7.5 6.0492 -1141.38 -319.258 -100133 -13665.3 23552.5 -42772.9 -7.41106 
123 1 18.5386 4.61389 7.5 6.0492 11290.7 -3485.99 -124763 16644.4 -6269.03 -28398.7 -7.40958 
185 1 10.0603 7.21359 7.5 6.0492 12844.1 -3369.12 -140638 13331.7 17903.4 -19956.6 -7.40863 
186 1 10.7905 8.43147 7.5 6.0492 -6911.85 9483.75 -119978 -9483.16 23514.2 -38080.5 -7.40986 
187 1 12.2103 8.40804 7.5 6.0492 13600.1 -3905.37 -136576 15053.4 17353.3 -19661.1 -7.40887 
188 1 12.9 7.16675 7.5 6.0492 -5184.76 6047.17 -113056 -11256.7 23171.5 -41485.2 -7.41028 
189 1 14.3198 7.14332 7.5 6.0492 13080.7 -3207.34 -135066 16157.4 9289.15 -23291.2 -7.40897 
190 1 15.05 8.3612 7.5 6.0492 -7034.98 4293.97 -97826.6 -11430.9 24939 -44455.7 -7.4112 
191 1 16.4698 8.33778 7.5 6.0492 13816.8 -3674.85 -132565 16913.2 8108.83 -21400.5 -7.40912 
192 1 17.1594 7.09648 7.5 6.0492 -5169.83 862.49 -90558.3 -12525.1 25658.3 -44777.8 -7.41164 
193 1 18.5792 7.07306 7.5 6.0492 13250.1 -3811.43 -129174 16995.9 266.381 -23810.7 -7.40932 
10 1 19.1877 0.913409 7.5 6.04919 5103.95 -3833.27 -105356 -14931.2 20162.6 -38040.4 -7.41075 
11 1 20.6075 0.889988 7.5 6.04919 6905.87 -4364.75 -107347 15499 -18930.6 -33538.6 -7.41063 
12 1 23.4471 0.843147 7.5 6.04919 5450.42 -7850.62 -89733.5 -13467.9 25596.4 -34383.2 -7.41169 
13 1 24.8669 0.819726 7.5 6.04919 7094.12 -8183.85 -93778.4 13516 -25094.4 -29175 -7.41145 
14 1 27.7065 0.772884 7.5 6.04919 5678.71 -12086.4 -76576.8 -10376.6 30297 -27372.3 -7.41249 
54 1 19.2282 3.37259 7.5 6.0492 1071.89 -3099.73 -95133 -14119.5 24168.6 -41060.3 -7.41137 
55 1 20.648 3.34917 7.5 6.0492 10061.6 -4501.36 -116239 16065.8 -13293.2 -29667.9 -7.4101 
56 1 21.3377 2.10787 7.5 6.04919 3318.72 -5590.09 -91594 -14036.6 24898.7 -38171.3 -7.41158 
57 1 22.7575 2.08445 7.5 6.04919 8664.02 -6080.97 -105795 14992 -19604.5 -29965 -7.41072 
58 1 23.4877 3.30232 7.5 6.0492 1410.4 -7847.35 -76683.6 -12725.8 28803.6 -37147.8 -7.41248 
59 1 24.9075 3.2789 7.5 6.0492 10156.4 -7641.92 -105872 14035.9 -20193.4 -25798.8 -7.41072 
60 1 25.5971 2.0376 7.5 6.04919 3638.28 -10131.1 -75639.3 -11761.6 29699.7 -32589.5 -7.41255 
61 1 27.0169 2.01418 7.5 6.04919 8775.38 -9819 -94696.7 12152 -25527.9 -24299.5 -7.41139 
62 1 27.7471 3.23206 7.5 6.0492 1696.33 -12658.3 -61022.2 -9763.24 32889.4 -29453.5 -7.41343 
124 1 19.2688 5.83176 7.5 6.0492 -3096.28 -2330.25 -84366.6 -13127.2 26632.9 -43491.6 -7.41202 
125 1 20.6886 5.80834 7.5 6.0492 12426.8 -4540.29 -123449 16518.5 -7175.01 -25425 -7.40966 
126 1 21.3782 4.56704 7.5 6.0492 -861.152 -5235.97 -79648.3 -13193.1 27732.5 -40858.9 -7.4123 
127 1 22.798 4.54362 7.5 6.0492 11389.2 -5845.59 -115585 15514.5 -14039.7 -26129.3 -7.41013 
128 1 23.5282 5.7615 7.5 6.0492 -2868.11 -7791.25 -63293.2 -11847.9 30441.6 -39445.7 -7.4133 
129 1 24.948 5.73808 7.5 6.0492 12410.8 -6991.14 -116484 14490.3 -14715.5 -22136.2 -7.41008 
130 1 25.6377 4.49678 7.5 6.0492 -564.558 -10426.3 -61069.6 -11042.3 31814.6 -34852.7 -7.41343 
131 1 27.0575 4.47336 7.5 6.0492 11376.2 -8945.52 -107573 12620.2 -20582.2 -21169.1 -7.41061 
132 1 27.7876 5.69124 7.5 6.0492 -2627.37 -13147.6 -45283.4 -9075.61 33883.4 -31176.5 -7.41439 
194 1 19.3094 8.29094 7.5 6.0492 -7115.74 -1516.99 -73670.8 -11881.4 27401 -45351.7 -7.41267 
195 1 20.7292 8.26752 7.5 6.0492 13881.8 -4415.3 -128678 16818.2 -966.422 -20874.9 -7.40935 
196 1 21.4188 7.02622 7.5 6.0492 -5077.69 -4803.01 -67572.2 -12134 28916.5 -43024.1 -7.41304 
197 1 22.8386 7.0028 7.5 6.0492 13261.7 -5446.83 -123627 15910.5 -8133.89 -21991.3 -7.40965 
198 1 23.5688 8.22068 7.5 6.0492 -7105.84 -7654.7 -50183.4 -10750.5 30351.7 -41274.4 -7.4141 
199 1 24.9886 8.19726 7.5 6.0492 13765.9 -6155.28 -125285 14829.9 -9030.44 -18227.6 -7.40955 
200 1 25.6782 6.95596 7.5 6.0492 -4915.5 -10615 -46548.5 -10162.1 32242.8 -36703.3 -7.41432 
201 1 27.098 6.93254 7.5 6.0492 13130.7 -7874.71 -118879 13001 -15215.1 -17811.8 -7.40993 
202 1 27.8282 8.15042 7.5 6.0492 -7016.79 -13521.1 -29987.6 -8234.33 33103.9 -32541.3 -7.41533 
15 1 29.1263 0.749464 7.5 6.04919 7232.91 -12232.9 -82542.5 9984.53 -29954.9 -21519 -7.41212 
16 1 31.9659 0.702622 7.5 6.04919 5766.18 -15598.6 -67383.9 -6035.78 33671.9 -17031.7 -7.41304 
17 1 33.3857 0.679201 7.5 6.04919 7332.15 -15407.6 -75000.8 5287.97 -32978.1 -10719.3 -7.41258 
18 1 36.2254 0.63236 7.5 6.04919 5745.07 -17248.5 -63471.1 -953.74 35275.1 -4177.77 -7.41328 
63 1 29.1669 3.20864 7.5 6.0492 10173.2 -11130.8 -97324.7 10386.9 -25629.3 -18968.7 -7.41123 
64 1 29.8565 1.96734 7.5 6.04919 3844.32 -14396.2 -63161 -8066.7 33543.1 -23442.7 -7.4133 
65 1 31.2763 1.94392 7.5 6.04919 8835.79 -13349.9 -86267.6 7893.54 -29777.3 -15473.1 -7.4119 
66 1 32.0065 3.1618 7.5 6.0492 1870.35 -16551 -50023.7 -5633.55 35844.7 -18134.6 -7.4141 
67 1 33.4263 3.13838 7.5 6.0492 10182.5 -13923.3 -91584.2 5473.95 -29049.4 -9298.77 -7.41157 
68 1 34.1159 1.89708 7.5 6.04919 3919.43 -17245.3 -55796.7 -3405.74 35927.4 -11117.9 -7.41375 
69 1 35.5357 1.87366 7.5 6.04919 8901.19 -15523 -81644.9 2676.66 -31888.8 -4096.05 -7.41217 
70 1 36.2659 3.09154 7.5 6.0492 1914.5 -18363.4 -45318.7 -842.497 37289.5 -4173.95 -7.41438 
133 1 29.2075 5.66782 7.5 6.0492 12301.4 -9875.14 -110794 10759.3 -20671.2 -16223.3 -7.41042 
134 1 29.8971 4.42652 7.5 6.0492 -324.772 -15154.7 -46459.4 -7545.26 35126.3 -24910.3 -7.41432 
135 1 31.3169 4.4031 7.5 6.0492 11319.5 -11970.6 -101506 8209.98 -25303.1 -13382.4 -7.41098 
136 1 32.0471 5.62098 7.5 6.0492 -2444.7 -17382.6 -32592.9 -5217.77 36409.4 -19009.1 -7.41517 
137 1 33.4669 5.59756 7.5 6.0492 12226.4 -12239.1 -106964 5654.85 -24449.5 -7816.79 -7.41065 
138 1 34.1565 4.35626 7.5 6.0492 -196.475 -18260 -37809.7 -3164.43 37215.3 -11596.6 -7.41484 
139 1 35.5763 4.33284 7.5 6.0492 11332.2 -13865.6 -98151.3 2746.68 -27678.6 -3334.52 -7.41118 
140 1 36.3065 5.55071 7.5 6.0492 -2374.42 -19331.8 -27152.9 -767.047 37707.5 -4112.28 -7.4155 
203 1 29.248 8.127 7.5 6.0492 13560.8 -8384.9 -122599 11048.6 -15438 -13313.3 -7.40971 
204 1 29.9376 6.8857 7.5 6.0492 -4739.88 -15771.3 -29941.2 -6931.15 34993.5 -26084.8 -7.41533 
205 1 31.3574 6.86228 7.5 6.0492 12975.6 -10341.6 -115312 8467.83 -20358.3 -11172 -7.41014 
206 1 32.0876 8.08015 7.5 6.0492 -6910.84 -18062.4 -15719.8 -4726.17 35172.8 -19668.6 -7.4162 
207 1 33.5074 8.05673 7.5 6.0492 13430.7 -10270.2 -120778 5783.09 -19530.8 -6298.41 -7.40982 
208 1 34.1971 6.81543 7.5 6.0492 -4622.77 -19099.4 -20091.3 -2896.14 36781 -11939.6 -7.41593 
209 1 35.6169 6.79201 7.5 6.0492 12950.8 -11923.4 -113292 2783.92 -22964.1 -2606.28 -7.41026 
210 1 36.3471 8.00989 7.5 6.0492 -6857.57 -20125.2 -9598.59 -689.67 36320.5 -4017.74 -7.41658 
19 1 37.6452 0.608939 7.5 6.04919 7421.09 -16617.4 -72304.7 -32.9043 -33840.5 1989.51 -7.41274 
20 1 40.4848 0.562098 7.5 6.04919 5661.14 -16396.3 -65482.2 4260.54 34846.2 9264.44 -7.41316 
21 1 41.9046 0.538677 7.5 6.04919 7493.9 -15434.6 -74928.3 -5319.35 -32500.8 14478.9 -7.41258 
22 1 44.7442 0.491835 7.5 6.04919 5531.5 -13326.7 -73057.9 8978.73 32361.3 21033.9 -7.4127 
23 1 46.164 0.468415 7.5 6.04919 7491.61 -12348.6 -82449.7 -9918.42 -29202.4 24774.8 -7.41213 
71 1 37.6857 3.06812 7.5 6.0492 10263.1 -15009 -89496.2 -126.62 -30058.6 2074.92 -7.4117 
72 1 38.3754 1.82682 7.5 6.04919 3883.77 -17695.8 -54715.1 1670.05 36526.8 2898.88 -7.41381 
73 1 39.7952 1.8034 7.5 6.04919 9005.54 -15541.4 -81586.2 -2855.01 -31640.8 8122.84 -7.41218 
74 1 40.5253 3.02128 7.5 6.0492 1839.94 -17443.5 -47705.7 4054.6 37005.8 10357.6 -7.41424 
75 1 41.9452 2.99785 7.5 6.0492 10421.8 -13992.2 -91429.5 -5672.28 -28576 13204.1 -7.41158 
76 1 42.6348 1.75656 7.5 6.04919 3764.52 -15547.8 -60097.2 6564.39 35196.3 16299.6 -7.41349 
77 1 44.0546 1.73313 7.5 6.04919 9111.04 -13439 -86127 -7986.28 -29139.8 19076.5 -7.41191 
78 1 44.7848 2.95101 7.5 6.0492 1670.58 -14085.2 -56763.2 8499.39 34935.1 23084.6 -7.41369 
79 1 46.2046 2.92759 7.5 6.0492 10572.1 -11323.4 -97110.4 -10437 -24888.4 22309 -7.41124 
141 1 37.7263 5.52729 7.5 6.0492 12303.8 -13187.1 -105507 -205.576 -25576.4 2053.04 -7.41073 
142 1 38.4159 4.28599 7.5 6.0492 -199.989 -18751.4 -36525.8 1578.7 37818.6 3444.21 -7.41492 
143 1 39.8357 4.26257 7.5 6.0492 11478.9 -13910.7 -98037.1 -3056.65 -27419.6 7426.11 -7.41118 
144 1 40.5659 5.48045 7.5 6.0492 -2432.69 -18348.6 -29901.3 3769.52 37594.9 11327.2 -7.41533 
145 1 41.9857 5.45703 7.5 6.0492 12549.2 -12369.7 -106680 -5987.54 -23934.2 11668.4 -7.41066 
146 1 42.6753 4.21573 7.5 6.0492 -324.43 -16432.8 -42832.7 6151.35 36792.4 17797.7 -7.41454 
147 1 44.0951 4.19231 7.5 6.0492 11712.6 -12132.7 -101226 -8393.17 -24636.8 17016.2 -7.41099 
148 1 44.8253 5.41019 7.5 6.0492 -2592.39 -14732.4 -40354.8 7894.05 35974.1 24865.3 -7.41469 
149 1 46.2451 5.38677 7.5 6.0492 12855.1 -10174 -110381 -10885.8 -19858.1 19480.6 -7.41044 
211 1 37.7669 7.98647 7.5 6.0492 13515.2 -11066.5 -119971 -304.107 -20751.5 1907.89 -7.40986 
212 1 38.4565 6.74517 7.5 6.0492 -4612.96 -19621.9 -18624.8 1456.43 37401.9 3938.93 -7.41602 
213 1 39.8763 6.72175 7.5 6.0492 13139.1 -12006.2 -113095 -3265.44 -22675.2 6532.68 -7.41028 
214 1 40.6065 7.93963 7.5 6.0492 -6890.27 -19085.5 -12688.7 3418.23 36394.9 12141 -7.41639 
215 1 42.0263 7.91621 7.5 6.0492 13834.9 -10483.9 -120313 -6288.53 -18947.9 9868.54 -7.40984 
216 1 42.7159 6.67491 7.5 6.0492 -4709.23 -17152.1 -25803.4 5651.63 36708.3 19074.3 -7.41558 
217 1 44.1357 6.65149 7.5 6.0492 13490.5 -10604.4 -114822 -8778.27 -19609.8 14636.9 -7.41017 
218 1 44.8659 7.86937 7.5 6.0492 -6982.69 -15239.8 -24446.2 7154.63 35258.6 26337 -7.41567 
219 1 46.2857 7.84595 7.5 6.0492 14270.3 -8821.57 -121896 -11286.6 -14503.1 16302.7 -7.40975 
282 1 38.4971 9.20435 7.5 6.0492 -9074.71 -20330.2 -1678.13 1300.12 35131.4 4360.34 -7.41706 
283 1 39.9169 9.18093 7.5 6.0492 13955.2 -9811.25 -126408 -3470.3 -17748.1 5442.52 -7.40948 
286 1 42.7565 9.13409 7.5 6.0492 -9109.86 -17727.8 -9665.12 5037.34 34791.9 20097.6 -7.41658 
287 1 44.1763 9.11067 7.5 6.0492 14393 -8836.96 -126572 -9119.14 -14420.8 11954.3 -7.40947 
24 1 49.0036 0.421573 7.5 6.04919 5352.71 -9084.65 -84996.4 12653.7 28066 29649.2 -7.41198 
25 1 50.4234 0.398152 7.5 6.04919 7349.29 -8438.81 -93783.5 -13296.8 -24399.4 31942.5 -7.41145 
26 1 53.263 0.351311 7.5 6.04919 5137.05 -4844.36 -99762.4 14868.9 22455.6 34785.7 -7.41109 
27 1 54.6828 0.32789 7.5 6.04919 7053.17 -4701.29 -107624 -15071.6 -18671.2 35946.2 -7.41061 
80 1 46.8942 1.68629 7.5 6.04919 3577.92 -11536.8 -71027.5 10709.4 32014.6 27041.9 -7.41282 
81 1 48.314 1.66287 7.5 6.04919 9124.04 -10046.1 -94584.5 -12092.1 -24781.3 27337.7 -7.4114 
82 1 49.0442 2.88075 7.5 6.0492 1440.67 -9361.59 -71036.4 11978.8 31254.7 32426.1 -7.41283 
83 1 50.464 2.85733 7.5 6.0492 10591.2 -8007.37 -105783 -13875.3 -19527.3 28592.2 -7.41072 
84 1 51.1536 1.61603 7.5 6.04919 3347.75 -6883.23 -85910.1 13624.6 27332.9 34203.7 -7.41192 
85 1 52.5734 1.59261 7.5 6.04919 8968.35 -6455.72 -105895 -14725.4 -19118.7 32567.1 -7.41072 
86 1 53.3036 2.81049 7.5 6.0492 1209.97 -4478.47 -88637.1 14063.5 26443.8 37963.3 -7.41176 
87 1 54.7234 2.78707 7.5 6.0492 10407.2 -4987.48 -116522 -15646.7 -13093.4 32090.6 -7.41008 
88 1 55.413 1.54577 7.5 6.04919 3128.86 -2589.11 -103029 14945.7 21758.6 37781.7 -7.41089 
150 1 46.9348 4.14547 7.5 6.0492 -531.165 -12050.3 -55652.8 10037.5 34152 29332.9 -7.41376 
151 1 48.3546 4.12205 7.5 6.0492 11899.3 -9279.32 -107305 -12589.2 -19801.1 24185.2 -7.41063 
152 1 49.0848 5.33993 7.5 6.0492 -2791.24 -9558.26 -56817 11125.5 32952.6 34827.4 -7.41369 
153 1 50.5046 5.31651 7.5 6.0492 13051.7 -7491.46 -116214 -14339.4 -13965 24810.3 -7.4101 
154 1 51.1942 4.07521 7.5 6.0492 -757.038 -6841.75 -73079.8 12767.7 30197 37020 -7.4127 
155 1 52.614 4.05179 7.5 6.0492 11902.9 -6359.04 -115592 -15218.1 -13529.2 28673.3 -7.41013 
156 1 53.3442 5.26967 7.5 6.0492 -2944.3 -4046.94 -77050.2 13033.2 28985 40662.9 -7.41246 
157 1 54.764 5.24625 7.5 6.0492 13009.5 -5194.88 -123652 -16054 -6889.97 27718 -7.40965 
158 1 55.4536 4.00495 7.5 6.0492 -917.944 -1840.75 -93029.1 13962.1 25552.4 40749 -7.41149 
220 1 46.9753 6.60465 7.5 6.0492 -4861.12 -12430.9 -40395 9221.02 34650.9 31276.8 -7.41469 
221 1 48.3951 6.58123 7.5 6.0492 13841.6 -8345.89 -118359 -13028.1 -14317.1 20643.7 -7.40996 
222 1 49.1253 7.79911 7.5 6.0492 -7060.46 -9646.4 -42943.8 10075.5 32945.3 36810.6 -7.41454 
223 1 50.5451 7.77568 7.5 6.0492 14622.7 -6818.76 -124723 -14718.5 -8120.91 20634.8 -7.40958 
224 1 51.2347 6.53439 7.5 6.0492 -4985.11 -6692.31 -60191.2 11712.9 31469.6 39391.1 -7.41349 
225 1 52.6546 6.51096 7.5 6.0492 14009.2 -6121.95 -123440 -15606.9 -7487.47 24334 -7.40966 
226 1 53.3847 7.72884 7.5 6.0492 -7034.5 -3533.92 -65598.4 11764.5 29864.3 42849.2 -7.41316 
227 1 54.8045 7.70542 7.5 6.0492 14722.8 -5256.27 -128688 -16332.6 -490.014 22905.4 -7.40935 
228 1 55.4942 6.46412 7.5 6.0492 -4994.41 -1002.08 -82734.2 12749.3 27784.5 43163.8 -7.41212 
290 1 47.0159 9.06383 7.5 6.0492 -9133.25 -12701 -25893.3 8215.67 33362.2 32833.4 -7.41558 
291 1 48.4357 9.0404 7.5 6.0492 14868.8 -7232.13 -127425 -13389.3 -8712.86 16748.5 -7.40942 
294 1 51.2753 8.99356 7.5 6.0492 -9059.13 -6467.69 -47863.9 10414.1 31009.9 41277.3 -7.41424 
295 1 52.6951 8.97014 7.5 6.0492 15176.5 -5737.82 -129147 -15883.7 -1395.08 19617.1 -7.40932 
298 1 55.5347 8.9233 7.5 6.0492 -8824.82 -125.746 -72747.9 11274.4 28312.2 45005.8 -7.41272 
28 1 57.5225 0.281049 7.5 6.04919 4939 -1295.66 -115868 15334.6 16207 36561.6 -7.41012 
29 1 58.9423 0.257628 7.5 6.04919 6656.31 -1559.05 -122653 -14991.8 -12679.6 36658 -7.40971 
30 1 61.7819 0.210787 7.5 6.04919 4837.71 1476.34 -131802 13891.1 10096.4 34540.2 -7.40916 
31 1 63.2017 0.187366 7.5 6.04919 6241.93 1066.42 -137337 -12954.5 -7153.43 33173.9 -7.40882 
89 1 56.8328 1.52235 7.5 6.04919 8641.9 -3388.73 -118934 -15593.8 -12764.6 34853.1 -7.40993 
90 1 57.563 2.74023 7.5 6.0492 1059.6 -164.202 -107715 14445 21224.8 39744.9 -7.41061 
91 1 58.9828 2.71681 7.5 6.0492 10040.3 -2660.44 -128363 -15538 -6203.07 32730.6 -7.40937 
92 1 59.6725 1.47551 7.5 6.04919 3001.33 959.222 -120747 14441 16050 37682.4 -7.40982 
93 1 61.0923 1.45209 7.5 6.04919 8215.66 -951.889 -132488 -14518.7 -6395.38 33719.4 -7.40912 
94 1 61.8224 2.66996 7.5 6.0492 1057.31 3427.54 -126423 12984.2 16371.5 37320 -7.40948 
95 1 63.2423 2.64654 7.5 6.0492 9578.41 -890.624 -140105 -13433.7 417.408 29669.3 -7.40866 
96 1 63.9319 1.40524 7.5 6.04919 3023.31 3805.27 -137250 12056.1 10962.9 33085.1 -7.40883 
159 1 56.8734 3.98153 7.5 6.0492 11670.3 -4058.91 -125336 -16041.7 -6420.04 30608 -7.40955 
160 1 57.6036 5.1994 7.5 6.0492 -2969.51 1021.57 -98830.6 13306.6 24822.5 42326.9 -7.41114 
161 1 59.0234 5.17598 7.5 6.0492 12708.5 -3670.01 -132081 -15870.2 782.34 28177.9 -7.40914 
162 1 59.713 3.93468 7.5 6.0492 -939.072 2504.54 -113509 13394.4 21010 40385.6 -7.41026 
163 1 61.1328 3.91126 7.5 6.0492 11250.5 -2466.04 -135659 -14907 890.374 29590.4 -7.40893 
164 1 61.863 5.12914 7.5 6.0492 -2828.13 5399.6 -119978 11841.3 21221.6 39404.1 -7.40986 
165 1 63.2828 5.10572 7.5 6.0492 12230 -2755.54 -140638 -13684.2 8331.26 25483.1 -7.40863 
166 1 63.9724 3.86442 7.5 6.0492 -793.259 6134.58 -132394 11060.4 17241.3 35174.9 -7.40912 
229 1 56.914 6.4407 7.5 6.0492 13892 -4580.86 -129693 -16335.8 271.79 25837.1 -7.40929 
230 1 57.6442 7.65858 7.5 6.0492 -6849.48 2257.13 -89806.1 11925.9 26758.5 44295 -7.41169 
231 1 59.064 7.63516 7.5 6.0492 14509.5 -4516.12 -133529 -16031.4 7808.84 23123.2 -7.40906 
232 1 59.7536 6.39386 7.5 6.0492 -4841.09 4109.66 -105669 12124.4 24393.9 42428.1 -7.41073 
233 1 61.1734 6.37044 7.5 6.0492 13510.4 -3814.94 -136576 -15107.2 8350.39 24859 -7.40887 
234 1 61.9036 7.58832 7.5 6.0492 -6513.25 7366.21 -113056 10493.7 24341.4 40809.7 -7.41028 
235 1 63.3234 7.5649 7.5 6.0492 14047.2 -4438.12 -138725 -13747.8 16055.1 20769.1 -7.40875 
236 1 64.013 6.3236 7.5 6.0492 -4541.24 8463.19 -126579 9884.94 21878.4 36575.5 -7.40947 
299 1 56.9545 8.89988 7.5 6.0492 15178.1 -4951.87 -131762 -16479.9 6888.55 20657.4 -7.40916 
302 1 59.7942 8.85304 7.5 6.0492 -8431.27 5699.5 -97826.6 10620.8 26030.3 43825.7 -7.4112 
303 1 61.214 8.82962 7.5 6.0492 14861.2 -4987.76 -135066 -15129.3 15526.2 19690.2 -7.40897 
306 1 64.0536 8.78278 7.5 6.0492 -7943.63 10697.2 -120416 8540.82 24645 37334.1 -7.40984 
32 1 66.0413 0.140524 7.5 6.04919 4881.45 3596.36 -145702 10574.7 4916.92 27691.9 -7.40832 
33 1 67.4611 0.117104 7.5 6.04919 5863.72 3269.71 -149648 -9089.4 -2839.08 24427.2 -7.40808 
34 1 70.3007 0.0702621 7.5 6.04919 5060.88 4967.01 -155350 5714.98 1381.29 15638.4 -7.40774 
35 1 71.7205 0.0468413 7.5 6.04915 5529.19 4813.12 -157270 -3850.84 -386.343 10719.7 -7.40763 
97 1 65.3517 1.38182 7.5 6.04919 7776.42 1055.44 -144961 -11478.9 -797.545 28030.4 -7.40837 
98 1 66.0819 2.5997 7.5 6.0492 1214.55 6305.66 -142594 9775.04 12496.4 29714.5 -7.40851 
99 1 67.5017 2.57628 7.5 6.0492 9114.81 546.028 -150075 -9417.46 5852.08 21866 -7.40806 
100 1 68.1913 1.33498 7.5 6.04919 3192.33 5926.35 -150304 7992.13 7123.96 23111 -7.40804 
101 1 69.6111 1.31156 7.5 6.04919 7377.94 2656.8 -154282 -6738.1 3175.78 17190.1 -7.40781 
102 1 70.3413 2.52944 7.5 6.0492 1479.78 8221.22 -153736 5185.62 9957.07 16657.5 -7.40784 
103 1 71.7611 2.50602 7.5 6.04915 8713.4 1596.23 -156308 -3924.41 9115.32 9534.89 -7.40769 
104 1 72.4507 1.26472 7.5 6.04914 3411.78 7014.33 -157585 2750.02 4969.17 8334.21 -7.4076 
105 1 73.8705 1.2413 7.5 6.04911 6861.78 3331.07 -158427 -923.768 4793.98 2535.12 -7.40756 
167 1 65.3922 3.841 7.5 6.0492 10750.9 -1298.88 -145316 -11769.5 7551.77 24591.3 -7.40835 
168 1 66.1224 5.05888 7.5 6.0492 -2546.88 8970.36 -138060 8790.38 18617.9 31085 -7.40878 
169 1 67.5422 5.03546 7.5 6.0492 11703 -2107.37 -148040 -9553.53 14707 18724.9 -7.40818 
170 1 68.2319 3.79416 7.5 6.0492 -521.556 8891.32 -147191 7216.06 14596.2 24377.9 -7.40823 
171 1 69.6517 3.77074 7.5 6.0492 10277.1 -368.109 -152628 -6856.6 12467.4 15035.8 -7.40791 
172 1 70.3819 4.98862 7.5 6.0492 -2208.35 11360.4 -150400 4547.45 17038.9 17280.5 -7.40804 
173 1 71.8017 4.9652 7.5 6.04915 11247.8 -1577.08 -152741 -3894.2 18649.2 8064.96 -7.4079 
174 1 72.4913 3.7239 7.5 6.04915 -250.943 10336.8 -155382 2358.64 13137.8 8699.91 -7.40774 
175 1 73.9111 3.70048 7.5 6.04911 9729.47 1.18782 -155921 -806.113 14573.8 2084.54 -7.40771 
237 1 65.4328 6.30018 7.5 6.0492 12979.3 -3488.92 -143207 -11879.1 15853.4 20566.5 -7.40847 
238 1 66.163 7.51806 7.5 6.0492 -6092.9 11548.4 -132697 7668 22888.8 31836.1 -7.4091 
239 1 67.5828 7.49464 7.5 6.0492 13487.9 -4575.24 -143405 -9537.15 23112 15145.7 -7.40846 
240 1 68.2724 6.25334 7.5 6.0492 -4168.32 11776.4 -142781 6330.7 20340.9 25104.1 -7.4085 
241 1 69.6922 6.22992 7.5 6.0492 12451.5 -3242.97 -148347 -6857.86 21504.4 12480.4 -7.40816 
242 1 70.4224 7.44779 7.5 6.0492 -5687.32 14335.9 -145952 3850.68 22158.9 17526.3 -7.40831 
243 1 71.8422 7.42437 7.5 6.04915 13002.3 -4568.68 -146486 -3801.13 27536.8 6390.66 -7.40827 
244 1 72.5319 6.18307 7.5 6.04915 -3861.53 13522.2 -151660 1939.21 19523.6 8867.52 -7.40796 
245 1 73.9517 6.15965 7.5 6.04911 11882.4 -3189.5 -150731 -676.739 23989.5 1561.58 -7.40802 
307 1 65.4734 8.75936 7.5 6.0492 14338.4 -5480.5 -138549 -11818.4 23594.7 16135.4 -7.40875 
310 1 68.313 8.71251 7.5 6.0492 -7463.71 14479.3 -137707 5355.83 24062.1 25336.3 -7.4088 
311 1 69.7328 8.68909 7.5 6.0492 13792.1 -5909.76 -141428 -6750.29 29717.7 9659.94 -7.40858 
314 1 72.5724 8.64225 7.5 6.04915 -7129.08 16467.3 -147070 1506.61 23787.2 8843.69 -7.40824 
315 1 73.9922 8.61883 7.5 6.04911 13221.4 -6167.67 -142876 -546.019 32439.4 1009.78 -7.40849 
246 1 0.162264 9.83671 7.5 6.04911 -8575.7 17728.8 -145797 -579.409 24974.9 -348.736 -7.40832 
247 1 1.58207 9.81329 7.5 6.04915 13610.2 -7124.03 -138075 2728.85 35961.1 -3206.16 -7.40877 
248 1 2.31226 11.0312 7.5 6.04915 -9630.53 18768.1 -141969 -2314.7 25561.4 -9467.03 -7.40855 
249 1 3.73206 11.0077 7.5 6.0492 13775.9 -8009.26 -132706 5839.66 38008.6 -5993.27 -7.4091 
250 1 4.42168 9.76645 7.5 6.0492 -8306.97 16476.1 -140590 -4253.61 24494.5 -18176.5 -7.40863 
251 1 5.84149 9.74303 7.5 6.0492 13665.7 -6277.71 -137337 8713.35 32306.1 -10391.9 -7.40882 
252 1 6.57168 10.9609 7.5 6.0492 -9694.62 16074.3 -131802 -5524.05 24864.5 -26013.9 -7.40916 
253 1 7.99148 10.9375 7.5 6.0492 13916.4 -6651.6 -132488 11223.9 32399.5 -11321.1 -7.40912 
254 1 8.68111 9.69619 7.5 6.0492 -8402.89 12896.9 -126423 -7518.45 24134.3 -32838.2 -7.40948 
316 1 0.20283 12.2959 7.5 6.04911 -10970.1 20144.8 -141098 -660.852 26157.7 -473.581 -7.40861 
317 1 1.62264 12.2725 7.5 6.04915 13685.6 -9668.74 -126724 2781.33 42342.3 -2426.49 -7.40945 
318 1 2.35282 13.4903 7.5 6.04915 -11718.9 20940.8 -137412 -2014.71 25803.3 -9404.11 -7.40882 
319 1 3.77263 13.4669 7.5 6.0492 13430.8 -10270.1 -120811 5782.97 43655.1 -3963.27 -7.40982 
320 1 4.46225 12.2256 7.5 6.0492 -10781.8 18818.8 -135597 -3649.66 25490.7 -18032 -7.40893 
321 1 5.88206 12.2022 7.5 6.0492 13763.1 -8445.15 -127385 8645.44 38652.3 -7318.12 -7.40942 
322 1 6.61224 13.4201 7.5 6.0492 -11901.1 18116.9 -126820 -4550.22 24798 -25713 -7.40946 
323 1 8.03205 13.3967 7.5 6.0492 13561 -8385.48 -122653 11048.4 38086.5 -7348.09 -7.40971 
324 1 8.72167 12.1554 7.5 6.0492 -11031.9 14993.9 -120747 -6340.82 24608.9 -32740.9 -7.40982 
386 1 0.243395 14.7551 7.5 6.04911 -12688.7 22079 -137002 -706.646 25642.8 -636.534 -7.40885 
387 1 1.6632 14.7316 7.5 6.04915 12908.3 -11913.5 -113334 2784.35 47241.2 -1593.84 -7.41026 
388 1 2.39339 15.9495 7.5 6.04915 -13146.1 22601.9 -133687 -1653.15 24580.3 -9296.37 -7.40905 
389 1 3.8132 15.9261 7.5 6.0492 12226.9 -12239.3 -107028 5654.97 47869.1 -1924.18 -7.41065 
390 1 4.50282 14.6848 7.5 6.0492 -12583.3 20708 -131251 -2954.18 24846 -17739.3 -7.40919 
391 1 5.92262 14.6614 7.5 6.0492 12975.9 -10341.9 -115365 8468.13 43631.3 -4209.73 -7.41014 
392 1 6.65281 15.8793 7.5 6.0492 -13444.4 19697.9 -122758 -3456.53 23341.2 -25200.5 -7.4097 
393 1 8.07262 15.8558 7.5 6.0492 12301.3 -9875.14 -110855 10759.3 42489.2 -3391.84 -7.41042 
394 1 8.76224 14.6145 7.5 6.0492 -12991.5 16709.7 -115868 -5002.01 23559.8 -32316.5 -7.41012 
456 1 0.283961 17.2142 7.5 6.04911 -13780.1 23463.6 -133915 -715.325 23879.6 -825.527 -7.40904 
457 1 1.70377 17.1908 7.5 6.04915 11290.2 -13855.7 -98237.1 2747.45 50701.1 -734.37 -7.41117 
458 1 2.43395 18.4087 7.5 6.04915 -13990.7 23693.3 -131126 -1234.22 22330.9 -9144.06 -7.4092 
459 1 3.85376 18.3853 7.5 6.0492 10182.6 -13923 -91684.8 5474.1 50689.1 72.8216 -7.41157 
460 1 4.54338 17.144 7.5 6.0492 -13753.7 22071.8 -127949 -2173.96 22980.6 -17332.5 -7.40939 
461 1 5.96319 17.1206 7.5 6.0492 11319.5 -11970.5 -101582 8209.66 47247.5 -1151.23 -7.41098 
462 1 6.69338 18.3384 7.5 6.0492 -14387.5 20748.7 -119936 -2258.37 20885.2 -24499.3 -7.40987 
463 1 8.11318 18.315 7.5 6.0492 10172.9 -11130.5 -97393.8 10386.9 45582.8 468.381 -7.41123 
464 1 8.8028 17.0737 7.5 6.0492 -14304.2 17965.5 -112163 -3516.59 21350.1 -31609.6 -7.41034 
255 1 10.1009 9.67276 7.5 6.0492 13877.1 -5092.21 -135659 13390.7 25180.8 -15566.3 -7.40893 
256 1 10.8311 10.8906 7.5 6.0492 -9960.15 11516.2 -113509 -8189.86 24470 -38388 -7.41026 
257 1 12.2509 10.8672 7.5 6.0492 14167.5 -5128.85 -132081 15028 24011.6 -14766.5 -7.40914 
258 1 12.9405 9.62592 7.5 6.0492 -8625.29 7893.62 -105669 -9939.85 24546.8 -42339.8 -7.41073 
259 1 14.3603 9.6025 7.5 6.0492 14126.6 -4132.44 -133529 16254.5 16120.8 -18324.2 -7.40906 
260 1 15.0905 10.8204 7.5 6.0492 -10347.8 5755.41 -89806 -9906.26 24981.4 -45321.1 -7.41169 
261 1 16.5103 10.797 7.5 6.0492 14352.8 -4127.28 -131762 16954.2 14445.6 -16294.4 -7.40916 
262 1 17.1999 9.55566 7.5 6.0492 -8877.92 2030.36 -81236.3 -11113.8 26050.1 -46184.9 -7.41221 
263 1 18.6198 9.53224 7.5 6.0492 14255.7 -3972.19 -131425 17172.4 6627.1 -18927.4 -7.40918 
325 1 10.1415 12.1319 7.5 6.0492 13973.5 -6592.99 -128363 13269.3 31447 -10993.3 -7.40937 
326 1 10.8717 13.3498 7.5 6.0492 -12368.2 13263.5 -107715 -6692.31 23807.7 -38253.7 -7.41061 
327 1 12.2915 13.3264 7.5 6.0492 13766 -6155.3 -125336 14829.9 29717.3 -9744.08 -7.40955 
328 1 12.9811 12.0851 7.5 6.0492 -11493.7 9554.96 -98830.6 -8381.21 24244.8 -42660.4 -7.41114 
329 1 14.4009 12.0617 7.5 6.0492 14188.3 -4876.86 -129693 16164.7 22239.7 -13153.9 -7.40929 
330 1 15.1311 13.2796 7.5 6.0492 -13045.3 7039.55 -82734.2 -8104.86 23488.7 -45644 -7.41212 
331 1 16.5509 13.2561 7.5 6.0492 13881.8 -4415.3 -128688 16818.2 20081.6 -11028.3 -7.40935 
332 1 17.2405 12.0148 7.5 6.0492 -12061.6 3111.01 -72747.9 -9405.73 24820 -47022 -7.41272 
395 1 10.182 14.5911 7.5 6.0492 13130.6 -7875.06 -118934 13001.2 36565.9 -6372.12 -7.40993 
396 1 10.9122 15.809 7.5 6.0492 -14104.9 14637 -103029 -5001.43 21840.6 -37734.4 -7.41089 
397 1 12.332 15.7856 7.5 6.0492 12410.4 -6990.95 -116522 14490.2 34338 -4706.07 -7.41008 
398 1 13.0217 14.5443 7.5 6.0492 -13698.8 10940.1 -93029.1 -6582.91 22513.5 -42503.6 -7.41149 