ITEM: TIMESTEP
68
ITEM: NUMBER OF ATOMS
7352
ITEM: BOX BOUNDS pp pp pp
0.0000000000000000e+00 7.4560136700000001e+01
0.0000000000000000e+00 1.2914194499999999e+02
0.0000000000000000e+00 1.8399999600000001e+01
ITEM: ATOMS id type x y z c_csym c_2[1] c_2[2] c_2[3] c_2[4] c_2[5] c_2[6] c_3 
1 1 2.37025e-07 -7.41166e-07 7.34044 6.0483 -2522.14 -2622.3 -311.55 9.6377 -0.06861 -0.0258127 -7.41135 
2 1 2.15475 1.18556 7.34172 6.04628 -4901.29 -202.058 -230.958 -1046.01 2397.3 -4463.31 -7.41139 
3 1 3.57437 1.15653 7.34339 6.04313 -3697.78 -1576.63 -404.199 6015.19 1673.79 -6418.63 -7.41143 
4 1 6.41339 1.09902 7.34889 6.04066 -7151.74 1743.78 314.373 4585.13 3505.67 -12159.9 -7.41165 
5 1 7.833 1.07121 7.3525 6.03866 -5636.38 710.23 -803.091 20898.6 -875.317 -12369.7 -7.41167 
36 1 0.0506453 2.45889 7.34172 6.04498 -4611.9 -358.44 -337.095 -1613.22 4518.53 -118.799 -7.41139 
37 1 1.47027 2.42963 7.34214 6.04494 -2113.22 -2808.9 -279.074 268.044 4889.21 -2585.25 -7.4114 
38 1 2.20511 3.64462 7.34421 6.04291 -9733.83 4771.69 -223.475 -4076.58 6388.29 -4904.14 -7.41147 
39 1 3.62472 3.61561 7.34581 6.04115 -6054.99 943.369 -535.511 2944.89 6739.26 -5620.69 -7.4115 
40 1 4.30923 2.37154 7.34542 6.0442 -9958.04 4554.59 202.018 -438.368 4801.7 -9001.37 -7.41154 
41 1 5.72882 2.34302 7.34813 6.0402 -7277.12 2086.88 -930.082 11455.5 3019.25 -9073.5 -7.41153 
42 1 6.46322 3.55834 7.3511 6.04223 -16586 11290.8 1233.6 1631.01 7036.93 -13256.3 -7.41178 
43 1 7.88279 3.53053 7.35457 6.03696 -12322.6 7771.54 -2157.68 17737.7 3793.47 -10685.8 -7.41164 
44 1 8.56743 2.28656 7.35526 6.03835 -13311.1 8267.85 1572.32 9427.57 6272.3 -15796.1 -7.41194 
106 1 0.100786 4.91782 7.34541 6.04169 -6719.51 1894.84 -631.306 -6111.47 8080.06 -214.736 -7.41147 
107 1 1.52042 4.8886 7.34581 6.04292 -1967.37 -2885 87.9401 -4224.44 10018.6 -2332.81 -7.41154 
108 1 2.25475 6.10386 7.34888 6.04 -14282.1 9458.19 -637.191 -9783.76 9296.87 -5205.75 -7.41157 
109 1 3.67435 6.07489 7.35036 6.03834 -8476.36 3433.87 -197.017 -2983.7 11687.6 -4685.65 -7.41166 
110 1 4.35907 4.8309 7.34889 6.04098 -17011.2 11812 386.512 -4865.05 8091.91 -9644.31 -7.41165 
111 1 5.77865 4.80239 7.35144 6.03733 -11900.1 6989.92 -1375.73 6807.21 7932.78 -7675.91 -7.41161 
112 1 6.51235 6.0181 7.35527 6.03851 -25531.2 20374.8 1712.42 -4218.11 9529.63 -14029.1 -7.41194 
113 1 7.9319 5.99029 7.35848 6.03299 -18901.9 14651.5 -3038.49 11391.9 8479.97 -8769.06 -7.4117 
114 1 8.61657 4.74626 7.35822 6.03874 -24323.2 19318.2 3050.2 4844.89 9012.6 -17007 -7.41213 
176 1 0.149982 7.37681 7.35108 6.03815 -8672.39 4057.68 -1499.1 -13023.5 10466.9 -310.752 -7.41158 
177 1 1.56962 7.34765 7.35146 6.04088 -2110.83 -2847.7 1048.32 -11115.4 14819.5 -2030.58 -7.41178 
178 1 2.30325 8.56329 7.35524 6.03777 -18407 13934.4 -1751.7 -17599.8 11031 -5410.7 -7.41169 
179 1 3.72285 8.53439 7.35657 6.03543 -10994.8 5960.49 840.985 -11068.9 16200.9 -3641.19 -7.41193 
180 1 4.408 7.29057 7.35423 6.03839 -23641.1 18635.2 -5.89199 -11799.2 10252.7 -10066.7 -7.41178 
181 1 5.82756 7.2621 7.35655 6.03344 -16531.4 11727.4 -1221.22 -565.554 12613.5 -6101.98 -7.41178 
182 1 6.56041 8.47827 7.36094 6.0351 -33721.7 28956.7 1460.68 -12372.7 10917.5 -14540 -7.41209 
183 1 7.97993 8.45047 7.36384 6.02865 -25297.2 21263.4 -3177.46 2506.17 12880.8 -6676.43 -7.41186 
184 1 8.66483 7.20649 7.36277 6.03416 -34638.1 29755 3911.56 -2498.75 10681.3 -17886.4 -7.41233 
6 1 10.6719 1.01591 7.36094 6.03265 -8053 3215.14 1120.54 18067.1 5850.55 -17210.6 -7.41208 
7 1 12.0915 0.990077 7.36549 6.03443 -6467.71 2383.31 -1462.66 40919.4 -4635.34 -15856.6 -7.41202 
8 1 14.9305 0.937794 7.37491 6.02411 -8343.77 3882.28 1945.56 37075.5 9119.66 -19530 -7.41258 
9 1 16.3501 0.914331 7.37954 6.02658 -6653.13 3451.09 -2228.25 63291.1 -8957.6 -17201.7 -7.4124 
45 1 9.98702 2.25967 7.3594 6.0368 -10255.9 6050.95 -2259.26 29274.8 -470.154 -13461.9 -7.41178 
46 1 10.7209 3.47543 7.36276 6.03635 -20657.7 15744.9 3685.77 15025.2 8786.09 -18866 -7.41232 
47 1 12.1404 3.44956 7.36713 6.03471 -15893.7 12401.6 -4680.42 37655 -466.276 -13705.2 -7.41184 
48 1 12.8255 2.20587 7.36847 6.03011 -15124 10334.5 3368.98 25944.8 8846.77 -19649.8 -7.41248 
49 1 14.2451 2.18117 7.37307 6.03286 -11795.9 8350.6 -4033.36 50788.4 -4846.43 -15668.5 -7.41207 
50 1 14.9784 3.39741 7.37638 6.02792 -22377.4 17460.6 6620.8 33880.7 11550.6 -21517.9 -7.41296 
51 1 16.3979 3.37389 7.38083 6.03134 -17099.6 14652 -7650.31 59953.5 -5215.4 -14932 -7.41206 
52 1 17.0836 2.1306 7.38238 6.02153 -15173 10873.1 5266.88 46813.4 12201.3 -20877.9 -7.41305 
53 1 18.5031 2.10836 7.38674 6.02436 -11673.4 9250.51 -5905.4 73542.3 -9412.12 -16097.7 -7.41237 
115 1 10.0361 4.71934 7.36213 6.03395 -18460.3 14759.5 -4282.57 24341.3 4040.85 -11368.9 -7.41172 
116 1 10.7692 5.93556 7.36619 6.03478 -32680.9 27730.2 5776.44 8809.92 10705.7 -20166.9 -7.41257 
117 1 12.1887 5.90962 7.37028 6.03042 -25142.5 22211.5 -7404.44 30830.1 3882.69 -11333.3 -7.41176 
118 1 12.8736 4.66578 7.37086 6.03349 -28428.5 23402.2 6752.22 21057.3 11014.9 -21342.4 -7.41279 
119 1 14.2932 4.64101 7.37523 6.03285 -21880.9 19096.6 -8123.47 45558.6 -741.956 -13321.1 -7.41186 
120 1 15.0256 5.85773 7.37915 6.0306 -35828.5 30595.8 10803.1 27131.4 12938.8 -23225.5 -7.41334 
121 1 16.4451 5.83406 7.38333 6.03055 -27389 25636.7 -12564.6 52708.6 -1173.12 -12493.9 -7.41181 
122 1 17.1306 4.59059 7.38433 6.02501 -29105.9 24189.2 10873.3 41621.5 13920 -22800.5 -7.41351 
123 1 18.5501 4.56822 7.38846 6.02994 -22021.3 20354.8 -12256.4 68092.8 -5634.67 -13795 -7.41199 
185 1 10.0843 7.17953 7.36636 6.02887 -26484.3 23112.2 -5669.43 16329.2 8492.33 -9065.02 -7.41176 
186 1 10.8164 8.39628 7.37088 6.0297 -43789.2 39076.7 7076.99 -19.198 11565.2 -21150.7 -7.4128 
187 1 12.2359 8.37024 7.37462 6.02521 -34093.7 31760.6 -9319.76 21115.4 8121.3 -8779.67 -7.41177 
188 1 12.921 7.12636 7.37455 6.03088 -40896.7 35902.4 9474.8 13087.4 12118.2 -22720.7 -7.4131 
189 1 14.3404 7.10144 7.37861 6.02742 -31657 29600.7 -11535.4 36909.9 3459.21 -10790.1 -7.41174 
190 1 15.0719 8.31872 7.38294 6.0273 -48295.9 43251.2 14140.3 17450.6 13238.3 -24651.7 -7.41369 
191 1 16.4914 8.29484 7.3868 6.0251 -37345.9 36510.2 -16613.6 42212.9 2885.1 -9895.97 -7.41165 
192 1 17.1769 7.05128 7.38732 6.02734 -42315.1 37009.2 15799 32936.6 14521.4 -24485.6 -7.41395 
193 1 18.5964 7.02869 7.39118 6.02872 -32181.6 31274.8 -17910.1 58837.8 -1665.71 -11345.9 -7.4117 
10 1 19.1893 0.865415 7.38854 6.01578 -7965.03 4053.24 2674.26 59413 12843.7 -19613.9 -7.41306 
11 1 20.6089 0.844444 7.39269 6.01774 -6386.81 3762.51 -2904.62 85896.9 -13233.3 -16749.1 -7.41276 
12 1 23.4482 0.79889 7.40036 6.0084 -7091.56 3814.71 3218.96 82936.8 16478.5 -17679.2 -7.41345 
13 1 24.8678 0.780288 7.40367 6.00945 -5653.41 3656.84 -3359.28 106602 -16938.2 -14506.9 -7.41306 
14 1 27.7074 0.737739 7.40946 6.00279 -6317.74 3296.67 3491.51 104884 19529 -13810 -7.41373 
54 1 19.236 3.32506 7.38975 6.01937 -21809.9 17052.5 9604.56 56088.8 14920.2 -21625.2 -7.41358 
55 1 20.6556 3.304 7.3937 6.02253 -16351.1 14567.8 -10566 82519.9 -9811.73 -14613.5 -7.41227 
56 1 21.3419 2.06117 7.39516 6.01338 -14183.6 10058.1 7017.14 70021.4 15807.2 -19871.1 -7.41356 
57 1 22.7614 2.04138 7.39883 6.01559 -10571.3 8914.15 -7551.76 95524.1 -13607.1 -14873.1 -7.41263 
58 1 23.494 3.2585 7.40139 6.0115 -19367.9 15010.3 12240.6 79493.1 18311.5 -19424.8 -7.41411 
59 1 24.9135 3.23979 7.40449 6.01395 -13911.2 12751.4 -13002.6 103141 -13768.8 -12708.6 -7.41243 
60 1 25.6005 1.99742 7.40565 6.00652 -12366.7 8458.19 8386.37 93125.4 19104.5 -16751.1 -7.41397 
61 1 27.0201 1.97983 7.40835 6.00774 -8865.14 7474.29 -8748.4 114303 -16986 -11943.8 -7.41283 
62 1 27.7523 3.19727 7.41036 6.00458 -15992.1 11681.7 14188.2 101263 21193.2 -15086 -7.41451 
124 1 19.2822 5.78539 7.39203 6.02215 -35119.5 29709.9 16049.5 48832.4 15898.2 -23445.1 -7.41411 
125 1 20.7017 5.76413 7.39574 6.02772 -26149.4 25236.5 -17727.2 74913.8 -6025.87 -12351.1 -7.41185 
126 1 21.3879 4.52113 7.39679 6.01678 -27193.3 22163 14843.5 64517.5 17208.7 -21703.8 -7.41417 
127 1 22.8074 4.50119 7.40023 6.02109 -19776.2 18950.6 -16057.4 89850.2 -10090.2 -12828.6 -7.4121 
128 1 23.5391 5.71872 7.40333 6.01432 -31285.9 25866.2 20802 71715.1 18995.8 -21041.9 -7.41478 
129 1 24.9586 5.69977 7.40619 6.01992 -22098.5 21807.1 -22172.4 95134.1 -10209.2 -10814 -7.41188 
130 1 25.6455 4.45727 7.40706 6.00957 -23253.2 18222.2 18135.7 87277.3 20286.6 -18228.8 -7.4147 
131 1 27.0651 4.4395 7.40954 6.01287 -15789.6 15312.7 -19029.4 108386 -13689.2 -10340.9 -7.41219 
132 1 27.7967 5.65729 7.41208 6.00792 -25193.4 19834.1 24455.1 92964.2 21683.3 -16277 -7.4153 
194 1 19.3274 8.2464 7.39514 6.02458 -47605.1 41997.4 21624.7 38182.7 15707.4 -25051.2 -7.4146 
195 1 20.7469 8.22485 7.39856 6.02771 -35729.8 35929.5 -24003.1 63669.8 -2158.5 -9952.56 -7.41153 
196 1 21.4331 6.98175 7.3993 6.01977 -39657.7 33911.1 21998.5 55132.4 17421.3 -23371.9 -7.41476 
197 1 22.8526 6.96152 7.40248 6.02584 -28906 28895 -23878.7 80047.5 -6338.75 -10666.6 -7.41166 
198 1 23.5834 8.17955 7.40597 6.01804 -42417.4 36478.1 28503.4 60160.6 18430 -22507.8 -7.41542 
199 1 25.0029 8.16023 7.40857 6.02454 -30029.1 30929 -30474.2 83162.9 -6541.71 -8809.86 -7.41142 
200 1 25.6899 6.91767 7.40924 6.01259 -33618.3 27687 27242.9 77194.3 20226.2 -19596.1 -7.41542 
201 1 27.1094 6.89957 7.41147 6.01856 -22547.9 23226.6 -28660 98038.8 -10144 -8652.19 -7.41162 
202 1 27.8402 8.11777 7.41441 6.0117 -33703.4 27798.9 33893.5 80602.1 20869.9 -17369.5 -7.41605 
15 1 29.127 0.721122 7.41174 6.00276 -5017.32 3166.3 -3535.66 122859 -19683.3 -10520.8 -7.41329 
16 1 31.9668 0.680872 7.41536 5.99856 -5471.53 2685.15 3460.76 122111 21655.4 -8367.77 -7.41389 
17 1 33.3864 0.665599 7.41652 5.99862 -4312.37 2428.41 -3430.74 132129 -21262.4 -5161.51 -7.41344 
18 1 36.2264 0.626638 7.41789 5.99717 -4379.82 1959.62 3175.26 131897 22687.4 -2018.63 -7.41394 
63 1 29.1719 3.18054 7.41241 6.00671 -10575.6 9654.52 -14675.4 119273 -16717.6 -9225.74 -7.41256 
64 1 29.8594 1.93855 7.41315 6.00086 -9944.64 6324.51 9204.66 113033 21657.3 -11754.8 -7.41424 
65 1 31.279 1.92266 7.41476 6.0019 -6568.47 5342.79 -9380.27 127298 -19251.2 -7483.37 -7.41298 
66 1 32.0112 3.14029 7.41617 5.9994 -11512.3 7710.19 15262.6 118272 23220.8 -9062.54 -7.41475 
67 1 33.4308 3.12489 7.41711 6.00183 -6176.33 5637.79 -15461.7 128364 -18439.8 -4483.94 -7.41264 
68 1 34.1187 1.8832 7.41734 5.99743 -7049.11 3893.51 9433.3 126708 23217.6 -5455.17 -7.41436 
69 1 35.5383 1.86825 7.41782 5.99884 -3818.34 2657.84 -9433.79 132289 -20273.1 -1986.12 -7.41307 
70 1 36.2705 3.08592 7.41864 5.99703 -6413.96 3257.94 15456.2 127861 24231.7 -2089.74 -7.41483 
133 1 29.2162 5.64027 7.4139 6.01239 -15925.4 16093.6 -25373.3 110855 -13354.8 -7870.38 -7.4119 
134 1 29.9038 4.39823 7.41441 6.00296 -17673.3 13008.1 20368.7 106877 22701 -12715.6 -7.41507 
135 1 31.3234 4.38213 7.41579 6.0064 -10260.4 10212.6 -20875.6 121097 -16128.9 -6467.94 -7.41225 
136 1 32.0551 5.60003 7.41775 6.00204 -17162.6 12443.7 26658.2 109550 23608.7 -9710.35 -7.41561 
137 1 33.4746 5.58432 7.41845 6.00637 -7911.46 8759.41 -27074 119575 -15220.4 -3792.92 -7.41192 
138 1 34.1628 4.34266 7.41851 5.9987 -10993.9 7008.65 21398.5 120288 24203.5 -5824.78 -7.41525 
139 1 35.5824 4.32749 7.41877 6.00186 -3695.34 4019.01 -21508.1 125838 -17255.7 -1648.42 -7.41229 
140 1 36.3142 5.54532 7.42014 5.99891 -7997.3 4312.39 27337.6 118864 24608.1 -2150.63 -7.41573 
203 1 29.2598 8.10034 7.41598 6.01798 -21039.7 22676.1 -35240.9 98243.6 -9877.47 -6444.48 -7.41133 
204 1 29.9475 6.85831 7.41637 6.00691 -24899.8 19349.8 30924.2 96174.5 22477.3 -13609.7 -7.41589 
205 1 31.3671 6.84185 7.41752 6.01223 -13739.8 15126.2 -31756.1 110262 -12757.2 -5411.23 -7.41159 
206 1 32.0981 8.06006 7.41988 6.00656 -22221.9 16975.7 37258.4 96575.1 22671.2 -10306.1 -7.41646 
207 1 33.5177 8.04391 7.42036 6.01228 -9403.85 12093.2 -37890.3 106457 -11887.8 -3085.42 -7.41128 
208 1 34.2061 6.80234 7.42035 6.00194 -14352 9776.46 32777.3 109114 23920.3 -6167.75 -7.41614 
209 1 35.6257 6.78678 7.42038 6.00657 -3207.87 5466.38 -32989.7 114688 -13991.3 -1324.88 -7.41159 
210 1 36.3571 8.00484 7.42218 6.00267 -9120.45 5155.61 38441.8 105526 23658.6 -2202.98 -7.41661 
19 1 37.646 0.611885 7.41793 5.99744 -3315.09 1532.08 -3086.16 132702 -21619.6 938.09 -7.41351 
20 1 40.486 0.573024 7.41703 5.99743 -3317.06 1076.62 2722.09 132787 22560.4 4457.39 -7.41388 
21 1 41.9056 0.557898 7.41595 5.99808 -2366.61 377.043 -2578.86 124307 -20769.9 7036.08 -7.41349 
22 1 44.7457 0.517933 7.41278 6.00066 -2184.71 161.882 2182.39 124839 21251.3 10288.9 -7.41372 
23 1 46.1653 0.501589 7.41058 6.0015 -1375.15 -696.618 -2001.24 108146 -18771.8 12371.6 -7.41338 
71 1 37.6902 3.07104 7.41846 5.99901 -1174.7 997.702 -15371.8 128802 -18860.6 939.189 -7.41269 
72 1 38.3783 1.82949 7.41815 5.99693 -3863.51 1296.63 9133.79 132077 23683.5 1373.82 -7.41436 
73 1 39.7979 1.81462 7.41751 5.99792 -791.753 -314.744 -8965.32 128292 -20033.6 3870.48 -7.4131 
74 1 40.5304 3.03216 7.41774 5.99729 -1173.67 -1257.69 14846.6 128641 24167.8 5005.72 -7.41475 
75 1 41.95 3.0169 7.41645 5.99922 3929.38 -3915.69 -14483.7 120346 -17988.1 6350.41 -7.4127 
76 1 42.6382 1.77534 7.41557 5.99812 -786.868 -1421.49 8393.6 128425 23016.8 7926.63 -7.41423 
77 1 44.0578 1.75966 7.41382 5.99968 2147.64 -3288.95 -8065.15 115742 -18567.4 9348.86 -7.41306 
78 1 44.7905 2.97691 7.41347 5.99971 3485.25 -5642.83 13517.1 120800 23003.4 11411.7 -7.41453 
79 1 46.2102 2.96044 7.41108 6.00208 8477.04 -8460.82 -12899.8 104316 -15889.4 11037.6 -7.41266 
141 1 37.7339 5.53013 7.41974 6.00242 1234.88 455.706 -27244.7 119830 -15704.4 900.581 -7.41195 
142 1 38.4223 4.28871 7.41927 5.99755 -3637.61 643.574 21259 125482 24696.8 1612.56 -7.41526 
143 1 39.842 4.27361 7.41842 5.99995 3562.74 -2654.13 -20974.4 121708 -17034.5 3495.36 -7.41232 
144 1 40.5742 5.49121 7.41921 5.99895 1245.56 -3973.43 26562.7 119642 24622.1 5528.47 -7.41564 
145 1 41.9939 5.47564 7.41772 6.00171 10351.3 -8238.48 -25966.1 111444 -14803.5 5573.26 -7.41198 
146 1 42.6825 4.23431 7.41668 5.99856 3327.08 -5705.36 20037.2 121887 24142.9 8750.46 -7.41509 
147 1 44.1022 4.21841 7.41474 6.00134 10387.2 -9346.87 -19370.6 109317 -15500.1 8276.37 -7.41233 
148 1 44.8349 5.43563 7.41496 6.00066 9511.42 -11758.2 24421.3 112047 23622.2 12475.7 -7.41536 
149 1 46.2546 5.41887 7.41241 6.0042 18459 -16387.8 -23354.6 95733.9 -12594.7 9568.83 -7.412 
211 1 37.7767 7.98917 7.42156 6.00749 3714 81.3917 -38337.6 106461 -12436.5 816.819 -7.41129 
212 1 38.4657 6.74794 7.42105 5.99996 -2905.8 -334.314 32800.2 114138 24451.5 1840.12 -7.41615 
213 1 39.8854 6.73245 7.42 6.00376 8137.55 -5079.71 -32391.4 110493 -13787.6 3047.96 -7.41163 
214 1 40.6172 7.95017 7.42123 6.0019 4118.74 -6923.3 37493.5 106302 23762.9 6019.11 -7.41651 
215 1 42.037 7.93414 7.41956 6.00586 16888.2 -12433.1 -36659.3 98240 -11505.8 4691.26 -7.41134 
216 1 42.7262 6.6931 7.41847 6.00079 7902.73 -10281.3 31078.6 110698 24028.4 9527.27 -7.41595 
217 1 44.146 6.67682 7.41636 6.00422 18783.7 -15549.5 -30065.3 98345.7 -12179.5 7079.63 -7.41168 
218 1 44.8784 7.89407 7.41703 6.00333 15864.2 -18255.1 34513.5 99093.7 22950.4 13468.7 -7.41617 
219 1 46.2983 7.87687 7.41436 6.00743 28403 -24262.9 -32993.6 83142.6 -9181.54 7946.86 -7.41143 
282 1 38.5081 9.20718 7.42323 6.00426 -1703.91 -1556.2 43357.4 98892.6 22860.8 2057.61 -7.417 
283 1 39.9278 9.19115 7.422 6.00912 12773.1 -7210.47 -42825.6 95376.9 -10547.1 2523.54 -7.41102 
286 1 42.769 9.15171 7.42068 6.00463 12902 -15206.4 41118.6 95703.7 22583.7 10248 -7.41676 
287 1 44.1888 9.1349 7.41843 6.00864 27151.9 -21540.1 -39759.2 83679.1 -8863.17 5749.17 -7.41112 
24 1 49.0053 0.459473 7.40521 6.00667 -1534.85 -759.597 1615.1 109614 18792.5 14789.4 -7.41345 
25 1 50.4249 0.441234 7.40196 6.00651 -871.011 -1662.15 -1434.2 86781.8 -15779.2 16276.9 -7.41318 
26 1 53.2648 0.396202 7.39462 6.01456 -1231.45 -1450.07 1075.31 89519.3 15355.9 17504.7 -7.41309 
27 1 54.6844 0.375639 7.39052 6.01336 -827.728 -2396.46 -927.546 63378.9 -12104.6 18369.7 -7.41287 
80 1 46.8981 1.71872 7.40963 6.00247 1771.05 -3848.07 7285.77 116618 21211.1 13439.1 -7.41398 
81 1 48.3178 1.70146 7.4068 6.00362 4490.3 -5980.27 -6834.07 96701.5 -15978.9 13740.3 -7.41295 
82 1 49.0509 2.91831 7.40589 6.00506 7045.25 -9331.69 11553.1 105825 20761 16390.9 -7.41417 
83 1 50.4706 2.89996 7.40249 6.00617 11816.6 -12331.7 -10750 83239.4 -12737.9 14393.4 -7.41255 
84 1 51.1581 1.65796 7.40047 6.00926 3532.87 -5879.28 5892.16 98738.2 18350.6 17290 -7.41361 
85 1 52.5778 1.63855 7.39669 6.0092 6071.35 -7997.42 -5381.03 74033.3 -12505.3 16530.9 -7.41275 
86 1 53.3114 2.85493 7.39532 6.0125 9097.01 -11927 9110.5 86100.5 17608.9 19424.1 -7.41368 
87 1 54.7311 2.83427 7.3911 6.01243 13503.5 -15118.4 -8221.1 60248.2 -8856.41 16102.1 -7.41238 
88 1 55.4181 1.59189 7.38861 6.01756 4167.59 -7295.51 4345.85 77393.6 14711.1 19162.3 -7.41314 
150 1 46.9431 4.17746 7.41075 6.00213 9193.52 -11289 17818.8 110376 22529.7 14781.3 -7.41476 
151 1 48.3629 4.16 7.40777 6.00447 15999.1 -15318.7 -16824.1 90602.5 -12774.3 12041.9 -7.4123 
152 1 49.0961 5.37673 7.40745 6.0053 15857.2 -18271.7 21036.2 97549.8 21624.1 17903 -7.4149 
153 1 50.5159 5.35812 7.40394 6.00748 24497.6 -23208.5 -19599.1 75262.1 -9275.48 12340.6 -7.412 
154 1 51.2041 4.1165 7.40165 6.00834 13191.8 -15688.9 14747.2 92948.7 19934.2 19023.8 -7.41427 
155 1 52.6238 4.09692 7.39776 6.00936 19704.6 -19872.4 -13537.1 68466.9 -9115.47 14339.8 -7.41222 
156 1 53.3576 5.31313 7.39703 6.01224 19612.9 -22696.4 16674.5 78470.4 18796.7 21217.2 -7.41428 
157 1 54.7774 5.29224 7.39277 6.01313 27761.8 -27905.5 -15037.1 53036.4 -5188.4 13627 -7.41196 
158 1 55.4651 4.05029 7.38989 6.01628 15060 -18347.7 11113.8 72123.5 16642 21084.5 -7.41366 
220 1 46.9875 6.63584 7.41261 6.00358 16842.1 -19147.8 27719.4 99684.1 22635.1 16042.6 -7.41554 
221 1 48.4073 6.61803 7.40951 6.00693 27445.7 -24802.9 -26174.6 80257.1 -9307.62 10179.6 -7.41174 
222 1 49.1404 7.83473 7.40968 6.00725 24934.7 -27547.4 29674.4 85348.6 21235 19305.6 -7.4156 
223 1 50.5603 7.81572 7.40611 6.01027 37048.2 -33990.7 -27605 63577 -5689.27 10102.1 -7.41154 
224 1 51.2493 6.57455 7.40367 6.00916 23075.6 -25854.3 22943 82961.7 20344.8 20641.9 -7.41493 
225 1 52.6692 6.55466 7.39973 6.0111 33228.2 -31813.1 -21031.4 59014.9 -5458.66 11954.1 -7.41178 
226 1 53.4029 7.7708 7.39954 6.01365 30191.2 -33673.6 23378.6 67200.9 18788 22856.6 -7.41484 
227 1 54.8228 7.74957 7.39531 6.01529 41549.5 -40611.2 -21002.9 42458.2 -1398.27 10943.5 -7.41164 
228 1 55.5114 6.50813 7.3922 6.01672 25967 -29644.7 17214.9 63000.1 17453 22841.8 -7.41418 
290 1 47.0309 9.09388 7.41495 6.00665 24821.9 -27239 36588.4 85345.6 21441.7 17202.8 -7.41626 
291 1 48.4508 9.07557 7.41178 6.01078 38663.4 -34179.3 -34498.1 66485.3 -5842.52 8143.83 -7.41126 
294 1 51.2937 9.03213 7.40628 6.01158 33091.3 -36270.2 30087.4 69635.1 19510.4 22111.2 -7.41553 
295 1 52.7136 9.01181 7.40236 6.01421 46282.4 -43643.5 -27488.1 46418.6 -1803.53 9373.62 -7.41143 
298 1 55.5568 8.96542 7.39525 6.0187 36829 -41112.2 22278 50786.7 17090.3 24395.6 -7.41464 
28 1 57.5241 0.32728 7.38171 6.02332 -1244.81 -2071.74 618.714 67156.7 11314 18317.2 -7.41266 
29 1 58.9438 0.304228 7.37707 6.02141 -1016.68 -2854.22 -513.783 40760.8 -8206 18580 -7.41248 
30 1 61.7833 0.252474 7.36764 6.03206 -1632.98 -2613.53 269.373 44697.2 7197.45 17222.5 -7.41221 
31 1 63.2029 0.227011 7.36297 6.02997 -1546.47 -3108.71 -252.026 21148.8 -4599.44 16771 -7.41205 
89 1 56.8378 1.57006 7.38413 6.01651 6500.4 -9272.8 -3835.98 50873.9 -8534.82 17551.1 -7.41246 
90 1 57.5719 2.78593 7.38246 6.02109 9646.15 -13190.8 6453.27 64152.5 13946.7 20325.4 -7.4131 
91 1 58.9916 2.7628 7.37776 6.02014 13631.7 -16342.7 -5580.6 38070.9 -4675.93 16157 -7.41214 
92 1 59.6779 1.51999 7.37494 6.02644 3893.03 -7816.61 2820.09 54899 10777 19020.1 -7.41261 
93 1 61.0976 1.49569 7.37018 6.0248 5875.87 -9670.79 -2375.96 29711.4 -4541.6 16795.2 -7.41213 
94 1 61.8321 2.7111 7.36849 6.03005 8403.52 -12770.7 3892.47 42112.1 10353 19042.6 -7.4125 
95 1 63.2519 2.68558 7.36384 6.02866 11851.1 -15770.7 -3177.53 18873 -658.635 14493.3 -7.41187 
96 1 63.9375 1.44234 7.36094 6.0351 2608.77 -7325.46 1460.6 33270.3 7133 16725.1 -7.41209 
159 1 56.8848 4.02831 7.38537 6.01619 21160.2 -22561.2 -9833.83 45942 -4913.22 15055.9 -7.41209 
160 1 57.6191 5.244 7.38443 6.02061 20631.2 -24474.9 11819.4 57249.2 15562.9 22146.2 -7.41355 
161 1 59.0389 5.22069 7.37977 6.02045 28067.8 -29803.4 -10181.2 31703.3 -752.975 13468.3 -7.41188 
162 1 59.726 3.97834 7.37644 6.02514 14609.2 -18711.9 7349.51 50211.9 13179.1 20857.9 -7.41299 
163 1 61.1458 3.95392 7.37171 6.02425 20044.4 -22933.1 -6161.55 25390.9 -601.921 14247.3 -7.4119 
164 1 61.8805 5.16917 7.37088 6.0297 18374.5 -22981 7077.02 35919.8 12534.4 20591.1 -7.4128 
165 1 63.3003 5.14353 7.36636 6.02887 24897.5 -28183.4 -5669.19 13323.4 3604.2 11887.2 -7.41176 
166 1 63.9867 3.90072 7.36277 6.03417 11543.3 -16340.7 3911.53 29143.1 10149.3 18193.4 -7.41233 
229 1 56.9313 6.48589 7.38772 6.01742 35443.1 -35804.4 -15171.1 37474.6 -1035.65 12331.1 -7.41179 
230 1 57.6656 7.7015 7.3874 6.02175 31451.3 -35809.1 16342.4 46993.8 16044.6 23752.1 -7.41398 
231 1 59.0855 7.67793 7.38289 6.0222 41780.7 -42949.7 -13961 22317.6 3262.38 10546.8 -7.41171 
232 1 59.7735 6.43611 7.3792 6.02549 25160 -29671.3 11235.6 41969.5 14509.9 22457.2 -7.41336 
233 1 61.1933 6.4115 7.37462 6.02521 33607.4 -35919.3 -9319.73 17907.5 3542.6 11423.2 -7.41177 
234 1 61.9281 7.6267 7.37455 6.03088 28035.2 -33059 9474.96 26712 13617.6 21855.1 -7.4131 
235 1 63.3479 7.6009 7.37028 6.03043 37086.7 -40092.7 -7404.44 5062.3 7873.42 9029.09 -7.41176 
236 1 64.0352 6.3586 7.36619 6.03478 20238.3 -25201.7 5776.55 21810.5 12112.2 19354.8 -7.41257 
299 1 56.9768 8.94283 7.3909 6.01996 49042.9 -48702.9 -19496.8 26261.6 2825.53 9401.24 -7.41159 
302 1 59.82 8.89332 7.38294 6.0273 35442.6 -40516 14140.1 30931.2 14729.9 23790.5 -7.41369 
303 1 61.2399 8.86847 7.37861 6.02743 46257.3 -48323.5 -11535.5 8056.19 7614.83 8390.84 -7.41174 
306 1 64.0826 8.816 7.37086 6.03347 28689 -33714.9 6752.26 11878.1 12975.4 20210.6 -7.41279 
32 1 66.0423 0.172148 7.35423 6.0384 -2045.79 -2773.34 -5.95366 24174.3 3591.44 13912.5 -7.41178 
33 1 67.462 0.144623 7.35036 6.03836 -2083.91 -3038.98 -197.197 6666.12 -1786.03 12464.5 -7.41166 
34 1 70.3013 0.087368 7.34421 6.04291 -2707.54 -2853.78 -223.701 8305.78 1053.49 7984.39 -7.41147 
35 1 71.7209 0.0584738 7.34214 6.04491 -2712.41 -2830.83 -279.103 -378.52 -205.485 5526.89 -7.4114 
97 1 65.3572 1.41576 7.35655 6.03345 4265.99 -8834.9 -1221.35 12515.1 -1022.41 13974.6 -7.41178 
98 1 66.0921 2.63081 7.35527 6.03854 5389.71 -10238.5 1712.54 21978.7 7384.36 15267.7 -7.41194 
99 1 67.5118 2.60325 7.35144 6.03737 8278.3 -12934.7 -1375.85 4734.47 2681.03 10708 -7.41161 
100 1 68.1969 1.35961 7.34889 6.04103 331.059 -5546.67 386.507 14841.2 4306.37 11830.1 -7.41165 
101 1 69.6166 1.33128 7.34581 6.04117 1617.28 -6995.42 -535.614 1584.93 1498.35 8646.54 -7.4115 
102 1 70.3517 2.54612 7.34542 6.04419 468.455 -5911.56 201.876 6433.87 5394.6 8659.12 -7.41154 
103 1 71.7714 2.51722 7.34339 6.04322 3030.68 -8381.33 -404.126 -2017.88 4722.06 4658.76 -7.41143 
104 1 72.456 1.27328 7.34172 6.04628 -2395.22 -3020.86 -231.226 2577.06 2666.77 4307.63 -7.4114 
105 1 73.8757 1.24406 7.34087 6.04661 -1105.39 -4126.33 -301.734 -869.151 2501.66 1247.3 -7.41136 
167 1 65.4065 3.87408 7.35848 6.03299 16220 -20296.9 -3038.52 8777.51 3353.93 11728.6 -7.4117 
168 1 66.1415 5.08903 7.35822 6.03876 12637.4 -17592.7 3050.21 16496.5 10222.1 16308.6 -7.41213 
169 1 67.5612 5.06143 7.35457 6.03694 18175.9 -22555.3 -2157.57 -191.591 7357.22 8628.4 -7.41164 
170 1 68.2469 3.81814 7.3511 6.04225 5730.81 -10875.2 1233.81 11224.7 7961.75 12722.5 -7.41178 
171 1 69.6666 3.78979 7.34813 6.04022 9638.38 -14761.8 -930.156 -1718.87 6348.36 7151.6 -7.41154 
172 1 70.4017 5.00465 7.34889 6.0407 3520.77 -8830.65 314.322 1549.49 8777.92 9116.05 -7.41165 
173 1 71.8214 4.97575 7.34698 6.04124 8415.53 -13614.6 -160.579 -6583.47 9750.89 3608.44 -7.41155 
174 1 72.5065 3.73205 7.34421 6.04296 -1841.17 -3376.86 -248.264 -666.116 6717.72 4539.57 -7.41147 
175 1 73.9261 3.70285 7.34339 6.04449 1855.64 -6949.52 -88.8869 -3969.53 7642.35 871.981 -7.41145 
237 1 65.455 6.33186 7.36213 6.03393 27508.7 -31283.5 -4282.58 2189.01 7825.33 9183.97 -7.41172 
238 1 66.1899 7.54684 7.36276 6.03634 19637.8 -24656.1 3685.88 8260.01 11945.5 17041.8 -7.41232 
239 1 67.6097 7.51918 7.3594 6.03677 27310.9 -31610.1 -2259.22 -7575.41 11893.4 6323.63 -7.41178 
240 1 68.2962 6.27633 7.35526 6.03834 10950.9 -16080.1 1572.45 4683.81 10543.9 13329.9 -7.41194 
241 1 69.7159 6.24797 7.3525 6.03863 17112.9 -22112.9 -803.036 -7707.3 11150.4 5426.88 -7.41167 
242 1 70.4507 7.46296 7.35423 6.03565 6452.34 -11599.6 -193.122 -5845.25 11000.5 9360.83 -7.41178 
243 1 71.8704 7.4341 7.35252 6.03946 13248.3 -18418.8 703.809 -13458.3 14495.1 2443.71 -7.41178 
244 1 72.5561 6.19073 7.34888 6.03905 -1274.66 -3732.04 -709.33 -6622.82 9671.91 4657.39 -7.41158 
245 1 73.9758 6.16156 7.34814 6.04245 4480.73 -9547.56 611.022 -9699.61 12640.4 442.289 -7.41165 
307 1 65.5025 8.78914 7.36713 6.03472 37957.5 -41479.9 -4680.42 -6554.59 12102.2 6448.7 -7.41184 
310 1 68.3444 8.73421 7.36094 6.03265 16002 -20928.4 1120.73 -4162.66 11979.6 13672 -7.41208 
311 1 69.7642 8.70585 7.35847 6.03662 23876.9 -28768.7 80.6037 -15659.3 15596.5 3575.99 -7.41192 
314 1 72.6047 8.64933 7.35524 6.03449 -629.347 -3947.5 -1891 -14671.5 11433.5 4661.51 -7.41169 
315 1 74.0244 8.62024 7.3546 6.03986 6675.39 -11723.3 2014.57 -17424 17174.4 1.94769 -7.41194 
246 1 0.197871 9.83584 7.35817 6.03481 -10254.3 6186.18 -3180.35 -21584.1 11698.5 -423.05 -7.41168 
247 1 1.61753 9.80679 7.35852 6.03899 -2436.78 -2534.93 2790.8 -19723.9 19055.3 -1672.73 -7.41213 
248 1 2.35032 11.0229 7.3627 6.03523 -21958.9 18009.9 -3764.69 -26632.6 11710.4 -5553.43 -7.41177 
249 1 3.76993 10.9941 7.36387 6.03292 -13549.9 8533.81 2745.3 -20549.4 20120.7 -2517.32 -7.41229 
250 1 4.45565 9.75053 7.36092 6.03618 -29502 25031.5 -1221.18 -20461.1 11310.3 -10326.1 -7.4119 
251 1 5.8752 9.72212 7.36297 6.02998 -21019.7 16407.2 -251.84 -9938.11 16823.8 -4402.24 -7.41205 
252 1 6.60707 10.9388 7.36764 6.03207 -41041.2 36852.9 269.525 -21968.5 11316.3 -14844.5 -7.41221 
253 1 8.02659 10.9111 7.37018 6.02477 -31528.7 27654.6 -2375.73 -8098.4 16815.9 -4464.47 -7.41213 
254 1 8.71188 9.66722 7.36849 6.03005 -44017.7 39480.8 3892.63 -11843.6 11314.8 -18487.5 -7.4125 
316 1 0.244199 12.2949 7.3661 6.03097 -11481.2 8173.58 -5822.02 -30920.8 11972.6 -553.058 -7.41174 
317 1 1.66387 12.266 7.36644 6.03598 -3053.42 -1984.94 5442.35 -29111.3 22640.1 -1259.31 -7.41256 
318 1 2.39575 13.4826 7.37075 6.03305 -25002.4 21755.3 -6778.04 -36054.4 11573.3 -5645.69 -7.41181 
319 1 3.81537 13.454 7.37178 6.03078 -16276.8 11172 5616.96 -30571.6 23399.7 -1344.61 -7.41274 
320 1 4.50177 12.2108 7.36841 6.03447 -34648.9 30881.7 -3413.39 -30040.1 11451.1 -10462.5 -7.41197 
321 1 5.92133 12.1825 7.3702 6.02698 -25479.9 20982.1 1677.38 -20389.9 20455.3 -2625.68 -7.41241 
322 1 6.65215 13.3997 7.37488 6.02949 -47513.9 44050.2 -1974.11 -32108.4 10942.5 -14970.4 -7.41227 
323 1 8.07166 13.3721 7.37707 6.02142 -37638.3 33868.3 -513.683 -19608.2 20193.8 -2183.29 -7.41248 
324 1 8.75747 12.1284 7.37494 6.02645 -52442.7 48539.6 2820.28 -22392.3 11083.3 -18843.2 -7.41261 
386 1 0.288818 14.754 7.3744 6.02758 -12314 9991.56 -9477.23 -40226.1 11551.1 -686.748 -7.41174 
387 1 1.70852 14.7254 7.37475 6.0322 -3949.07 -1155.88 9067.38 -38554.3 25561.3 -798.768 -7.41308 
388 1 2.43945 15.9425 7.37897 6.03023 -27452 25143.9 -10805.5 -45197.2 10868.4 -5678.4 -7.41179 
389 1 3.85908 15.9142 7.37987 6.02783 -19090.5 13848.2 9488.66 -40333.3 26020.2 -151.75 -7.41327 
390 1 4.54621 14.6712 7.37627 6.03331 -39063.3 36086 -6642.57 -39681.4 10919.4 -10486.7 -7.41199 
391 1 5.96577 14.6431 7.3778 6.02439 -29919.7 25399.1 4638.62 -31093.5 23464.9 -815.26 -7.41286 
392 1 6.69554 15.861 7.3823 6.02731 -53181.4 50527.8 -5292.15 -42096.2 10021.7 -14915.3 -7.41227 
393 1 8.11504 15.8334 7.38414 6.01851 -43684.8 39824.2 2447.19 -31128.1 22951.6 126.76 -7.41291 
394 1 8.80144 14.59 7.38171 6.02334 -59952.6 56736.9 618.775 -33238.1 10206.2 -18956.8 -7.41266 
456 1 0.331668 17.2132 7.38271 6.02479 -12865.3 11682.5 -14119 -48881.1 10662.7 -802.528 -7.41169 
457 1 1.7514 17.1849 7.38308 6.0287 -5191.17 -6.96348 13661.6 -47390.1 27798.6 -303.999 -7.41367 
458 1 2.48138 18.4025 7.38706 6.02801 -29376.5 28050 -15786.4 -53342 9786.27 -5632.32 -7.41171 
459 1 3.90103 18.3745 7.38785 6.02492 -22019.5 16555.9 14321.1 -49274.6 27933.2 1038.08 -7.41386 
460 1 4.58891 17.1319 7.38415 6.03252 -42874 40765.1 -10886.6 -48718.9 9930.68 -10385.7 -7.41195 
461 1 6.00848 17.104 7.38543 6.0222 -34421 29733.5 8629.08 -41358.5 25807 995.057 -7.41338 
462 1 6.7372 18.3225 7.38959 6.02548 -58088.2 56180.8 -9628.96 -51198.4 8731.56 -14658.3 -7.4122 
463 1 8.1567 18.2951 7.39111 6.01602 -49616 45500.8 6464.9 -41978.2 25012.7 2432.68 -7.4134 
464 1 8.84372 17.0519 7.3885 6.02068 -66627.4 64110.8 -2698.88 -43646.5 8881.45 -18807.7 -7.41264 
255 1 10.1314 9.64021 7.37171 6.02425 -34254.1 31219.4 -6161.67 5901.19 12639.2 -6602.6 -7.4119 
256 1 10.8624 10.8575 7.37644 6.02512 -53914.8 49686 7349.6 -10658 11473.9 -21842.6 -7.41299 
257 1 12.2819 10.8314 7.37977 6.02045 -42839.9 41048.9 -10181.3 9218.96 12040.3 -6082.05 -7.41188 
258 1 12.9672 9.58755 7.3792 6.02548 -52279.8 47744.3 11235.5 2791.87 12193.6 -23794.6 -7.41336 
259 1 14.3866 9.56247 7.38289 6.0222 -41073.5 39974.2 -13961.1 25509.9 7502.67 -8098.63 -7.41171 
260 1 15.117 10.7804 7.3874 6.02175 -59676.2 55345 16342.5 5651.92 12547.7 -25771.1 -7.41398 
261 1 16.5364 10.7562 7.3909 6.01997 -47032.1 47337.4 -19496.8 29168.8 6728.88 -7147.69 -7.41159 
262 1 17.2221 9.51264 7.39108 6.02427 -54411.5 49445.9 19693.9 21556.8 14026.7 -25903.8 -7.41434 