(written by TR)

7352	atoms
1	atom types
0	74.5601367	xlo xhi
0	129.141945	ylo yhi
0	18.3999996	zlo zhi


Masses

1	12

Atoms

1 1 1 0 0.00000000 0.00000000 7.50000000 0 0 0
2 1 1 0 2.14999332 1.19445761 7.50000000 0 0 0
3 1 1 0 3.56980006 1.17103687 7.50000000 0 0 0
4 1 1 0 6.40941404 1.12419539 7.50000000 0 0 0
5 1 1 0 7.82922079 1.10077465 7.50000000 0 0 0
6 1 1 0 10.66883477 1.05393317 7.50000000 0 0 0
7 1 1 0 12.08864151 1.03051243 7.50000000 0 0 0
8 1 1 0 14.92825550 0.98367095 7.50000000 0 0 0
9 1 1 0 16.34806224 0.96025021 7.50000000 0 0 0
10 1 1 0 19.18767622 0.91340873 7.50000000 0 0 0
11 1 1 0 20.60748296 0.88998799 7.50000000 0 0 0
12 1 1 0 23.44709695 0.84314650 7.50000000 0 0 0
13 1 1 0 24.86690369 0.81972577 7.50000000 0 0 0
14 1 1 0 27.70651768 0.77288428 7.50000000 0 0 0
15 1 1 0 29.12632442 0.74946355 7.50000000 0 0 0
16 1 1 0 31.96593840 0.70262206 7.50000000 0 0 0
17 1 1 0 33.38574514 0.67920132 7.50000000 0 0 0
18 1 1 0 36.22535913 0.63235984 7.50000000 0 0 0
19 1 1 0 37.64516587 0.60893910 7.50000000 0 0 0
20 1 1 0 40.48477985 0.56209762 7.50000000 0 0 0
21 1 1 0 41.90458660 0.53867688 7.50000000 0 0 0
22 1 1 0 44.74420058 0.49183540 7.50000000 0 0 0
23 1 1 0 46.16400732 0.46841466 7.50000000 0 0 0
24 1 1 0 49.00362131 0.42157318 7.50000000 0 0 0
25 1 1 0 50.42342805 0.39815244 7.50000000 0 0 0
26 1 1 0 53.26304203 0.35131096 7.50000000 0 0 0
27 1 1 0 54.68284878 0.32789022 7.50000000 0 0 0
28 1 1 0 57.52246276 0.28104874 7.50000000 0 0 0
29 1 1 0 58.94226950 0.25762800 7.50000000 0 0 0
30 1 1 0 61.78188349 0.21078651 7.50000000 0 0 0
31 1 1 0 63.20169023 0.18736578 7.50000000 0 0 0
32 1 1 0 66.04130421 0.14052429 7.50000000 0 0 0
33 1 1 0 67.46111095 0.11710356 7.50000000 0 0 0
34 1 1 0 70.30072494 0.07026207 7.50000000 0 0 0
35 1 1 0 71.72053168 0.04684134 7.50000000 0 0 0
36 1 1 0 0.04056591 2.45917744 7.50000000 0 0 0
37 1 1 0 1.46037275 2.43575670 7.50000000 0 0 0
38 1 1 0 2.19055923 3.65363505 7.50000000 0 0 0
39 1 1 0 3.61036597 3.63021431 7.50000000 0 0 0
40 1 1 0 4.29998663 2.38891522 7.50000000 0 0 0
41 1 1 0 5.71979348 2.36549448 7.50000000 0 0 0
42 1 1 0 6.44997995 3.58337283 7.50000000 0 0 0
43 1 1 0 7.86978669 3.55995209 7.50000000 0 0 0
44 1 1 0 8.55940736 2.31865300 7.50000000 0 0 0
45 1 1 0 9.97921420 2.29523226 7.50000000 0 0 0
46 1 1 0 10.70940068 3.51311061 7.50000000 0 0 0
47 1 1 0 12.12920742 3.48968987 7.50000000 0 0 0
48 1 1 0 12.81882809 2.24839078 7.50000000 0 0 0
49 1 1 0 14.23863493 2.22497004 7.50000000 0 0 0
50 1 1 0 14.96882140 3.44284839 7.50000000 0 0 0
51 1 1 0 16.38862815 3.41942765 7.50000000 0 0 0
52 1 1 0 17.07824881 2.17812856 7.50000000 0 0 0
53 1 1 0 18.49805566 2.15470782 7.50000000 0 0 0
54 1 1 0 19.22824213 3.37258617 7.50000000 0 0 0
55 1 1 0 20.64804887 3.34916543 7.50000000 0 0 0
56 1 1 0 21.33766954 2.10786634 7.50000000 0 0 0
57 1 1 0 22.75747638 2.08444560 7.50000000 0 0 0
58 1 1 0 23.48766286 3.30232395 7.50000000 0 0 0
59 1 1 0 24.90746960 3.27890321 7.50000000 0 0 0
60 1 1 0 25.59709027 2.03760411 7.50000000 0 0 0
61 1 1 0 27.01689711 2.01418338 7.50000000 0 0 0
62 1 1 0 27.74708358 3.23206172 7.50000000 0 0 0
63 1 1 0 29.16689033 3.20864099 7.50000000 0 0 0
64 1 1 0 29.85651099 1.96734189 7.50000000 0 0 0
65 1 1 0 31.27631783 1.94392115 7.50000000 0 0 0
66 1 1 0 32.00650431 3.16179950 7.50000000 0 0 0
67 1 1 0 33.42631105 3.13837877 7.50000000 0 0 0
68 1 1 0 34.11593172 1.89707967 7.50000000 0 0 0
69 1 1 0 35.53573856 1.87365893 7.50000000 0 0 0
70 1 1 0 36.26592504 3.09153728 7.50000000 0 0 0
71 1 1 0 37.68573178 3.06811654 7.50000000 0 0 0
72 1 1 0 38.37535245 1.82681745 7.50000000 0 0 0
73 1 1 0 39.79515929 1.80339671 7.50000000 0 0 0
74 1 1 0 40.52534576 3.02127506 7.50000000 0 0 0
75 1 1 0 41.94515250 2.99785432 7.50000000 0 0 0
76 1 1 0 42.63477317 1.75655523 7.50000000 0 0 0
77 1 1 0 44.05458001 1.73313449 7.50000000 0 0 0
78 1 1 0 44.78476649 2.95101284 7.50000000 0 0 0
79 1 1 0 46.20457323 2.92759210 7.50000000 0 0 0
80 1 1 0 46.89419390 1.68629301 7.50000000 0 0 0
81 1 1 0 48.31400074 1.66287227 7.50000000 0 0 0
82 1 1 0 49.04418722 2.88075062 7.50000000 0 0 0
83 1 1 0 50.46399396 2.85732988 7.50000000 0 0 0
84 1 1 0 51.15361462 1.61603079 7.50000000 0 0 0
85 1 1 0 52.57342147 1.59261005 7.50000000 0 0 0
86 1 1 0 53.30360794 2.81048840 7.50000000 0 0 0
87 1 1 0 54.72341468 2.78706766 7.50000000 0 0 0
88 1 1 0 55.41303535 1.54576857 7.50000000 0 0 0
89 1 1 0 56.83284219 1.52234783 7.50000000 0 0 0
90 1 1 0 57.56302867 2.74022618 7.50000000 0 0 0
91 1 1 0 58.98283541 2.71680544 7.50000000 0 0 0
92 1 1 0 59.67245608 1.47550635 7.50000000 0 0 0
93 1 1 0 61.09226292 1.45208561 7.50000000 0 0 0
94 1 1 0 61.82244939 2.66996396 7.50000000 0 0 0
95 1 1 0 63.24225614 2.64654322 7.50000000 0 0 0
96 1 1 0 63.93187680 1.40524412 7.50000000 0 0 0
97 1 1 0 65.35168365 1.38182339 7.50000000 0 0 0
98 1 1 0 66.08187012 2.59970173 7.50000000 0 0 0
99 1 1 0 67.50167686 2.57628100 7.50000000 0 0 0
100 1 1 0 68.19129753 1.33498190 7.50000000 0 0 0
101 1 1 0 69.61110437 1.31156116 7.50000000 0 0 0
102 1 1 0 70.34129085 2.52943951 7.50000000 0 0 0
103 1 1 0 71.76109759 2.50601878 7.50000000 0 0 0
104 1 1 0 72.45071826 1.26471968 7.50000000 0 0 0
105 1 1 0 73.87052510 1.24129894 7.50000000 0 0 0
106 1 1 0 0.08113182 4.91835488 7.50000000 0 0 0
107 1 1 0 1.50093866 4.89493414 7.50000000 0 0 0
108 1 1 0 2.23112513 6.11281249 7.50000000 0 0 0
109 1 1 0 3.65093188 6.08939175 7.50000000 0 0 0
110 1 1 0 4.34055254 4.84809266 7.50000000 0 0 0
111 1 1 0 5.76035938 4.82467192 7.50000000 0 0 0
112 1 1 0 6.49054586 6.04255027 7.50000000 0 0 0
113 1 1 0 7.91035260 6.01912953 7.50000000 0 0 0
114 1 1 0 8.59997327 4.77783044 7.50000000 0 0 0
115 1 1 0 10.01978011 4.75440970 7.50000000 0 0 0
116 1 1 0 10.74996659 5.97228805 7.50000000 0 0 0
117 1 1 0 12.16977333 5.94886731 7.50000000 0 0 0
118 1 1 0 12.85939399 4.70756822 7.50000000 0 0 0
119 1 1 0 14.27920084 4.68414748 7.50000000 0 0 0
120 1 1 0 15.00938731 5.90202583 7.50000000 0 0 0
121 1 1 0 16.42919405 5.87860509 7.50000000 0 0 0
122 1 1 0 17.11881472 4.63730600 7.50000000 0 0 0
123 1 1 0 18.53862156 4.61388526 7.50000000 0 0 0
124 1 1 0 19.26880804 5.83176361 7.50000000 0 0 0
125 1 1 0 20.68861478 5.80834287 7.50000000 0 0 0
126 1 1 0 21.37823545 4.56704378 7.50000000 0 0 0
127 1 1 0 22.79804229 4.54362304 7.50000000 0 0 0
128 1 1 0 23.52822876 5.76150139 7.50000000 0 0 0
129 1 1 0 24.94803551 5.73808065 7.50000000 0 0 0
130 1 1 0 25.63765617 4.49678156 7.50000000 0 0 0
131 1 1 0 27.05746302 4.47336082 7.50000000 0 0 0
132 1 1 0 27.78764949 5.69123916 7.50000000 0 0 0
133 1 1 0 29.20745623 5.66781843 7.50000000 0 0 0
134 1 1 0 29.89707690 4.42651933 7.50000000 0 0 0
135 1 1 0 31.31688374 4.40309859 7.50000000 0 0 0
136 1 1 0 32.04707022 5.62097694 7.50000000 0 0 0
137 1 1 0 33.46687696 5.59755621 7.50000000 0 0 0
138 1 1 0 34.15649763 4.35625711 7.50000000 0 0 0
139 1 1 0 35.57630447 4.33283637 7.50000000 0 0 0
140 1 1 0 36.30649094 5.55071472 7.50000000 0 0 0
141 1 1 0 37.72629769 5.52729399 7.50000000 0 0 0
142 1 1 0 38.41591835 4.28599489 7.50000000 0 0 0
143 1 1 0 39.83572520 4.26257415 7.50000000 0 0 0
144 1 1 0 40.56591167 5.48045250 7.50000000 0 0 0
145 1 1 0 41.98571841 5.45703176 7.50000000 0 0 0
146 1 1 0 42.67533908 4.21573267 7.50000000 0 0 0
147 1 1 0 44.09514592 4.19231193 7.50000000 0 0 0
148 1 1 0 44.82533240 5.41019028 7.50000000 0 0 0
149 1 1 0 46.24513914 5.38676954 7.50000000 0 0 0
150 1 1 0 46.93475981 4.14547045 7.50000000 0 0 0
151 1 1 0 48.35456665 4.12204971 7.50000000 0 0 0
152 1 1 0 49.08475312 5.33992806 7.50000000 0 0 0
153 1 1 0 50.50455987 5.31650732 7.50000000 0 0 0
154 1 1 0 51.19418053 4.07520823 7.50000000 0 0 0
155 1 1 0 52.61398737 4.05178749 7.50000000 0 0 0
156 1 1 0 53.34417385 5.26966584 7.50000000 0 0 0
157 1 1 0 54.76398059 5.24624510 7.50000000 0 0 0
158 1 1 0 55.45360126 4.00494601 7.50000000 0 0 0
159 1 1 0 56.87340810 3.98152527 7.50000000 0 0 0
160 1 1 0 57.60359458 5.19940362 7.50000000 0 0 0
161 1 1 0 59.02340132 5.17598288 7.50000000 0 0 0
162 1 1 0 59.71302199 3.93468379 7.50000000 0 0 0
163 1 1 0 61.13282883 3.91126305 7.50000000 0 0 0
164 1 1 0 61.86301530 5.12914140 7.50000000 0 0 0
165 1 1 0 63.28282204 5.10572066 7.50000000 0 0 0
166 1 1 0 63.97244271 3.86442157 7.50000000 0 0 0
167 1 1 0 65.39224955 3.84100083 7.50000000 0 0 0
168 1 1 0 66.12243603 5.05887918 7.50000000 0 0 0
169 1 1 0 67.54224277 5.03545844 7.50000000 0 0 0
170 1 1 0 68.23186344 3.79415934 7.50000000 0 0 0
171 1 1 0 69.65167028 3.77073861 7.50000000 0 0 0
172 1 1 0 70.38185676 4.98861695 7.50000000 0 0 0
173 1 1 0 71.80166350 4.96519622 7.50000000 0 0 0
174 1 1 0 72.49128416 3.72389712 7.50000000 0 0 0
175 1 1 0 73.91109101 3.70047638 7.50000000 0 0 0
176 1 1 0 0.12169772 7.37753232 7.50000000 0 0 0
177 1 1 0 1.54150457 7.35411158 7.50000000 0 0 0
178 1 1 0 2.27169104 8.57198993 7.50000000 0 0 0
179 1 1 0 3.69149778 8.54856919 7.50000000 0 0 0
180 1 1 0 4.38111845 7.30727010 7.50000000 0 0 0
181 1 1 0 5.80092529 7.28384936 7.50000000 0 0 0
182 1 1 0 6.53111177 8.50172771 7.50000000 0 0 0
183 1 1 0 7.95091851 8.47830697 7.50000000 0 0 0
184 1 1 0 8.64053918 7.23700788 7.50000000 0 0 0
185 1 1 0 10.06034602 7.21358714 7.50000000 0 0 0
186 1 1 0 10.79053249 8.43146549 7.50000000 0 0 0
187 1 1 0 12.21033924 8.40804475 7.50000000 0 0 0
188 1 1 0 12.89995990 7.16674566 7.50000000 0 0 0
189 1 1 0 14.31976675 7.14332492 7.50000000 0 0 0
190 1 1 0 15.04995322 8.36120327 7.50000000 0 0 0
191 1 1 0 16.46975996 8.33778253 7.50000000 0 0 0
192 1 1 0 17.15938063 7.09648344 7.50000000 0 0 0
193 1 1 0 18.57918747 7.07306270 7.50000000 0 0 0
194 1 1 0 19.30937395 8.29094105 7.50000000 0 0 0
195 1 1 0 20.72918069 8.26752031 7.50000000 0 0 0
196 1 1 0 21.41880136 7.02622122 7.50000000 0 0 0
197 1 1 0 22.83860820 7.00280048 7.50000000 0 0 0
198 1 1 0 23.56879467 8.22067883 7.50000000 0 0 0
199 1 1 0 24.98860141 8.19725809 7.50000000 0 0 0
200 1 1 0 25.67822208 6.95595900 7.50000000 0 0 0
201 1 1 0 27.09802892 6.93253826 7.50000000 0 0 0
202 1 1 0 27.82821540 8.15041661 7.50000000 0 0 0
203 1 1 0 29.24802214 8.12699587 7.50000000 0 0 0
204 1 1 0 29.93764281 6.88569677 7.50000000 0 0 0
205 1 1 0 31.35744965 6.86227604 7.50000000 0 0 0
206 1 1 0 32.08763613 8.08015438 7.50000000 0 0 0
207 1 1 0 33.50744287 8.05673365 7.50000000 0 0 0
208 1 1 0 34.19706353 6.81543455 7.50000000 0 0 0
209 1 1 0 35.61687038 6.79201381 7.50000000 0 0 0
210 1 1 0 36.34705685 8.00989216 7.50000000 0 0 0
211 1 1 0 37.76686359 7.98647143 7.50000000 0 0 0
212 1 1 0 38.45648426 6.74517233 7.50000000 0 0 0
213 1 1 0 39.87629110 6.72175159 7.50000000 0 0 0
214 1 1 0 40.60647758 7.93962994 7.50000000 0 0 0
215 1 1 0 42.02628432 7.91620920 7.50000000 0 0 0
216 1 1 0 42.71590499 6.67491011 7.50000000 0 0 0
217 1 1 0 44.13571183 6.65148937 7.50000000 0 0 0
218 1 1 0 44.86589830 7.86936772 7.50000000 0 0 0
219 1 1 0 46.28570505 7.84594698 7.50000000 0 0 0
220 1 1 0 46.97532571 6.60464789 7.50000000 0 0 0
221 1 1 0 48.39513256 6.58122715 7.50000000 0 0 0
222 1 1 0 49.12531903 7.79910550 7.50000000 0 0 0
223 1 1 0 50.54512577 7.77568476 7.50000000 0 0 0
224 1 1 0 51.23474644 6.53438567 7.50000000 0 0 0
225 1 1 0 52.65455328 6.51096493 7.50000000 0 0 0
226 1 1 0 53.38473976 7.72884328 7.50000000 0 0 0
227 1 1 0 54.80454650 7.70542254 7.50000000 0 0 0
228 1 1 0 55.49416717 6.46412345 7.50000000 0 0 0
229 1 1 0 56.91397401 6.44070271 7.50000000 0 0 0
230 1 1 0 57.64416048 7.65858106 7.50000000 0 0 0
231 1 1 0 59.06396723 7.63516032 7.50000000 0 0 0
232 1 1 0 59.75358789 6.39386123 7.50000000 0 0 0
233 1 1 0 61.17339474 6.37044049 7.50000000 0 0 0
234 1 1 0 61.90358121 7.58831884 7.50000000 0 0 0
235 1 1 0 63.32338795 7.56489810 7.50000000 0 0 0
236 1 1 0 64.01300862 6.32359901 7.50000000 0 0 0
237 1 1 0 65.43281546 6.30017827 7.50000000 0 0 0
238 1 1 0 66.16300194 7.51805662 7.50000000 0 0 0
239 1 1 0 67.58280868 7.49463588 7.50000000 0 0 0
240 1 1 0 68.27242935 6.25333679 7.50000000 0 0 0
241 1 1 0 69.69223619 6.22991605 7.50000000 0 0 0
242 1 1 0 70.42242266 7.44779440 7.50000000 0 0 0
243 1 1 0 71.84222941 7.42437366 7.50000000 0 0 0
244 1 1 0 72.53185007 6.18307456 7.50000000 0 0 0
245 1 1 0 73.95165691 6.15965382 7.50000000 0 0 0
246 1 1 0 0.16226363 9.83670976 7.50000000 0 0 0
247 1 1 0 1.58207047 9.81328902 7.50000000 0 0 0
248 1 1 0 2.31225695 11.03116737 7.50000000 0 0 0
249 1 1 0 3.73206369 11.00774664 7.50000000 0 0 0
250 1 1 0 4.42168436 9.76644754 7.50000000 0 0 0
251 1 1 0 5.84149120 9.74302680 7.50000000 0 0 0
252 1 1 0 6.57167768 10.96090515 7.50000000 0 0 0
253 1 1 0 7.99148442 10.93748441 7.50000000 0 0 0
254 1 1 0 8.68110508 9.69618532 7.50000000 0 0 0
255 1 1 0 10.10091193 9.67276458 7.50000000 0 0 0
256 1 1 0 10.83109840 10.89064293 7.50000000 0 0 0
257 1 1 0 12.25090514 10.86722219 7.50000000 0 0 0
258 1 1 0 12.94052581 9.62592310 7.50000000 0 0 0
259 1 1 0 14.36033265 9.60250236 7.50000000 0 0 0
260 1 1 0 15.09051913 10.82038071 7.50000000 0 0 0
261 1 1 0 16.51032587 10.79695997 7.50000000 0 0 0
262 1 1 0 17.19994654 9.55566088 7.50000000 0 0 0
263 1 1 0 18.61975338 9.53224014 7.50000000 0 0 0
264 1 1 0 19.34993985 10.75011849 7.50000000 0 0 0
265 1 1 0 20.76974660 10.72669775 7.50000000 0 0 0
266 1 1 0 21.45936726 9.48539866 7.50000000 0 0 0
267 1 1 0 22.87917411 9.46197792 7.50000000 0 0 0
268 1 1 0 23.60936058 10.67985627 7.50000000 0 0 0
269 1 1 0 25.02916732 10.65643553 7.50000000 0 0 0
270 1 1 0 25.71878799 9.41513644 7.50000000 0 0 0
271 1 1 0 27.13859483 9.39171570 7.50000000 0 0 0
272 1 1 0 27.86878131 10.60959405 7.50000000 0 0 0
273 1 1 0 29.28858805 10.58617331 7.50000000 0 0 0
274 1 1 0 29.97820872 9.34487422 7.50000000 0 0 0
275 1 1 0 31.39801556 9.32145348 7.50000000 0 0 0
276 1 1 0 32.12820203 10.53933183 7.50000000 0 0 0
277 1 1 0 33.54800878 10.51591109 7.50000000 0 0 0
278 1 1 0 34.23762944 9.27461199 7.50000000 0 0 0
279 1 1 0 35.65743628 9.25119126 7.50000000 0 0 0
280 1 1 0 36.38762276 10.46906960 7.50000000 0 0 0
281 1 1 0 37.80742950 10.44564887 7.50000000 0 0 0
282 1 1 0 38.49705017 9.20434977 7.50000000 0 0 0
283 1 1 0 39.91685701 9.18092903 7.50000000 0 0 0
284 1 1 0 40.64704349 10.39880738 7.50000000 0 0 0
285 1 1 0 42.06685023 10.37538665 7.50000000 0 0 0
286 1 1 0 42.75647090 9.13408755 7.50000000 0 0 0
287 1 1 0 44.17627774 9.11066681 7.50000000 0 0 0
288 1 1 0 44.90646421 10.32854516 7.50000000 0 0 0
289 1 1 0 46.32627095 10.30512442 7.50000000 0 0 0
290 1 1 0 47.01589162 9.06382533 7.50000000 0 0 0
291 1 1 0 48.43569846 9.04040459 7.50000000 0 0 0
292 1 1 0 49.16588494 10.25828294 7.50000000 0 0 0
293 1 1 0 50.58569168 10.23486220 7.50000000 0 0 0
294 1 1 0 51.27531235 8.99356311 7.50000000 0 0 0
295 1 1 0 52.69511919 8.97014237 7.50000000 0 0 0
296 1 1 0 53.42530567 10.18802072 7.50000000 0 0 0
297 1 1 0 54.84511241 10.16459998 7.50000000 0 0 0
298 1 1 0 55.53473307 8.92330089 7.50000000 0 0 0
299 1 1 0 56.95453992 8.89988015 7.50000000 0 0 0
300 1 1 0 57.68472639 10.11775850 7.50000000 0 0 0
301 1 1 0 59.10453313 10.09433776 7.50000000 0 0 0
302 1 1 0 59.79415380 8.85303867 7.50000000 0 0 0
303 1 1 0 61.21396064 8.82961793 7.50000000 0 0 0
304 1 1 0 61.94414712 10.04749628 7.50000000 0 0 0
305 1 1 0 63.36395386 10.02407554 7.50000000 0 0 0
306 1 1 0 64.05357453 8.78277645 7.50000000 0 0 0
307 1 1 0 65.47338137 8.75935571 7.50000000 0 0 0
308 1 1 0 66.20356784 9.97723406 7.50000000 0 0 0
309 1 1 0 67.62337459 9.95381332 7.50000000 0 0 0
310 1 1 0 68.31299525 8.71251423 7.50000000 0 0 0
311 1 1 0 69.73280210 8.68909349 7.50000000 0 0 0
312 1 1 0 70.46298857 9.90697184 7.50000000 0 0 0
313 1 1 0 71.88279531 9.88355110 7.50000000 0 0 0
314 1 1 0 72.57241598 8.64225200 7.50000000 0 0 0
315 1 1 0 73.99222282 8.61883127 7.50000000 0 0 0
316 1 1 0 0.20282954 12.29588720 7.50000000 0 0 0
317 1 1 0 1.62263638 12.27246646 7.50000000 0 0 0
318 1 1 0 2.35282286 13.49034481 7.50000000 0 0 0
319 1 1 0 3.77262960 13.46692408 7.50000000 0 0 0
320 1 1 0 4.46225027 12.22562498 7.50000000 0 0 0
321 1 1 0 5.88205711 12.20220424 7.50000000 0 0 0
322 1 1 0 6.61224358 13.42008259 7.50000000 0 0 0
323 1 1 0 8.03205033 13.39666186 7.50000000 0 0 0
324 1 1 0 8.72167099 12.15536276 7.50000000 0 0 0
325 1 1 0 10.14147783 12.13194202 7.50000000 0 0 0
326 1 1 0 10.87166431 13.34982037 7.50000000 0 0 0
327 1 1 0 12.29147105 13.32639963 7.50000000 0 0 0
328 1 1 0 12.98109172 12.08510054 7.50000000 0 0 0
329 1 1 0 14.40089856 12.06167980 7.50000000 0 0 0
330 1 1 0 15.13108504 13.27955815 7.50000000 0 0 0
331 1 1 0 16.55089178 13.25613741 7.50000000 0 0 0
332 1 1 0 17.24051245 12.01483832 7.50000000 0 0 0
333 1 1 0 18.66031929 11.99141758 7.50000000 0 0 0
334 1 1 0 19.39050576 13.20929593 7.50000000 0 0 0
335 1 1 0 20.81031250 13.18587519 7.50000000 0 0 0
336 1 1 0 21.49993317 11.94457610 7.50000000 0 0 0
337 1 1 0 22.91974001 11.92115536 7.50000000 0 0 0
338 1 1 0 23.64992649 13.13903371 7.50000000 0 0 0
339 1 1 0 25.06973323 13.11561297 7.50000000 0 0 0
340 1 1 0 25.75935390 11.87431388 7.50000000 0 0 0
341 1 1 0 27.17916074 11.85089314 7.50000000 0 0 0
342 1 1 0 27.90934722 13.06877149 7.50000000 0 0 0
343 1 1 0 29.32915396 13.04535075 7.50000000 0 0 0
344 1 1 0 30.01877462 11.80405166 7.50000000 0 0 0
345 1 1 0 31.43858147 11.78063092 7.50000000 0 0 0
346 1 1 0 32.16876794 12.99850927 7.50000000 0 0 0
347 1 1 0 33.58857468 12.97508853 7.50000000 0 0 0
348 1 1 0 34.27819535 11.73378944 7.50000000 0 0 0
349 1 1 0 35.69800219 11.71036870 7.50000000 0 0 0
350 1 1 0 36.42818867 12.92824705 7.50000000 0 0 0
351 1 1 0 37.84799541 12.90482631 7.50000000 0 0 0
352 1 1 0 38.53761608 11.66352721 7.50000000 0 0 0
353 1 1 0 39.95742292 11.64010648 7.50000000 0 0 0
354 1 1 0 40.68760939 12.85798482 7.50000000 0 0 0
355 1 1 0 42.10741614 12.83456409 7.50000000 0 0 0
356 1 1 0 42.79703680 11.59326499 7.50000000 0 0 0
357 1 1 0 44.21684365 11.56984425 7.50000000 0 0 0
358 1 1 0 44.94703012 12.78772260 7.50000000 0 0 0
359 1 1 0 46.36683686 12.76430187 7.50000000 0 0 0
360 1 1 0 47.05645753 11.52300277 7.50000000 0 0 0
361 1 1 0 48.47626437 11.49958203 7.50000000 0 0 0
362 1 1 0 49.20645085 12.71746038 7.50000000 0 0 0
363 1 1 0 50.62625759 12.69403964 7.50000000 0 0 0
364 1 1 0 51.31587826 11.45274055 7.50000000 0 0 0
365 1 1 0 52.73568510 11.42931981 7.50000000 0 0 0
366 1 1 0 53.46587157 12.64719816 7.50000000 0 0 0
367 1 1 0 54.88567832 12.62377742 7.50000000 0 0 0
368 1 1 0 55.57529898 11.38247833 7.50000000 0 0 0
369 1 1 0 56.99510582 11.35905759 7.50000000 0 0 0
370 1 1 0 57.72529230 12.57693594 7.50000000 0 0 0
371 1 1 0 59.14509904 12.55351520 7.50000000 0 0 0
372 1 1 0 59.83471971 11.31221611 7.50000000 0 0 0
373 1 1 0 61.25452655 11.28879537 7.50000000 0 0 0
374 1 1 0 61.98471303 12.50667372 7.50000000 0 0 0
375 1 1 0 63.40451977 12.48325298 7.50000000 0 0 0
376 1 1 0 64.09414044 11.24195389 7.50000000 0 0 0
377 1 1 0 65.51394728 11.21853315 7.50000000 0 0 0
378 1 1 0 66.24413375 12.43641150 7.50000000 0 0 0
379 1 1 0 67.66394049 12.41299076 7.50000000 0 0 0
380 1 1 0 68.35356116 11.17169167 7.50000000 0 0 0
381 1 1 0 69.77336800 11.14827093 7.50000000 0 0 0
382 1 1 0 70.50355448 12.36614928 7.50000000 0 0 0
383 1 1 0 71.92336122 12.34272854 7.50000000 0 0 0
384 1 1 0 72.61298189 11.10142945 7.50000000 0 0 0
385 1 1 0 74.03278873 11.07800871 7.50000000 0 0 0
386 1 1 0 0.24339545 14.75506464 7.50000000 0 0 0
387 1 1 0 1.66320229 14.73164391 7.50000000 0 0 0
388 1 1 0 2.39338876 15.94952225 7.50000000 0 0 0
389 1 1 0 3.81319551 15.92610152 7.50000000 0 0 0
390 1 1 0 4.50281617 14.68480242 7.50000000 0 0 0
391 1 1 0 5.92262302 14.66138168 7.50000000 0 0 0
392 1 1 0 6.65280949 15.87926003 7.50000000 0 0 0
393 1 1 0 8.07261623 15.85583930 7.50000000 0 0 0
394 1 1 0 8.76223690 14.61454020 7.50000000 0 0 0
395 1 1 0 10.18204374 14.59111946 7.50000000 0 0 0
396 1 1 0 10.91223022 15.80899781 7.50000000 0 0 0
397 1 1 0 12.33203696 15.78557707 7.50000000 0 0 0
398 1 1 0 13.02165763 14.54427798 7.50000000 0 0 0
399 1 1 0 14.44146447 14.52085724 7.50000000 0 0 0
400 1 1 0 15.17165094 15.73873559 7.50000000 0 0 0
401 1 1 0 16.59145769 15.71531485 7.50000000 0 0 0
402 1 1 0 17.28107835 14.47401576 7.50000000 0 0 0
403 1 1 0 18.70088520 14.45059502 7.50000000 0 0 0
404 1 1 0 19.43107167 15.66847337 7.50000000 0 0 0
405 1 1 0 20.85087841 15.64505263 7.50000000 0 0 0
406 1 1 0 21.54049908 14.40375354 7.50000000 0 0 0
407 1 1 0 22.96030592 14.38033280 7.50000000 0 0 0
408 1 1 0 23.69049240 15.59821115 7.50000000 0 0 0
409 1 1 0 25.11029914 15.57479041 7.50000000 0 0 0
410 1 1 0 25.79991981 14.33349132 7.50000000 0 0 0
411 1 1 0 27.21972665 14.31007058 7.50000000 0 0 0
412 1 1 0 27.94991312 15.52794893 7.50000000 0 0 0
413 1 1 0 29.36971987 15.50452819 7.50000000 0 0 0
414 1 1 0 30.05934053 14.26322910 7.50000000 0 0 0
415 1 1 0 31.47914737 14.23980836 7.50000000 0 0 0
416 1 1 0 32.20933385 15.45768671 7.50000000 0 0 0
417 1 1 0 33.62914059 15.43426597 7.50000000 0 0 0
418 1 1 0 34.31876126 14.19296688 7.50000000 0 0 0
419 1 1 0 35.73856810 14.16954614 7.50000000 0 0 0
420 1 1 0 36.46875458 15.38742449 7.50000000 0 0 0
421 1 1 0 37.88856132 15.36400375 7.50000000 0 0 0
422 1 1 0 38.57818198 14.12270466 7.50000000 0 0 0
423 1 1 0 39.99798883 14.09928392 7.50000000 0 0 0
424 1 1 0 40.72817530 15.31716226 7.50000000 0 0 0
425 1 1 0 42.14798204 15.29374153 7.50000000 0 0 0
426 1 1 0 42.83760271 14.05244243 7.50000000 0 0 0
427 1 1 0 44.25740955 14.02902169 7.50000000 0 0 0
428 1 1 0 44.98759603 15.24690004 7.50000000 0 0 0
429 1 1 0 46.40740277 15.22347931 7.50000000 0 0 0
430 1 1 0 47.09702344 13.98218021 7.50000000 0 0 0
431 1 1 0 48.51683028 13.95875947 7.50000000 0 0 0
432 1 1 0 49.24701675 15.17663782 7.50000000 0 0 0
433 1 1 0 50.66682350 15.15321709 7.50000000 0 0 0
434 1 1 0 51.35644416 13.91191799 7.50000000 0 0 0
435 1 1 0 52.77625101 13.88849725 7.50000000 0 0 0
436 1 1 0 53.50643748 15.10637560 7.50000000 0 0 0
437 1 1 0 54.92624422 15.08295486 7.50000000 0 0 0
438 1 1 0 55.61586489 13.84165577 7.50000000 0 0 0
439 1 1 0 57.03567173 13.81823503 7.50000000 0 0 0
440 1 1 0 57.76585821 15.03611338 7.50000000 0 0 0
441 1 1 0 59.18566495 15.01269264 7.50000000 0 0 0
442 1 1 0 59.87528562 13.77139355 7.50000000 0 0 0
443 1 1 0 61.29509246 13.74797281 7.50000000 0 0 0
444 1 1 0 62.02527893 14.96585116 7.50000000 0 0 0
445 1 1 0 63.44508568 14.94243042 7.50000000 0 0 0
446 1 1 0 64.13470634 13.70113133 7.50000000 0 0 0
447 1 1 0 65.55451319 13.67771059 7.50000000 0 0 0
448 1 1 0 66.28469966 14.89558894 7.50000000 0 0 0
449 1 1 0 67.70450640 14.87216820 7.50000000 0 0 0
450 1 1 0 68.39412707 13.63086911 7.50000000 0 0 0
451 1 1 0 69.81393391 13.60744837 7.50000000 0 0 0
452 1 1 0 70.54412039 14.82532672 7.50000000 0 0 0
453 1 1 0 71.96392713 14.80190598 7.50000000 0 0 0
454 1 1 0 72.65354780 13.56060689 7.50000000 0 0 0
455 1 1 0 74.07335464 13.53718615 7.50000000 0 0 0
456 1 1 0 0.28396136 17.21424209 7.50000000 0 0 0
457 1 1 0 1.70376820 17.19082135 7.50000000 0 0 0
458 1 1 0 2.43395467 18.40869970 7.50000000 0 0 0
459 1 1 0 3.85376141 18.38527896 7.50000000 0 0 0
460 1 1 0 4.54338208 17.14397986 7.50000000 0 0 0
461 1 1 0 5.96318892 17.12055913 7.50000000 0 0 0
462 1 1 0 6.69337540 18.33843747 7.50000000 0 0 0
463 1 1 0 8.11318214 18.31501674 7.50000000 0 0 0
464 1 1 0 8.80280281 17.07371764 7.50000000 0 0 0
465 1 1 0 10.22260965 17.05029690 7.50000000 0 0 0
466 1 1 0 10.95279613 18.26817525 7.50000000 0 0 0
467 1 1 0 12.37260287 18.24475452 7.50000000 0 0 0
468 1 1 0 13.06222353 17.00345542 7.50000000 0 0 0
469 1 1 0 14.48203038 16.98003468 7.50000000 0 0 0
470 1 1 0 15.21221685 18.19791303 7.50000000 0 0 0
471 1 1 0 16.63202359 18.17449229 7.50000000 0 0 0
472 1 1 0 17.32164426 16.93319320 7.50000000 0 0 0
473 1 1 0 18.74145110 16.90977246 7.50000000 0 0 0
474 1 1 0 19.47163758 18.12765081 7.50000000 0 0 0
475 1 1 0 20.89144432 18.10423007 7.50000000 0 0 0
476 1 1 0 21.58106499 16.86293098 7.50000000 0 0 0
477 1 1 0 23.00087183 16.83951024 7.50000000 0 0 0
478 1 1 0 23.73105830 18.05738859 7.50000000 0 0 0
479 1 1 0 25.15086505 18.03396785 7.50000000 0 0 0
480 1 1 0 25.84048571 16.79266876 7.50000000 0 0 0
481 1 1 0 27.26029256 16.76924802 7.50000000 0 0 0
482 1 1 0 27.99047903 17.98712637 7.50000000 0 0 0
483 1 1 0 29.41028577 17.96370563 7.50000000 0 0 0
484 1 1 0 30.09990644 16.72240654 7.50000000 0 0 0
485 1 1 0 31.51971328 16.69898580 7.50000000 0 0 0
486 1 1 0 32.24989976 17.91686415 7.50000000 0 0 0
487 1 1 0 33.66970650 17.89344341 7.50000000 0 0 0
488 1 1 0 34.35932717 16.65214432 7.50000000 0 0 0
489 1 1 0 35.77913401 16.62872358 7.50000000 0 0 0
490 1 1 0 36.50932048 17.84660193 7.50000000 0 0 0
491 1 1 0 37.92912723 17.82318119 7.50000000 0 0 0
492 1 1 0 38.61874789 16.58188210 7.50000000 0 0 0
493 1 1 0 40.03855473 16.55846136 7.50000000 0 0 0
494 1 1 0 40.76874121 17.77633971 7.50000000 0 0 0
495 1 1 0 42.18854795 17.75291897 7.50000000 0 0 0
496 1 1 0 42.87816862 16.51161987 7.50000000 0 0 0
497 1 1 0 44.29797546 16.48819914 7.50000000 0 0 0
498 1 1 0 45.02816194 17.70607748 7.50000000 0 0 0
499 1 1 0 46.44796868 17.68265675 7.50000000 0 0 0
500 1 1 0 47.13758935 16.44135765 7.50000000 0 0 0
501 1 1 0 48.55739619 16.41793691 7.50000000 0 0 0
502 1 1 0 49.28758266 17.63581526 7.50000000 0 0 0
503 1 1 0 50.70738940 17.61239453 7.50000000 0 0 0
504 1 1 0 51.39701007 16.37109543 7.50000000 0 0 0
505 1 1 0 52.81681691 16.34767469 7.50000000 0 0 0
506 1 1 0 53.54700339 17.56555304 7.50000000 0 0 0
507 1 1 0 54.96681013 17.54213230 7.50000000 0 0 0
508 1 1 0 55.65643080 16.30083321 7.50000000 0 0 0
509 1 1 0 57.07623764 16.27741247 7.50000000 0 0 0
510 1 1 0 57.80642412 17.49529082 7.50000000 0 0 0
511 1 1 0 59.22623086 17.47187008 7.50000000 0 0 0
512 1 1 0 59.91585152 16.23057099 7.50000000 0 0 0
513 1 1 0 61.33565837 16.20715025 7.50000000 0 0 0
514 1 1 0 62.06584484 17.42502860 7.50000000 0 0 0
515 1 1 0 63.48565158 17.40160786 7.50000000 0 0 0
516 1 1 0 64.17527225 16.16030877 7.50000000 0 0 0
517 1 1 0 65.59507909 16.13688803 7.50000000 0 0 0
518 1 1 0 66.32526557 17.35476638 7.50000000 0 0 0
519 1 1 0 67.74507231 17.33134564 7.50000000 0 0 0
520 1 1 0 68.43469298 16.09004655 7.50000000 0 0 0
521 1 1 0 69.85449982 16.06662581 7.50000000 0 0 0
522 1 1 0 70.58468629 17.28450416 7.50000000 0 0 0
523 1 1 0 72.00449304 17.26108342 7.50000000 0 0 0
524 1 1 0 72.69411370 16.01978433 7.50000000 0 0 0
525 1 1 0 74.11392055 15.99636359 7.50000000 0 0 0
526 1 1 0 0.32452726 19.67341953 7.50000000 0 0 0
527 1 1 0 1.74433411 19.64999879 7.50000000 0 0 0
528 1 1 0 2.47452058 20.86787714 7.50000000 0 0 0
529 1 1 0 3.89432732 20.84445640 7.50000000 0 0 0
530 1 1 0 4.58394799 19.60315731 7.50000000 0 0 0
531 1 1 0 6.00375483 19.57973657 7.50000000 0 0 0
532 1 1 0 6.73394131 20.79761492 7.50000000 0 0 0
533 1 1 0 8.15374805 20.77419418 7.50000000 0 0 0
534 1 1 0 8.84336872 19.53289508 7.50000000 0 0 0
535 1 1 0 10.26317556 19.50947434 7.50000000 0 0 0
536 1 1 0 10.99336203 20.72735269 7.50000000 0 0 0
537 1 1 0 12.41316878 20.70393196 7.50000000 0 0 0
538 1 1 0 13.10278944 19.46263286 7.50000000 0 0 0
539 1 1 0 14.52259628 19.43921212 7.50000000 0 0 0
540 1 1 0 15.25278276 20.65709047 7.50000000 0 0 0
541 1 1 0 16.67258950 20.63366974 7.50000000 0 0 0
542 1 1 0 17.36221017 19.39237064 7.50000000 0 0 0
543 1 1 0 18.78201701 19.36894990 7.50000000 0 0 0
544 1 1 0 19.51220349 20.58682825 7.50000000 0 0 0
545 1 1 0 20.93201023 20.56340751 7.50000000 0 0 0
546 1 1 0 21.62163090 19.32210842 7.50000000 0 0 0
547 1 1 0 23.04143774 19.29868768 7.50000000 0 0 0
548 1 1 0 23.77162421 20.51656603 7.50000000 0 0 0
549 1 1 0 25.19143095 20.49314529 7.50000000 0 0 0
550 1 1 0 25.88105162 19.25184620 7.50000000 0 0 0
551 1 1 0 27.30085846 19.22842546 7.50000000 0 0 0
552 1 1 0 28.03104494 20.44630381 7.50000000 0 0 0
553 1 1 0 29.45085168 20.42288307 7.50000000 0 0 0
554 1 1 0 30.14047235 19.18158398 7.50000000 0 0 0
555 1 1 0 31.56027919 19.15816324 7.50000000 0 0 0
556 1 1 0 32.29046567 20.37604159 7.50000000 0 0 0
557 1 1 0 33.71027241 20.35262085 7.50000000 0 0 0
558 1 1 0 34.39989307 19.11132176 7.50000000 0 0 0
559 1 1 0 35.81969992 19.08790102 7.50000000 0 0 0
560 1 1 0 36.54988639 20.30577937 7.50000000 0 0 0
561 1 1 0 37.96969313 20.28235863 7.50000000 0 0 0
562 1 1 0 38.65931380 19.04105954 7.50000000 0 0 0
563 1 1 0 40.07912064 19.01763880 7.50000000 0 0 0
564 1 1 0 40.80930712 20.23551715 7.50000000 0 0 0
565 1 1 0 42.22911386 20.21209641 7.50000000 0 0 0
566 1 1 0 42.91873453 18.97079732 7.50000000 0 0 0
567 1 1 0 44.33854137 18.94737658 7.50000000 0 0 0
568 1 1 0 45.06872784 20.16525493 7.50000000 0 0 0
569 1 1 0 46.48853459 20.14183419 7.50000000 0 0 0
570 1 1 0 47.17815525 18.90053509 7.50000000 0 0 0
571 1 1 0 48.59796210 18.87711436 7.50000000 0 0 0
572 1 1 0 49.32814857 20.09499270 7.50000000 0 0 0
573 1 1 0 50.74795531 20.07157197 7.50000000 0 0 0
574 1 1 0 51.43757598 18.83027287 7.50000000 0 0 0
575 1 1 0 52.85738282 18.80685213 7.50000000 0 0 0
576 1 1 0 53.58756930 20.02473048 7.50000000 0 0 0
577 1 1 0 55.00737604 20.00130975 7.50000000 0 0 0
578 1 1 0 55.69699671 18.76001065 7.50000000 0 0 0
579 1 1 0 57.11680355 18.73658991 7.50000000 0 0 0
580 1 1 0 57.84699002 19.95446826 7.50000000 0 0 0
581 1 1 0 59.26679677 19.93104752 7.50000000 0 0 0
582 1 1 0 59.95641743 18.68974843 7.50000000 0 0 0
583 1 1 0 61.37622427 18.66632769 7.50000000 0 0 0
584 1 1 0 62.10641075 19.88420604 7.50000000 0 0 0
585 1 1 0 63.52621749 19.86078530 7.50000000 0 0 0
586 1 1 0 64.21583816 18.61948621 7.50000000 0 0 0
587 1 1 0 65.63564500 18.59606547 7.50000000 0 0 0
588 1 1 0 66.36583148 19.81394382 7.50000000 0 0 0
589 1 1 0 67.78563822 19.79052308 7.50000000 0 0 0
590 1 1 0 68.47525889 18.54922399 7.50000000 0 0 0
591 1 1 0 69.89506573 18.52580325 7.50000000 0 0 0
592 1 1 0 70.62525220 19.74368160 7.50000000 0 0 0
593 1 1 0 72.04505894 19.72026086 7.50000000 0 0 0
594 1 1 0 72.73467961 18.47896177 7.50000000 0 0 0