ITEM: TIMESTEP
0
ITEM: NUMBER OF ATOMS
13256
ITEM: BOX BOUNDS pp pp pp
0.0000000000000000e+00 1.0011754500000001e+02
0.0000000000000000e+00 1.7340867499999999e+02
0.0000000000000000e+00 1.8399999600000001e+01
ITEM: ATOMS id type x y z c_csym c_2[1] c_2[2] c_2[3] c_2[4] c_2[5] c_2[6] c_3 
1 1 0 0 7.5 6.04905 10591.7 10409.1 -64771.8 -43.8713 0.168846 0.172597 -7.41189 
2 1 2.14494 1.2035 7.5 6.04912 9686.95 11276.3 -62379.1 -1649.58 10564.9 -18845 -7.41202 
3 1 3.56484 1.18606 7.5 6.04918 11492.7 8659.48 -59614 3413.5 9979.65 -28963.3 -7.41216 
4 1 6.40462 1.15117 7.5 6.04918 9454.01 8158.2 -49391.7 -4713.88 9421.66 -47042.9 -7.41269 
5 1 7.82452 1.13373 7.5 6.04918 10910.2 5443.88 -44770 6925.44 5904.34 -47457.5 -7.41293 
48 1 0.0302105 2.45933 7.5 6.04907 7978.88 12532.7 -62498.2 -77.3782 21180.9 98.6389 -7.41201 
49 1 1.4501 2.44188 7.5 6.04912 12231.8 8595.65 -61675.7 1562.98 21460.2 -12185.6 -7.41205 
50 1 2.17516 3.66283 7.5 6.04913 6571 13298.1 -57981.2 -1245.99 29178.2 -17755.8 -7.41224 
51 1 3.59505 3.64538 7.5 6.0492 12476.5 6698.06 -55543.5 4052.34 29353.6 -26919.2 -7.41237 
52 1 4.28989 2.407 7.5 6.04918 8212.61 11052.2 -55409.5 -2772.21 19019.1 -34693.4 -7.41237 
53 1 5.70978 2.38956 7.5 6.04918 11905.4 6306.62 -52043.8 5717.2 17515.4 -39792.1 -7.41255 
54 1 6.43483 3.6105 7.5 6.0492 6511.69 10218.2 -44776.4 -3647.48 23973.8 -44829.8 -7.41292 
55 1 7.85473 3.59306 7.5 6.0492 12099.8 3867.58 -43004.5 7985.85 21173.1 -43367 -7.41303 
56 1 8.54957 2.35467 7.5 6.04918 7928.78 7272.93 -37867.1 -5503.93 15158.3 -52052 -7.41328 
142 1 0.060421 4.91865 7.5 6.04908 4432.87 14352.1 -56339.8 -150.832 37901.4 492.051 -7.41234 
143 1 1.48031 4.90121 7.5 6.04913 12641.4 6410.04 -54846.4 1863.93 39390.9 -11384.9 -7.4124 
144 1 2.20537 6.12215 7.5 6.04913 2812.97 15046.5 -50468.4 -967.776 41819.6 -15423.7 -7.41264 
145 1 3.62526 6.10471 7.5 6.0492 12574.8 4633.1 -47518.8 4550.77 43560.9 -23525 -7.41279 
146 1 4.3201 4.86633 7.5 6.0492 4783.3 12949.8 -49334.1 -2098.98 33479.5 -31765 -7.41269 
147 1 5.73999 4.84888 7.5 6.0492 12510 4446.04 -47066.3 6554.7 33127.4 -35451.1 -7.41281 
148 1 6.46504 6.06983 7.5 6.0492 3031.92 12146.6 -37755.8 -2831.89 33453.6 -39811.6 -7.41328 
149 1 7.88494 6.05238 7.5 6.0492 12556.8 2373.29 -38092.5 8734.23 32233.7 -36766.7 -7.41328 
150 1 8.57978 4.814 7.5 6.0492 4814.17 9274.65 -31943.4 -4427.88 24985.5 -48038.9 -7.41358 
236 1 0.0906315 7.37798 7.5 6.04908 564.655 15962.9 -47794.6 -218.596 47185.1 1012.5 -7.41278 
237 1 1.51052 7.36054 7.5 6.04913 12369.8 4206.6 -44391.6 2062.63 50629.5 -10175.3 -7.41294 
238 1 2.23558 8.58148 7.5 6.04913 -903.597 16589.7 -41547.8 -803.083 46438.9 -12348 -7.4131 
239 1 3.65547 8.56404 7.5 6.0492 12258.5 2627.54 -36679.5 4780.22 50462.1 -19096.3 -7.41334 
240 1 4.35031 7.32565 7.5 6.0492 1072.23 14700.1 -41199.2 -1617.62 41179.5 -27049.3 -7.41311 
241 1 5.7702 7.30821 7.5 6.0492 12509.4 2686.41 -38930.2 7035.82 42775.3 -29293.4 -7.41323 
242 1 6.49525 8.52915 7.5 6.0492 -377.556 13971.6 -29855 -2312.56 36206.2 -32966.9 -7.41369 
243 1 7.91515 8.51171 7.5 6.0492 12656.5 1073.64 -30866.8 8996.44 37347 -28402.7 -7.41365 
244 1 8.60999 7.27333 7.5 6.0492 1521.07 11285.8 -24808.8 -3641.47 29519.5 -41377.9 -7.41394 
6 1 10.6643 1.09885 7.5 6.04918 8979.24 4539.2 -30123.6 -7486.07 8469.64 -52172.2 -7.41368 
7 1 12.0842 1.08141 7.5 6.04918 10198.4 2829.61 -27066.3 9483.52 -82.043 -42200.6 -7.41384 
8 1 14.924 1.04652 7.5 6.04918 8471.29 3080.08 -13282.7 -9602.88 8835.71 -36258.1 -7.41453 
9 1 16.3439 1.02908 7.5 6.04918 9632.25 2894.17 -14047.1 10809.4 -6275.48 -22046.7 -7.4145 
57 1 9.96946 2.33723 7.5 6.04918 11328.9 3234.34 -35972.5 8894.47 9602.85 -45675.9 -7.41339 
58 1 10.6945 3.55817 7.5 6.0492 6293.02 6533.17 -24988.3 -6251.84 17414.6 -50091.3 -7.41393 
59 1 12.1144 3.54073 7.5 6.0492 11687.9 1804.62 -28467.8 10436.1 9618.56 -37642.5 -7.41378 
60 1 12.8092 2.30235 7.5 6.04918 7501.79 4386.67 -18332.2 -8053.83 11891.3 -45744.2 -7.41427 
61 1 14.2291 2.28491 7.5 6.04918 10783.7 2115.11 -21373 10685.1 481.65 -31129.8 -7.41413 
62 1 14.9542 3.50585 7.5 6.0492 6010.7 4757.52 -7239.92 -8686.17 13052.8 -35535.3 -7.41483 
63 1 16.3741 3.48841 7.5 6.0492 11450.8 2437.88 -18497.1 11247.8 -1201.16 -18399.3 -7.41427 
64 1 17.0689 2.25002 7.5 6.04918 7133.31 4136.13 -4338.4 -9935.28 11325.2 -25212.2 -7.41497 
151 1 9.99967 4.79656 7.5 6.0492 12299.3 1966.2 -34368.3 9839.07 20613.3 -39755.7 -7.41348 
152 1 10.7247 6.0175 7.5 6.0492 3254.39 8584.34 -18544.6 -5283.83 22622.8 -44846.1 -7.41426 
153 1 12.1446 6.00006 7.5 6.0492 12643.4 1043.87 -27709.3 11021.5 16522 -30691.6 -7.41382 
154 1 12.8395 4.76167 7.5 6.0492 4757.14 6297.29 -12281.7 -7051.12 16862.1 -42685 -7.41458 
155 1 14.2594 4.74423 7.5 6.0492 12187.5 1495.93 -23492.3 11283.8 6751.93 -25861.9 -7.41403 
156 1 14.9844 5.96517 7.5 6.0492 3390.08 6611.79 -886.467 -7946.14 14833.7 -32539.5 -7.41515 
157 1 16.4043 5.94773 7.5 6.0492 12894.1 2307.32 -21530.1 11377.2 2459.88 -13520.3 -7.41412 
158 1 17.0991 4.70935 7.5 6.0492 4658.36 5623.55 2376.87 -9351.34 13202.7 -24573.9 -7.41531 
245 1 10.0299 7.25589 7.5 6.0492 12794.5 974.974 -30384.1 10297.4 27195.9 -31609.3 -7.41368 
246 1 10.7549 8.47683 7.5 6.0492 333.524 10666.5 -12023.1 -4650.88 23006.6 -37581.1 -7.41459 
247 1 12.1748 8.45939 7.5 6.0492 13299 606.894 -25210 11073.4 19451.7 -22201.4 -7.41395 
248 1 12.8697 7.221 7.5 6.0492 1962.66 8361.63 -5987.33 -6297.98 18251.9 -37279.4 -7.41489 
249 1 14.2896 7.20356 7.5 6.0492 13234.8 1265.55 -23949.5 11418.5 10382.2 -19053.1 -7.41401 
250 1 15.0146 8.4245 7.5 6.0492 942.182 8580.48 4849.16 -7429.8 13616.6 -28240.5 -7.41544 
251 1 16.4345 8.40706 7.5 6.0492 14059.1 2523.53 -23185.1 11089.3 4042.35 -8065.1 -7.41403 
252 1 17.1293 7.16867 7.5 6.0492 2254.11 7312.83 8666.99 -8870.28 12888.3 -22770.7 -7.41563 
346 1 17.1596 9.628 7.5 6.0492 172.818 9037.15 13752.4 -8531.11 10340.3 -20682.8 -7.41589 
10 1 19.1837 0.994196 7.5 6.04918 8193.49 4287.93 -3967.65 -10665.1 11173.8 -14233.6 -7.41498 
11 1 20.6036 0.976754 7.5 6.04918 9477.96 5149.92 -8440.34 10885.8 -11283.6 -3764.99 -7.41475 
12 1 23.4433 0.94187 7.5 6.04918 8353.76 6288.55 -1220.92 -10476.8 15221.1 -2045.97 -7.41509 
13 1 24.8632 0.924428 7.5 6.04918 9864.91 7169.08 -7358.98 9952.09 -14588.2 507.625 -7.41477 
65 1 18.4888 2.23258 7.5 6.04918 10532.7 3764.4 -13365.7 11064.4 -7089.56 -10306 -7.41452 
66 1 19.2139 3.45352 7.5 6.0492 5828.01 5395.91 3300.64 -10298.7 13203.5 -15379.8 -7.41535 
67 1 20.6338 3.43608 7.5 6.0492 11584.4 5153.39 -15069.8 10735.4 -8280.31 -1630.34 -7.41441 
68 1 21.3286 2.1977 7.5 6.04918 7046.42 5754.44 1914.95 -10659.8 14181.4 -7220.83 -7.41527 
69 1 22.7485 2.18025 7.5 6.04918 10760.8 6450.52 -11438.6 10330.9 -11636.2 1251.08 -7.41458 
70 1 23.4735 3.4012 7.5 6.0492 5931.19 6741.44 7351.75 -10574.6 17795.4 -4651.22 -7.41553 
71 1 24.8934 3.38375 7.5 6.0492 12161.3 7452.8 -15044.3 9460.46 -10957.2 1374.7 -7.41437 
72 1 25.5883 2.14537 7.5 6.04918 7395.61 6897.52 3762.34 -10057.5 19497.7 -3442.14 -7.41534 
73 1 27.0082 2.12793 7.5 6.04918 11470.3 7555.58 -10892.2 8945.12 -13392.3 -2742.97 -7.41457 
159 1 18.519 4.69191 7.5 6.0492 12326.1 3666.35 -18457.3 11106.6 -3752.26 -7104.43 -7.41426 
160 1 19.2441 5.91285 7.5 6.0492 3454.07 6672.79 10358.5 -9966.91 13674.1 -15801.1 -7.41571 
161 1 20.664 5.89541 7.5 6.0492 13384.6 5385.99 -20548.8 10412 -5728.06 265.748 -7.41413 
162 1 21.3588 4.65702 7.5 6.0492 4654.02 6565.53 9802.1 -10558.1 15563.3 -9175.64 -7.41567 
163 1 22.7787 4.63958 7.5 6.0492 12818.4 6649.76 -18176.8 9943.92 -8645.49 2273.15 -7.41423 
164 1 23.5038 5.86052 7.5 6.0492 3574.9 7262.09 15775.9 -10590 19102.5 -7905.88 -7.41597 
165 1 24.9237 5.84308 7.5 6.0492 14110 7776.45 -21423.4 8959.62 -7407.63 987.245 -7.41404 
166 1 25.6185 4.6047 7.5 6.0492 4904.59 7034.76 13026.3 -10258.9 22442.9 -6949.98 -7.41582 
167 1 27.0384 4.58725 7.5 6.0492 13610.4 7844.01 -18049.1 8478.67 -8747.07 -2992.25 -7.4142 
253 1 18.5492 7.15123 7.5 6.0492 13821 3923.91 -22253.8 10826.6 -1589.89 -3647.05 -7.41406 
254 1 19.2743 8.37218 7.5 6.0492 1295.1 8063.2 16501.9 -9670.16 12345.3 -16071.3 -7.41602 
255 1 20.6942 8.35473 7.5 6.0492 14861.2 5860.81 -24679.5 9879.84 -3991.98 1632.54 -7.41391 
256 1 21.389 7.11635 7.5 6.0492 2410.57 7529.72 17118.8 -10390.3 15468.4 -11326.4 -7.41605 
257 1 22.8089 7.09891 7.5 6.0492 14544 7048.92 -23584.4 9429.35 -6043 2403.27 -7.41395 
258 1 23.534 8.31985 7.5 6.0492 1462.19 7837.63 23463.8 -10468.3 18968.2 -11954.2 -7.41638 
259 1 24.9539 8.30241 7.5 6.0492 15633.4 8162.7 -26253.1 8469.38 -4261.61 -583.306 -7.41379 
260 1 25.6487 7.06402 7.5 6.0492 2591.37 7233.51 22062.2 -10280.7 23916.3 -11517.2 -7.4163 
261 1 27.0686 7.04658 7.5 6.0492 15310.2 8143.3 -23624.9 8070.14 -4426.89 -4605.41 -7.41391 
347 1 18.5795 9.61056 7.5 6.0492 15036 4425.35 -24736.5 10249.2 -788.719 -458.589 -7.41393 
350 1 21.4192 9.57568 7.5 6.0492 479.032 8505.36 23273 -10160.5 13921.2 -14050.7 -7.41637 
351 1 22.8391 9.55823 7.5 6.0492 15875.4 7542.56 -27488.8 8859.27 -3971.68 1560.66 -7.41374 
354 1 25.6789 9.52335 7.5 6.0492 591.284 7408.14 30338 -10098.3 23850.3 -17083.5 -7.41674 
355 1 27.0988 9.50591 7.5 6.0492 16486 8373.37 -27498.5 7807.51 -688.548 -7309.67 -7.41371 
14 1 27.703 0.889544 7.5 6.04918 9004.58 6651.52 14.1921 -9196.44 19940 -5916.89 -7.41513 
15 1 29.1229 0.872102 7.5 6.04918 10711.5 6778.57 -5387.05 8408.21 -16554.2 -9604.84 -7.41484 
16 1 31.9627 0.837217 7.5 6.04918 10002.5 4374.4 4678.92 -7270.61 24111.2 -20242.9 -7.41536 
17 1 33.3826 0.819775 7.5 6.04918 11756.2 3685.65 1305.58 6653.33 -17959.6 -24907.6 -7.41518 
18 1 36.2224 0.784891 7.5 6.04918 11073.2 347.616 14373.9 -5197.66 26945.1 -33612.4 -7.41588 
74 1 27.7332 3.34887 7.5 6.0492 6429.48 6595.25 9685.06 -9478.15 24704.6 -8972.91 -7.41564 
75 1 29.1531 3.33143 7.5 6.0492 13050.6 7166.8 -13248 7953.52 -10710.1 -9279.86 -7.41443 
76 1 29.848 2.09304 7.5 6.04918 8175.04 5764.03 6646.22 -8402.43 25326.9 -13723.1 -7.41547 
77 1 31.2679 2.0756 7.5 6.04918 12452.5 5754.49 -6825.76 7337.36 -13741.8 -17013.8 -7.41476 
78 1 31.9929 3.29654 7.5 6.0492 7279.06 4099.09 15071.3 -7457.73 31174.8 -22719.9 -7.41591 
79 1 33.4128 3.2791 7.5 6.0492 13963.3 4072.66 -6361.72 6510.34 -9853.55 -24435 -7.41479 
80 1 34.1076 2.04072 7.5 6.04918 9207.48 2380.92 14080.7 -6246.65 29877.1 -28616.4 -7.41586 
81 1 35.5275 2.02328 7.5 6.04918 13393.8 1776.83 2551.52 5752.37 -14161.1 -30471.7 -7.41525 
82 1 36.2526 3.24422 7.5 6.0492 8295.24 120.88 25121.2 -5159.31 35323.3 -34927.4 -7.41644 
168 1 27.7634 5.8082 7.5 6.0492 3914.51 6494.39 19694.3 -9635.49 27988.7 -13292.7 -7.41617 
169 1 29.1833 5.79075 7.5 6.0492 14914.8 7423.58 -19490.2 7640.16 -5105.94 -10395.6 -7.41411 
170 1 29.8782 4.55237 7.5 6.0492 5493.95 5478.15 17121 -8642.73 30534.6 -17242 -7.41603 
171 1 31.2981 4.53493 7.5 6.0492 14471.6 6019.12 -13744.6 7133.8 -6822.93 -17342.2 -7.4144 
172 1 32.0231 5.75587 7.5 6.0492 4544.38 3724.75 26427.9 -7559.32 36270.8 -26236.8 -7.41652 
173 1 33.443 5.73843 7.5 6.0492 15531 4264.36 -12233.2 6616.57 -2459.39 -24902 -7.41448 
174 1 34.1379 4.50004 7.5 6.0492 6361.02 2011.93 25372.5 -6339.51 36750.5 -30933.8 -7.41646 
175 1 35.5577 4.4826 7.5 6.0492 15112.9 2022.79 -4119.58 5951.7 -5639.6 -30114.6 -7.41491 
176 1 36.2828 5.70354 7.5 6.0492 5386.1 -173.805 37349.1 -5119 41226 -36592 -7.41709 
262 1 27.7936 8.26752 7.5 6.0492 1649.7 6393.01 29488.7 -9570.78 29482.6 -18712.9 -7.41669 
263 1 29.2135 8.25008 7.5 6.0492 16221.1 7589.72 -24001.7 7505.31 -217.645 -12638.5 -7.41388 
264 1 29.9084 7.0117 7.5 6.0492 2970 5191.13 27975.8 -8683.93 33782.3 -21893.3 -7.41661 
265 1 31.3283 6.99425 7.5 6.0492 15904.7 6177.14 -18904.7 7124.59 -687.218 -18754 -7.41414 
266 1 32.0533 8.2152 7.5 6.0492 2038.43 3342.38 38203.9 -7452.11 38855.8 -30509.4 -7.41715 
267 1 33.4732 8.19775 7.5 6.0492 16414.9 4321.75 -16449 6990.34 3505.84 -25908.1 -7.41427 
268 1 34.1681 6.95937 7.5 6.0492 3603.16 1646.65 37657.3 -6291.6 40999.2 -33846.3 -7.41712 
269 1 35.588 6.94193 7.5 6.0492 16099.9 2175.56 -9131.34 6409.63 1425.12 -30159 -7.41466 
270 1 36.313 8.16287 7.5 6.0492 2659.84 -430.927 50540.4 -4944.27 43873.4 -38362.3 -7.41781 
358 1 29.9386 9.47102 7.5 6.0492 764.667 4871.72 38661.3 -8481.04 34829.5 -27374.1 -7.41718 
359 1 31.3585 9.45358 7.5 6.0492 16703.7 6175.95 -22391.9 7377.41 4222.9 -20799.7 -7.41396 
362 1 34.1983 9.4187 7.5 6.0492 1163.64 1285.23 50356 -6046 42209.1 -37019.4 -7.41781 
363 1 35.6182 9.40125 7.5 6.0492 16392.7 2203.54 -12853.6 7156.56 6418.14 -30146.9 -7.41447 
19 1 37.6423 0.767449 7.5 6.04918 12693.2 -688.513 12729.6 4936.02 -19413.8 -34316.1 -7.41579 
20 1 40.4821 0.732565 7.5 6.04918 11957.2 -3707.62 26868.8 -3297.7 28322.4 -36769.9 -7.41654 
21 1 41.9019 0.715123 7.5 6.04918 13335.3 -4575.91 25589.5 3316.34 -21041.5 -31472.4 -7.41649 
22 1 44.7417 0.680239 7.5 6.04918 12520.3 -6524.11 37846.5 -1646.05 28594.6 -26984.1 -7.41713 
83 1 37.6725 3.22678 7.5 6.0492 14623.5 -316.918 5168.99 5137.41 -10067.2 -33409.2 -7.4154 
84 1 38.3673 1.98839 7.5 6.04918 10233.8 -1809.62 25704.7 -4115.82 32343.8 -37150.7 -7.41647 
85 1 39.7872 1.97095 7.5 6.04918 14057.8 -2554.64 15235.2 4217.45 -15366.7 -34000.3 -7.41594 
86 1 40.5123 3.19189 7.5 6.0492 9236.65 -3751.47 37729.2 -3086.71 36847.5 -36927.3 -7.41711 
87 1 41.9322 3.17445 7.5 6.0492 14932.5 -4182.34 17879.1 3667.2 -11624.3 -30309.5 -7.41609 
88 1 42.627 1.93607 7.5 6.04918 11032.2 -5263.56 38019.4 -2289.57 33004 -33308.5 -7.41713 
89 1 44.0469 1.91862 7.5 6.04918 14397.3 -5759.4 27027.6 2642.48 -17120.5 -24791.9 -7.41658 
90 1 44.7719 3.13957 7.5 6.0492 9914.53 -6395.86 48699.4 -1425.83 36686.2 -26392.4 -7.41769 
177 1 37.7027 5.6861 7.5 6.0492 15751 -72.3455 -699.035 5630.77 -1970.6 -32740.4 -7.41511 
178 1 38.3975 4.44772 7.5 6.0492 7317.03 -2011.04 37406 -4031.78 39726.6 -37870.9 -7.41709 
179 1 39.8174 4.43028 7.5 6.0492 15375.5 -2250.01 8464.18 4692.12 -6440.99 -32939.2 -7.41559 
180 1 40.5425 5.65122 7.5 6.0492 6251.7 -3775.7 50366.4 -2946.68 42545.1 -36811.8 -7.41778 
181 1 41.9624 5.63378 7.5 6.0492 15603 -3766.16 11546.9 4277.76 -3871.12 -28977.8 -7.41578 
182 1 42.6572 4.39539 7.5 6.0492 8141.49 -5221.14 49843.9 -2131.73 40047.2 -32815.2 -7.41775 
183 1 44.0771 4.37795 7.5 6.0492 15346.9 -5341.59 19872.5 3095.57 -8633.17 -23586.4 -7.41622 
184 1 44.8022 5.59889 7.5 6.0492 6930.14 -6151.53 61437.4 -1302.6 41818.6 -25339.8 -7.41836 
271 1 37.7329 8.14543 7.5 6.0492 16108.8 123.657 -5313.14 6400.45 3927.17 -31946.4 -7.41488 
272 1 38.4277 6.90704 7.5 6.0492 4394.18 -2143.31 50545 -3891.35 43912.2 -38509.1 -7.4178 
273 1 39.8476 6.8896 7.5 6.0492 15850.9 -1911.62 2975.53 5414.48 410.294 -31711 -7.41532 
274 1 40.5727 8.11054 7.5 6.0492 3381.67 -3681.64 64324.2 -2753.91 44448.9 -36306.3 -7.41853 
275 1 41.9926 8.0931 7.5 6.0492 15456.8 -3232.68 5884.26 5102.43 1095.23 -27219.4 -7.4155 
276 1 42.6874 6.85472 7.5 6.0492 5143.38 -5018.51 63343.5 -1978.33 43555.9 -31873.9 -7.41847 
277 1 44.1073 6.83728 7.5 6.0492 15385.3 -4725.7 13539.6 3714.1 -2618.93 -22112.5 -7.41591 
278 1 44.8324 8.05822 7.5 6.0492 3995.27 -5713.18 75675.7 -1174.98 42900.5 -23849.1 -7.41912 
366 1 38.458 9.36637 7.5 6.0492 1767.72 -2201.63 64541.1 -3637.06 44357.3 -38842.4 -7.41855 
367 1 39.8778 9.34893 7.5 6.0492 15619.6 -1553.22 -1882.63 6378.87 4456.04 -29954.2 -7.41508 
370 1 42.7176 9.31404 7.5 6.0492 2407.96 -4667.31 77967.6 -1782.03 42902.5 -30422.8 -7.41925 
371 1 44.1375 9.2966 7.5 6.0492 14737.7 -3914.07 7161.5 4480.64 124.774 -20143.7 -7.41559 
23 1 46.1616 0.662797 7.5 6.04918 13664.9 -6973.58 35425.7 1749.55 -22565.1 -16753.5 -7.41702 
24 1 49.0014 0.627913 7.5 6.04918 12754.4 -7701.99 43270.4 -159.734 28192 -7738.7 -7.41743 
25 1 50.4213 0.610471 7.5 6.04918 13751.6 -7694.68 38782 189.043 -23615.3 4430.05 -7.4172 
26 1 53.2611 0.575587 7.5 6.04918 12693.2 -7259.37 41117 1282.74 27356.3 13945 -7.41731 
91 1 46.1918 3.12212 7.5 6.0492 15006.8 -6537.07 27438 1970.33 -13626.4 -15762.1 -7.41662 
92 1 46.8867 1.88374 7.5 6.04918 11494.4 -7214.32 46606.1 -776.129 32681.2 -17815 -7.41759 
93 1 48.3066 1.8663 7.5 6.04918 14518.7 -7307.85 33825 974.587 -18663.5 -6117.56 -7.41695 
94 1 49.0316 3.08724 7.5 6.0492 10232.2 -7492.76 54053.3 -82.9897 36055.8 -6869.42 -7.41798 
95 1 50.4515 3.0698 7.5 6.0492 15029.6 -7243.39 30621.7 98.6198 -14899.9 4894.33 -7.41679 
96 1 51.1464 1.83141 7.5 6.04918 11602.4 -7567.92 48283.3 576.198 32055.5 3733.3 -7.41768 
97 1 52.5662 1.81397 7.5 6.04918 14524.5 -7213.22 33307.4 -737.502 -19359.7 15210.2 -7.41692 
98 1 53.2913 3.03491 7.5 6.0492 10159.6 -7076.21 51787.7 1178.74 35565.1 14849.4 -7.41786 
185 1 46.222 5.58145 7.5 6.0492 15348.4 -5940.67 20518.7 2351.7 -6546.11 -14696.6 -7.41627 
186 1 46.9169 4.34307 7.5 6.0492 8664.72 -6997.21 58402.6 -689.786 39312 -16836.6 -7.4182 
187 1 48.3368 4.32562 7.5 6.0492 15272.5 -6808.51 26324 1126.66 -10635.5 -5424.14 -7.41657 
188 1 49.0618 5.54657 7.5 6.0492 7267.04 -7114.13 66740.4 -80.2562 41023.4 -5791.8 -7.41864 
189 1 50.4817 5.52912 7.5 6.0492 15288.4 -6586.76 23436.2 32.7588 -8009.31 5016.76 -7.41643 
190 1 51.1766 4.29074 7.5 6.0492 8796.78 -7312.87 59985.6 505.477 38814.6 4654.3 -7.41829 
191 1 52.5965 4.2733 7.5 6.0492 15332.7 -6727.84 25760.1 -976.928 -11176.9 15103.7 -7.41654 
192 1 53.3215 5.49424 7.5 6.0492 7192.96 -6744.42 64361.2 1040.25 41074 15586.3 -7.41852 
279 1 46.2523 8.04078 7.5 6.0492 14858.6 -5076.61 13781.3 2833.98 -2560.08 -13425.9 -7.41594 
280 1 46.9471 6.80239 7.5 6.0492 5650.94 -6549.62 71963.4 -623.01 42323.9 -15525 -7.41892 
281 1 48.367 6.78495 7.5 6.0492 15085.7 -6006.86 19364.5 1314.47 -5210.51 -4821.5 -7.41623 
282 1 49.092 8.00589 7.5 6.0492 4313.88 -6503.01 80992.1 -83.0814 41935.8 -4642.62 -7.4194 
283 1 50.5119 7.98845 7.5 6.0492 14716.1 -5616.37 16292.3 -68.0866 -4242.96 4802.62 -7.41608 
284 1 51.2068 6.75007 7.5 6.0492 5784.07 -6814.75 73469.6 432.186 42074.6 5497.35 -7.419 
285 1 52.6267 6.73262 7.5 6.0492 15209.2 -5959.11 18818.3 -1320.59 -5482.5 14426 -7.4162 
286 1 53.3517 7.95357 7.5 6.0492 4239.32 -6196.65 78491 897.577 42718.4 15932.8 -7.41927 
374 1 46.9773 9.26172 7.5 6.0492 2866.85 -5902.32 86774.6 -549.142 41031.7 -13963.1 -7.41971 
375 1 48.3972 9.24428 7.5 6.0492 14231.4 -4902.01 11972.9 1531.06 -3233.1 -4219.06 -7.41586 
378 1 51.237 9.20939 7.5 6.0492 2985.42 -6107.72 88235.3 354.095 41107.1 6069.1 -7.41978 
379 1 52.6569 9.19195 7.5 6.0492 14413.5 -4907.56 11531 -1758.48 -3166.14 13136.4 -7.41583 
27 1 54.681 0.558145 7.5 6.04918 13626 -6777.17 34525.8 -1385.62 -23976.2 24419.9 -7.41697 
28 1 57.5208 0.523261 7.5 6.04918 12328.1 -5164.46 32092.3 2791.53 26127.1 30297.6 -7.41682 
29 1 58.9407 0.505819 7.5 6.04918 13226.4 -4186.73 24228.9 -3016.83 -23598.7 35890.5 -7.41641 
30 1 61.7804 0.470935 7.5 6.04918 11633.2 -1519.83 19382.8 4456.03 24471.7 35364.1 -7.41614 
31 1 63.2003 0.453493 7.5 6.04918 12490.6 -219.27 11657.6 -4780.63 -22465.8 34577.9 -7.41574 
99 1 54.7112 3.01747 7.5 6.0492 15059.8 -6349.64 26397.4 -1758.97 -14868 24289.8 -7.41656 
100 1 55.406 1.77909 7.5 6.04918 11357.3 -6337.33 42370.3 1960.49 31274.9 23722.6 -7.41736 
101 1 56.8259 1.76165 7.5 6.04918 14384.9 -5459.62 25698.7 -2416.01 -19079.5 31485.6 -7.4165 
102 1 57.551 2.98259 7.5 6.0492 9702.43 -5099.43 42632.7 2612.41 34925.1 31321.2 -7.41737 
103 1 58.9709 2.96515 7.5 6.0492 14970.1 -3780.49 16221.8 -3452.3 -13840.1 35370.7 -7.416 
104 1 59.6657 1.72676 7.5 6.04918 10759.8 -3483.4 30925.2 3544.32 30021 35061 -7.41675 
105 1 61.0856 1.70932 7.5 6.04918 13970.8 -2079.91 13721.7 -4062.44 -18127.5 36607.8 -7.41586 
106 1 61.8107 2.93026 7.5 6.0492 8906.1 -1617.46 29787.4 4383.19 33311.3 36792.2 -7.41669 
107 1 63.2306 2.91282 7.5 6.0492 14565.2 207.657 3664.61 -5005.43 -12629.5 33931.9 -7.41532 
193 1 54.7414 5.4768 7.5 6.0492 15515.9 -5791.89 19431.5 -2231.47 -7366.75 23501.6 -7.41621 
194 1 55.4362 4.23841 7.5 6.0492 8518.71 -6187.83 53946.9 1767.15 38694.5 24550.8 -7.41797 
195 1 56.8561 4.22097 7.5 6.0492 15480 -5061.59 18377.9 -2893.21 -10153.6 30817.7 -7.41614 
196 1 57.5812 5.44191 7.5 6.0492 6718.89 -4969.71 55033.3 2411.19 41302.6 32083.7 -7.41803 
197 1 59.0011 5.42447 7.5 6.0492 15829.8 -3392.47 9721.75 -4058.23 -5345.76 34340.9 -7.41568 
198 1 59.6959 4.18609 7.5 6.0492 7868.41 -3535.61 42334.9 3362.54 37994.3 36219.2 -7.41735 
199 1 61.1158 4.16865 7.5 6.0492 15470.5 -1757.62 6624.71 -4474.29 -8557.45 35910.3 -7.41549 
200 1 61.8409 5.38959 7.5 6.0492 5944.69 -1754.73 41876.2 4251.02 40066.2 38351.2 -7.41733 
201 1 63.2608 5.37215 7.5 6.0492 15900.2 481.357 -2554.1 -5397.63 -3647.47 33427.9 -7.41501 
287 1 54.7716 7.93612 7.5 6.0492 15146.3 -5002.39 12789.3 -2867.6 -2783.72 21941.1 -7.41588 
288 1 55.4665 6.69774 7.5 6.0492 5506.57 -5844.32 67271.5 1581.02 42883.8 24987.7 -7.41867 
289 1 56.8863 6.6803 7.5 6.0492 15685.8 -4509.52 12035.5 -3585.06 -3405.74 29412.5 -7.41582 
290 1 57.6114 7.90124 7.5 6.0492 3793.3 -4691.22 68892.6 2185.57 44169.5 32288.6 -7.41877 
291 1 59.0313 7.8838 7.5 6.0492 15891.3 -2939.42 4102.71 -4917.43 636.619 32578.9 -7.4154 
292 1 59.7261 6.64541 7.5 6.0492 4887.49 -3485.7 55353.7 3161.12 43125.3 37102 -7.41805 
293 1 61.146 6.62797 7.5 6.0492 16168.7 -1446.02 971.811 -5150.23 -707.946 34856.4 -7.41521 
294 1 61.8711 7.84891 7.5 6.0492 3105.18 -1829.71 55173 4035.74 43817.7 39680.6 -7.41805 
295 1 63.291 7.83147 7.5 6.0492 16497.3 668.105 -7341.55 -6074.83 3396.01 32770.5 -7.41477 
382 1 55.4967 9.15707 7.5 6.0492 2722.68 -5331.4 81824.7 1373.53 43101.6 24748.3 -7.41945 
383 1 56.9166 9.13962 7.5 6.0492 15201.2 -3813.84 5866.19 -4477.8 247.539 27097.7 -7.41551 
386 1 59.7563 9.10474 7.5 6.0492 2163.95 -3338.02 69425.1 2889.51 44722.6 37335.5 -7.41881 
387 1 61.1762 9.0873 7.5 6.0492 16165.6 -1167.7 -3801.63 -6098.71 4538.17 33153.2 -7.41497 
32 1 66.0401 0.418609 7.5 6.04918 10659 2851.13 7430.94 6300.16 22376.1 27786.9 -7.41551 
33 1 67.46 0.401167 7.5 6.04918 11481.2 3960.86 1264.25 -6693.21 -20514 22099.3 -7.41518 
34 1 70.2998 0.366283 7.5 6.04918 9598.32 6297.22 -180.064 8191.85 19835.1 12849.6 -7.41511 
35 1 71.7197 0.348841 7.5 6.04918 10429.3 6573.89 -4121.22 -8582.33 -17713.9 6861.7 -7.41491 
108 1 63.9254 1.67443 7.5 6.04918 9854.41 623.806 17985.8 5402.67 27863.8 33778.6 -7.41606 
109 1 65.3453 1.65699 7.5 6.04918 13203 2226.49 1687.61 -5759.78 -16878 28937.4 -7.41521 
110 1 66.0703 2.87794 7.5 6.0492 7905.38 2638.48 17637.2 6463.33 30056.4 29846.7 -7.41605 
111 1 67.4902 2.86049 7.5 6.0492 13787.7 4422.38 -6873.5 -6561.01 -11850.8 21402.1 -7.41476 
112 1 68.1851 1.62211 7.5 6.04918 8798.85 4745.14 7820.74 7430.72 24629.5 21673.7 -7.41553 
113 1 69.605 1.60467 7.5 6.04918 12190 5842.62 -6405.83 -7538.18 -15437.5 13540 -7.41479 
114 1 70.33 2.82561 7.5 6.0492 6929.76 6138.71 9620.93 8553.29 25243 15474.8 -7.41563 
115 1 71.7499 2.80817 7.5 6.0492 12810.2 6985.53 -12345.3 -8187.19 -11383.6 5896.63 -7.41448 
116 1 72.4448 1.56978 7.5 6.04918 7857.14 7161.61 2601.78 9292.56 20593 7073.71 -7.41527 
202 1 63.9556 4.13376 7.5 6.0492 6963.87 370.916 29117.2 5379.62 35466.8 35781.1 -7.41665 
203 1 65.3755 4.11632 7.5 6.0492 15083 2539.45 -5446.35 -5839.15 -7633.12 28583.8 -7.41484 
204 1 66.1005 5.33726 7.5 6.0492 5050.63 2323.48 29137.9 6492.93 36017.9 32747.3 -7.41666 
205 1 67.5204 5.31982 7.5 6.0492 15524.6 4692.45 -13234.7 -6524.85 -3628.02 21646.5 -7.41443 
206 1 68.2153 4.08144 7.5 6.0492 6008 4437.21 18436.3 7611.15 30583.7 24669.6 -7.41609 
207 1 69.6352 4.06399 7.5 6.0492 14314.6 6176.34 -13803.4 -7225 -7869.5 13382.8 -7.4144 
208 1 70.3602 5.28494 7.5 6.0492 4263.05 5903.32 20144 8712.24 29262.5 19492.3 -7.41619 
209 1 71.7801 5.26749 7.5 6.0492 14779 7301.57 -19060.4 -7772.17 -5165.56 6242.39 -7.41414 
210 1 72.475 4.02911 7.5 6.0492 5240.75 7069.6 12351.7 9546.2 24160.6 10586.2 -7.41578 
296 1 63.9858 6.59309 7.5 6.0492 4085.81 136.085 41533.2 5269.27 40710 38083.3 -7.41732 
297 1 65.4057 6.57565 7.5 6.0492 16289 2740.73 -10839.8 -6160.03 438.497 28650.3 -7.41457 
298 1 66.1308 7.79659 7.5 6.0492 2381 2006.52 41396.5 6362.58 39592 36101.2 -7.41732 
299 1 67.5507 7.77915 7.5 6.0492 16628.2 4824.94 -17872.9 -6734.36 3322.9 22539.8 -7.4142 
300 1 68.2455 6.54076 7.5 6.0492 3318.02 4117.93 29806.8 7630.1 34686.8 28671.5 -7.4167 
301 1 69.6654 6.52332 7.5 6.0492 15915.3 6424.21 -19475.6 -7064.77 -937.299 14333.3 -7.41411 
302 1 70.3904 7.74426 7.5 6.0492 1822.37 5660.51 30820.4 8661.75 31482.3 24571.2 -7.41676 
303 1 71.8103 7.72682 7.5 6.0492 16246.2 7564.23 -24092 -7490.88 378.686 7731.5 -7.41388 
304 1 72.5052 6.48844 7.5 6.0492 2775.64 7017.86 22234.6 9608.67 26262.8 15423.9 -7.4163 
390 1 64.016 9.05241 7.5 6.0492 1497.72 -79.3558 54650.3 5013.04 43036.7 40240.9 -7.41803 
391 1 65.4359 9.03497 7.5 6.0492 16825.5 2789.51 -14770.1 -6769.68 6580.9 28777.4 -7.41437 
394 1 68.2757 9.00009 7.5 6.0492 935.889 3772.72 41348.7 7434.94 36580.9 33234.8 -7.41733 
395 1 69.6956 8.98265 7.5 6.0492 16928 6525.74 -23430.2 -7136.24 4808.34 16086.2 -7.41391 
398 1 72.5354 8.94776 7.5 6.0492 614.359 6950.96 31679.9 9448.77 26728.3 21274.6 -7.41681 
36 1 74.5595 0.313956 7.5 6.04918 8746.96 7274.83 -2959.78 9801.54 16824.6 1221.17 -7.41499 
37 1 75.9794 0.296514 7.5 6.04918 9641.87 6458.98 -5307.45 -10062.8 -14217.3 503.578 -7.41488 
38 1 78.8192 0.26163 7.5 6.04918 8358.71 5741.28 -4326.61 10689.6 13356.6 2972.54 -7.41495 
39 1 80.2391 0.244188 7.5 6.04918 9332.24 4311.9 -6787.4 -10681.1 -10400 10198.5 -7.41484 
117 1 73.8646 1.55234 7.5 6.04918 11215.9 7055.77 -9231.07 -9231.64 -13551.8 1146.3 -7.41466 
118 1 74.5897 2.77328 7.5 6.0492 6236.48 7421.19 6068.49 10125.7 19882.6 3989.59 -7.41546 
119 1 76.0096 2.75584 7.5 6.0492 11948.6 6647.1 -13157.2 -9720.04 -10316.5 -1122.39 -7.41447 
120 1 76.7044 1.51746 7.5 6.04918 7294.92 6950.73 719.744 10497.5 16441.8 1242.96 -7.41519 
121 1 78.1243 1.50001 7.5 6.04918 10583.9 5520.48 -9444.2 -10467.9 -10768.8 2241.83 -7.41468 
122 1 78.8494 2.72096 7.5 6.0492 6000.55 6406.39 3504.94 10645.3 15573 5272.73 -7.41535 
123 1 80.2693 2.70351 7.5 6.0492 11473.2 4085.89 -13451.5 -10759.3 -7407.31 7618.96 -7.4145 
124 1 80.9641 1.46513 7.5 6.04918 7255.54 5053.82 -2699.4 10618.4 13031.5 10834.6 -7.41505 
211 1 73.8949 4.01167 7.5 6.0492 13401.4 7335.98 -16725.7 -8732.59 -8461.25 493.661 -7.41427 
212 1 74.6199 5.23261 7.5 6.0492 3770.23 7601.03 15255.7 10230.4 21727.3 8029.68 -7.41594 
213 1 76.0398 5.21517 7.5 6.0492 13944.2 6926.85 -19825.1 -9222.03 -6408.16 -1951.85 -7.41413 
214 1 76.7346 3.97678 7.5 6.0492 4848.39 7356.38 9263.58 10549.6 18232.6 4294.64 -7.41564 
215 1 78.1545 3.95934 7.5 6.0492 12662.7 5575.91 -16311.3 -10155.1 -7571.25 224.225 -7.41433 
216 1 78.8796 5.18028 7.5 6.0492 3635.41 7246.39 11240.6 10434 16456.6 7846.95 -7.41575 
217 1 80.2995 5.16284 7.5 6.0492 13296.7 4134.99 -18996.9 -10557.3 -4620.71 4438.17 -7.41422 
218 1 80.9943 3.92446 7.5 6.0492 4874.06 6098.99 4480.06 10190.9 15157.4 12437.1 -7.41541 
305 1 73.9251 6.47099 7.5 6.0492 15201 7679.23 -22744.8 -8245.4 -3643.3 998.341 -7.41396 
306 1 74.6501 7.69194 7.5 6.0492 1530.23 7837.9 24009.7 10151.2 22089.1 13187.7 -7.4164 
307 1 76.07 7.67449 7.5 6.0492 15553.5 7335.58 -25029.8 -8686.41 -2895.31 -1888.86 -7.41386 
308 1 76.7649 6.43611 7.5 6.0492 2537.72 7915.64 17471.9 10459.4 18612 8210.66 -7.41606 
309 1 78.1847 6.41867 7.5 6.0492 14427.3 5895.86 -21922 -9688.26 -4662.7 -1488.87 -7.41404 
310 1 78.9098 7.63961 7.5 6.0492 1454.83 8236.28 18231.2 10156.7 15632.6 10825.9 -7.41611 
311 1 80.3297 7.62217 7.5 6.0492 14794.5 4494.4 -23195.2 -10117.2 -2533.53 1108.04 -7.414 
312 1 81.0245 6.38378 7.5 6.0492 2540.95 7399.28 11289.7 9744.61 15415.6 13688.9 -7.41576 
399 1 73.9553 8.93032 7.5 6.0492 16524.7 8006.62 -27116.4 -7852.49 555.265 2582.37 -7.41373 
402 1 76.7951 8.89544 7.5 6.0492 511.732 8518.04 24754.4 10235.6 17468.9 12967.1 -7.41645 
403 1 78.215 8.87799 7.5 6.0492 15825.8 6385.84 -26079.6 -9110.08 -2309.08 -2584.21 -7.41383 
406 1 81.0547 8.84311 7.5 6.0492 454.366 8804.67 17032.4 9337.73 13528.5 14951.9 -7.41605 
40 1 83.0788 0.209304 7.5 6.04918 8519.89 3590.68 -9741.26 10496.7 9595.24 19633.6 -7.41471 
41 1 84.4987 0.191862 7.5 6.04918 9515.27 2512.1 -13958.8 -10128.8 -6741.66 31784.9 -7.4145 
42 1 87.3385 0.156978 7.5 6.04918 9110.05 3313.06 -22688.5 9103.61 5919.22 40679.2 -7.41406 
43 1 88.7584 0.139536 7.5 6.04918 10009.8 3262.76 -28851 -8377.39 -3654.35 50263.8 -7.41375 
125 1 82.384 1.44769 7.5 6.04918 10450.2 2944.86 -12415.7 -10806.4 -6747.19 18947.4 -7.41457 
126 1 83.1091 2.66863 7.5 6.0492 6229.41 4839.67 -3413.91 9855.93 13740.2 20982.6 -7.41502 
127 1 84.5289 2.65119 7.5 6.0492 11455.4 1754.51 -18565.6 -10815.6 -1863.41 28342.2 -7.41427 
128 1 85.2238 1.4128 7.5 6.04918 7690.37 3852.59 -12602.2 9510.3 11006.7 31328.6 -7.41457 
129 1 86.6437 1.39536 7.5 6.04918 10748.1 1978.79 -22454.6 -9929.7 -1583.52 41126.1 -7.41408 
130 1 87.3687 2.6163 7.5 6.0492 6775.12 5033.76 -17918.8 7933.16 14802.5 41004.1 -7.4143 
131 1 88.7886 2.59886 7.5 6.0492 11759.1 1970.87 -30866.8 -9514.06 5923.94 46544.8 -7.41365 
132 1 89.4835 1.36048 7.5 6.04918 8392.1 5208.31 -29855.1 7369.1 10447.1 47839.1 -7.41369 
133 1 90.9034 1.34304 7.5 6.04918 11243.2 3948.55 -38930.1 -7769.29 3981.24 51691.2 -7.41323 
219 1 82.4142 3.90701 7.5 6.0492 12296.1 2580.9 -17545.3 -11002.3 -3321.63 15099.2 -7.41431 
220 1 83.1393 5.12796 7.5 6.0492 3782.7 6338.86 3127.56 9151 16056.7 21053.5 -7.41535 
221 1 84.5592 5.11052 7.5 6.0492 12952.7 1338.26 -21609.8 -11136 2204.09 22579.3 -7.41412 
222 1 85.254 3.87213 7.5 6.0492 5216.14 5452.25 -6663.71 8520.31 16311.3 31080.1 -7.41486 
223 1 86.6739 3.85469 7.5 6.0492 12293.2 1056.53 -24811.8 -10684.1 4929.76 35852.3 -7.41396 
224 1 87.3989 5.07563 7.5 6.0492 4055.84 6944.4 -12023.2 6799.54 21042.8 38714.9 -7.41459 
225 1 88.8188 5.05819 7.5 6.0492 12848.4 920.453 -30384.1 -10264.7 13776.5 39357 -7.41368 
226 1 89.5137 3.8198 7.5 6.0492 5694.03 7113.23 -24808.9 6050.82 21074.6 46253.6 -7.41394 
227 1 90.9336 3.80236 7.5 6.0492 12485.9 2445.21 -38092.5 -8777.65 15724.1 46298.5 -7.41328 