ITEM: TIMESTEP
234
ITEM: NUMBER OF ATOMS
13256
ITEM: BOX BOUNDS pp pp pp
0.0000000000000000e+00 1.0011754500000001e+02
0.0000000000000000e+00 1.7340867499999999e+02
0.0000000000000000e+00 1.8399999600000001e+01
ITEM: ATOMS id type x y z c_csym c_2[1] c_2[2] c_2[3] c_2[4] c_2[5] c_2[6] c_3 
1 1 6.63423e-06 8.47158e-07 7.43539 6.04552 -14308 -14338.3 -7039.91 3.07771 -0.0548083 -0.355379 -7.41274 
2 1 2.1577 1.17917 7.44227 6.0347 -24855.6 -4736.13 -4401.17 795.86 12750.1 -23138.9 -7.41303 
3 1 3.57695 1.14705 7.45025 6.02096 -24048.8 -8165.72 -3305.55 23206.5 10373.9 -28960.8 -7.41316 
4 1 6.41447 1.08528 7.47016 6.0163 -30584.3 -99.732 3263.66 33069 11010.1 -42568.8 -7.41433 
5 1 7.8337 1.05794 7.47888 6.02345 -28648.4 -7134.37 -1846.53 66505.1 -2721.73 -25127.9 -7.41391 
48 1 0.0576589 2.45844 7.44227 6.02762 -20965.7 -9312.96 -5042.84 -8676.73 23937 1246.56 -7.41295 
49 1 1.47695 2.42506 7.44439 6.02724 -20660.8 -9677.36 -4233.03 -2389.36 26379.4 -13003.9 -7.41307 
50 1 2.21379 3.6385 7.45381 6.02112 -44870.9 13343.6 -1293.76 -14603.3 27846.5 -19802.3 -7.4134 
51 1 3.63296 3.60641 7.46011 6.01519 -42243.6 7810.11 -2746.87 6559.66 30332 -22438 -7.41344 
52 1 4.31395 2.36059 7.45866 6.02658 -44021.7 14282.6 1830.55 8972.84 18696.5 -38241.3 -7.41387 
53 1 5.73311 2.33071 7.4679 6.01789 -41267.4 4317.7 -3628.77 40353.1 12992.9 -28443.2 -7.41343 
54 1 6.46837 3.54543 7.47598 6.02313 -58233.7 32198.5 8948.26 16743.1 16814.4 -39041.6 -7.41502 
55 1 7.88749 3.51759 7.48285 6.02446 -51836.4 12576.7 -9070.25 48250.4 7994.77 -16919.7 -7.4134 
56 1 8.56955 2.2725 7.48398 6.01839 -40033.3 14869.1 9779.53 40970.1 12702.9 -33381.1 -7.4154 
142 1 0.112621 4.91704 7.45862 6.01717 -28798.2 -5859.38 -3235.39 -29327.3 33800.2 2509.92 -7.4133 
143 1 1.53192 4.88392 7.46014 6.02089 -25977.3 -4767.14 1054.47 -23469 42210.7 -10932.9 -7.41386 
144 1 2.26658 6.09854 7.4701 6.01992 -59388.2 23776.2 -1446.32 -36605 27730.7 -13908.7 -7.41368 
145 1 3.68574 6.06664 7.47407 6.01188 -52392.5 18804.3 377.18 -18271.8 36841.3 -14222.5 -7.41415 
146 1 4.36775 4.82117 7.47017 6.02029 -67455.5 37349.2 4458.48 -12539 23095.9 -31009 -7.41431 
147 1 5.78683 4.79101 7.47669 6.014 -60599.5 22306.4 -5901.21 15940.7 23596.5 -18515.8 -7.41355 
148 1 6.51996 6.00686 7.48417 6.0162 -75487.4 51227.6 10811.5 -9497.52 13052.8 -29805.5 -7.41542 
149 1 7.93905 5.97825 7.48859 6.02082 -63501.2 25846.6 -12909.3 18384.4 11357.3 -7445.27 -7.41335 
150 1 8.62152 4.73313 7.48839 6.02117 -57791.7 38651.9 16112.7 17034.4 11495.7 -28928.2 -7.41615 
236 1 0.163699 7.37568 7.47585 6.01845 -34138.4 -4669.38 -6337.45 -47679.3 27074.1 2539.7 -7.41343 
237 1 1.58304 7.34319 7.47675 6.02021 -26274.9 -973.359 7671.83 -42712.4 41740 -7894.85 -7.41495 
238 1 2.3159 8.5588 7.48382 6.02833 -63789 25971.5 -6667.98 -50232.6 15514.5 -8447.3 -7.41365 
239 1 3.7351 8.52743 7.48577 6.01449 -51570.6 23436 5729.12 -36210.8 30382.9 -4943.4 -7.41506 
240 1 4.41843 7.28251 7.48218 6.02041 -79398.8 47261.9 2367.34 -35096.8 15458.1 -21081.9 -7.41445 
241 1 5.83752 7.25218 7.48587 6.01371 -67180.4 32131.6 -4629.65 -11589.2 22988.2 -7516.42 -7.41406 
242 1 6.56913 8.46875 7.4908 6.01616 -80788.7 56286.5 8028.67 -32168.5 2853.94 -20232.4 -7.41538 
243 1 7.98825 8.43946 7.49327 6.02106 -64007.1 32154.6 -12271.8 -9849.34 8712.95 1141.58 -7.41367 
244 1 8.67148 7.19454 7.49304 6.01738 -65944 49538.9 17748.4 -11423.6 4334.37 -22535.1 -7.41641 
6 1 10.6717 1.00222 7.49036 6.01668 -23229.9 -2498.65 6216.24 54079.9 11731.9 -18880.3 -7.41526 
7 1 12.091 0.977417 7.4929 6.02244 -20859.6 -8089.37 -4572.04 76953 -12265.3 -2070.62 -7.41434 
8 1 14.9301 0.923393 7.49485 6.01806 -14064.1 -5210.87 5344.83 56583.3 17111.8 -2945.57 -7.41534 
9 1 16.3494 0.898963 7.49549 6.01725 -11276.8 -6904.44 -6358.94 80959.3 -15179.8 -2947.06 -7.41452 
57 1 9.98876 2.24666 7.48901 6.03055 -35154.7 -875.706 -8542.87 69180.9 -4596.92 -9837.19 -7.41372 
58 1 10.7238 3.46175 7.4922 6.02125 -36423.9 18224.5 16740.1 36882 12642.1 -19551.8 -7.41633 
59 1 12.143 3.43625 7.49402 6.03166 -27712 -3886.41 -16715.2 59863.5 -7297.05 681.37 -7.41338 
60 1 12.8268 2.19215 7.49409 6.01912 -20746.2 1369.68 12703.9 48589.2 15411.3 -8563.05 -7.41597 
61 1 14.2461 2.16729 7.49459 6.02403 -14872.2 -9972.29 -12719.8 69925 -11633.7 1956.14 -7.4139 
62 1 14.9818 3.38198 7.49614 6.01731 -13664.3 -4396.19 18811.8 42143.7 21634.8 -8187.66 -7.4165 
63 1 16.4011 3.35717 7.49692 6.02161 -4507.84 -15162.5 -21126.4 68498.3 -7761.63 -4723.16 -7.41363 
64 1 17.0856 2.1135 7.49662 6.01088 -11536.7 -8095.3 11416.9 61576.2 25397.4 -9954.7 -7.4159 
151 1 10.0407 4.70634 7.49195 6.03174 -47032.3 10454.3 -17049.8 43589.9 297.755 -3849.49 -7.41314 
152 1 10.7743 5.92206 7.49535 6.02561 -43846 30629.2 23170.8 8995.86 8612.07 -18595.6 -7.417 
153 1 12.1936 5.89537 7.49682 6.03798 -29172.8 616.964 -25352.1 32095.8 -4205.6 1550.47 -7.41287 
154 1 12.8779 4.65137 7.49633 6.02434 -24357.1 9694.93 23329.3 26225.7 15184.1 -12083.7 -7.41697 
155 1 14.2972 4.62566 7.49695 6.03195 -12243.4 -12024.9 -24994.5 49400.5 -6538.36 303.228 -7.41313 
156 1 15.0321 5.84064 7.50045 6.02225 -15509.4 -1912.19 29534.9 18634 21992.7 -16615.9 -7.41741 
157 1 16.4515 5.81515 7.50223 6.03002 -1057.62 -15847.6 -33046.8 48157.8 -888.768 -9981.88 -7.41314 
158 1 17.1368 4.57185 7.50087 6.01109 -12556 -10024 25294.8 43830.9 30925.2 -18480.3 -7.41702 
245 1 10.0907 7.16657 7.49541 6.02975 -49706.1 18131.1 -21174.6 12402 1039.36 1013.98 -7.41303 
246 1 10.8232 8.38273 7.49841 6.02342 -47909.7 36397 24936.8 -18708.7 2106.83 -19140.5 -7.41711 
247 1 12.2425 8.35475 7.50024 6.03709 -29089.1 7696.84 -29282.8 3884.95 -2173.7 56.4088 -7.41283 
248 1 12.9274 7.11089 7.50002 6.03023 -27987 15597.6 29820.8 -1371.48 11499.3 -17590.5 -7.41752 
249 1 14.3468 7.08408 7.50152 6.03892 -11021.1 -7982.96 -33278.4 23938.4 -2233.15 -4138.25 -7.41282 
250 1 15.0805 8.29958 7.50647 6.02896 -23589.9 5930.19 36764.2 -6151.2 19076.5 -27907.7 -7.41796 
251 1 16.5 8.2734 7.50971 6.02709 -5616.29 -5156.78 -41305.5 26760.1 4799.12 -16592.7 -7.41304 
252 1 17.186 7.03036 7.50853 6.01705 -20447.5 -4397 37204.7 21066.7 30970.6 -30395.2 -7.41797 
346 1 17.2327 9.48952 7.51706 6.02517 -37044 11981.1 46036.5 -487.222 27009.7 -43624.5 -7.41866 
10 1 19.1889 0.846175 7.50001 6.0022 -12250.5 -4624.35 3164.85 88527.8 25098.3 -17144.3 -7.41543 
11 1 20.6082 0.824677 7.50429 5.99681 -9061.65 -2357.81 -7081.52 128879 -17165.6 -25003.5 -7.41481 
12 1 23.4477 0.777411 7.5167 5.96916 -16149.8 1825.97 3766.34 165077 34058.2 -37425.6 -7.41596 
13 1 24.867 0.762231 7.52367 5.9671 -13241.2 5498.29 -6875.19 214530 -22325 -40023.3 -7.41516 
65 1 18.5049 2.08997 7.49884 6.01013 -5370.81 -10149.7 -14897.7 94368.4 -10640.9 -13736.4 -7.4142 
66 1 19.241 3.30465 7.50318 5.99952 -15157.6 -8594.87 18850.6 76969.7 36356.4 -23590.1 -7.41658 
67 1 20.6603 3.28311 7.50816 6.00042 -6350.26 -7200.83 -23420.9 118976 -4075.5 -26388.2 -7.41409 
68 1 21.3445 2.03956 7.50859 5.98672 -18097 -2546.45 11520 118489 37388.5 -30650.4 -7.41623 
69 1 22.7638 2.02094 7.51514 5.98419 -12157.3 1004.65 -15689.4 165768 -11583.9 -34408.4 -7.41459 
70 1 23.4995 3.23654 7.52308 5.97135 -32678.9 9255.26 22499.6 152697 49653.4 -41547.3 -7.4173 
71 1 24.9187 3.22129 7.53083 5.97517 -24621.4 12431.4 -25344.7 202771 -5869.98 -39021.8 -7.41437 
72 1 25.603 1.97813 7.53051 5.95633 -29841.7 13138.5 14210.8 206263 47452.3 -43739.7 -7.41694 
73 1 27.0222 1.96647 7.53749 5.95749 -24745.3 14739.2 -16669 254473 -16048 -40003.3 -7.4148 
159 1 18.5562 4.54804 7.50394 6.01552 -864.848 -14475.5 -29459.6 79273.8 -747.988 -17689.5 -7.41359 
160 1 19.2912 5.76322 7.51145 6.00245 -23945.6 -4847.93 34469.6 56724.4 40791.1 -33751.6 -7.4178 
161 1 20.7105 5.74159 7.51735 6.00771 -10520.9 -1864.79 -38614.7 100920 6371.85 -29709.7 -7.41367 
162 1 21.3957 4.49844 7.51632 5.98708 -29775.6 1511.3 29388.2 101229 47298.9 -37798.7 -7.41757 
163 1 22.8149 4.47979 7.52362 5.99244 -18896.8 6078.88 -32894.8 149675 1969.33 -35345 -7.41401 
164 1 23.5487 5.69635 7.53447 5.97769 -53311.8 23831.1 42985.6 128544 54900.5 -47208.2 -7.41886 
165 1 24.9678 5.68099 7.54253 5.98877 -40846.9 28107.4 -44684.2 178726 5372.54 -38290.7 -7.41383 
166 1 25.6529 4.43808 7.54122 5.96049 -53558.1 30348.8 35586 183951 58663.1 -46697.3 -7.41858 
167 1 27.072 4.42615 7.54864 5.97145 -43761.5 30187.9 -36922.3 232283 -1511.64 -38586.9 -7.41406 
253 1 18.6054 7.00623 7.51283 6.0188 -4627.27 -7005.85 -41662.4 59763 6965.18 -23205.1 -7.41333 
254 1 19.3385 8.22237 7.52187 6.01141 -41012.2 9716.37 48434.8 34473.4 38118.2 -45479.6 -7.4189 
255 1 20.7578 8.20077 7.52835 6.00895 -24204.3 16228.2 -52630.1 80857.6 12629.7 -32144.7 -7.41346 
256 1 21.4439 6.9579 7.52768 5.99488 -48116.1 15222.7 47419.4 77783.7 47699.7 -46638.8 -7.41896 
257 1 22.8631 6.93928 7.53532 6.0016 -33221.6 22598.1 -50235.7 127168 10324.3 -35877.4 -7.41364 
258 1 23.5943 8.15726 7.54647 5.99127 -78567.9 46481.9 63072.6 101358 49686.5 -52890.5 -7.42039 
259 1 25.0133 8.14187 7.5542 6.00083 -62349.9 53558.3 -64729.9 151166 10007 -35813.8 -7.41335 
260 1 25.6994 6.89918 7.55409 5.9735 -80297.9 53474.2 58303.8 152641 57378 -49828.6 -7.42032 
261 1 27.1184 6.88696 7.5614 5.98914 -66293.9 54269.3 -58802.6 200381 5501.38 -36221.4 -7.41347 
347 1 18.6521 9.46524 7.52235 6.01424 -18746.2 13456 -51172.5 41242.2 12143 -27712.7 -7.41331 
350 1 21.4887 9.41848 7.53845 6.00815 -72636.1 38548.3 63256.2 55199.1 40811.4 -55225.6 -7.4202 
351 1 22.9079 9.40003 7.54571 6.0005 -54704.4 49198.3 -66875.6 105038 13695.3 -34222.6 -7.41331 
354 1 25.7419 9.36172 7.5643 5.99168 -108388 81056.8 79520.2 122348 47208 -52466.8 -7.42186 
355 1 27.1608 9.3493 7.57101 5.99716 -90670.2 84814.2 -80533.7 168886 6391.27 -31860.9 -7.41285 
14 1 27.7067 0.723702 7.53702 5.94073 -21245.7 10507.1 4887.81 255106 41123.7 -43580.1 -7.41646 
15 1 29.126 0.715511 7.54242 5.94085 -19271.6 12631.2 -7197 298177 -27449.8 -38431.1 -7.41538 
16 1 31.9661 0.685538 7.55056 5.92315 -25701.2 16894.4 4884.84 325232 44595.9 -36815.9 -7.41661 
17 1 33.3852 0.682808 7.55315 5.92386 -24568.8 16934.1 -7315.96 354192 -30132.9 -28286.7 -7.41548 
18 1 36.2257 0.659252 7.55656 5.91314 -29219.8 20178.8 4820.52 366195 45554.4 -26295.2 -7.41657 
74 1 27.757 3.18345 7.54658 5.94464 -47988.2 31532 26111.6 239108 58096.3 -44683.6 -7.41809 
75 1 29.1761 3.17495 7.55248 5.95382 -41107.3 28227.6 -27795.4 282770 -9842.32 -36547.3 -7.41438 
76 1 29.8612 1.93264 7.54967 5.93186 -37966.8 26613.7 15584.5 287977 53077.8 -41245.2 -7.4174 
77 1 31.2803 1.92728 7.55377 5.93743 -34055.3 23270.9 -17833.1 324705 -19494.2 -32775.5 -7.41484 
78 1 32.0142 3.14552 7.56233 5.92608 -54600.9 44510.8 27281.1 305870 61558 -35998.9 -7.41848 
79 1 33.4332 3.14232 7.56491 5.93908 -48901.7 34250.9 -28998 335974 -12224.2 -26717.5 -7.41434 
80 1 34.1196 1.90101 7.55986 5.91728 -41608.7 32937.5 15728.8 342288 54904.5 -31005.3 -7.41751 
81 1 35.5387 1.90006 7.56128 5.9255 -38510.6 25682.7 -17836.8 365197 -21173.1 -21915 -7.41486 
82 1 36.2717 3.11921 7.56889 5.91585 -53936.5 47206.9 27236.4 344794 62220.1 -24737.8 -7.41855 
168 1 27.8043 5.64445 7.55983 5.95563 -76036.6 56026.3 49803.6 206682 62656.9 -45858.9 -7.41997 
169 1 29.2233 5.63545 7.56584 5.97229 -64658.1 50419.5 -50188.5 250138 591.936 -34704.9 -7.41366 
170 1 29.9091 4.39325 7.56261 5.93925 -66664.8 52822.4 38986.5 259365 64263.8 -41095.1 -7.41934 
171 1 31.3281 4.38731 7.56686 5.95513 -58140.9 43089.3 -39967.8 296639 -5072.67 -31291.6 -7.41395 
172 1 32.0592 5.60699 7.57705 5.93952 -82380 72587.1 52350.1 266520 65898.8 -35068.5 -7.4206 
173 1 33.4781 5.60296 7.57952 5.95966 -72224.6 56667.6 -52589.1 297180 -2686.53 -25570.3 -7.41352 
174 1 34.1653 4.36173 7.57405 5.92569 -68045.2 60768.5 39631.7 309453 66073 -29530.9 -7.41963 
175 1 35.5843 4.36004 7.57512 5.94391 -60513 43918.8 -40469.5 333569 -7015.38 -21038.8 -7.41389 
176 1 36.3146 5.58054 7.58416 5.92928 -76642.6 73150 52223 301587 66939.8 -23190.7 -7.42081 
262 1 27.8476 8.10691 7.57206 5.9741 -104721 83792.4 73929 169886 55223.9 -46956.5 -7.42176 
263 1 29.2665 8.09738 7.57783 5.99013 -89148.2 79499.3 -73817.2 212513 2906.76 -31443.2 -7.41298 
264 1 29.9534 6.85532 7.57655 5.9562 -95368.1 80799 64305.9 218915 61935.8 -41047.5 -7.42133 
265 1 31.3722 6.84864 7.58074 5.97627 -82399 69351 -64080.6 256007 198.926 -29281.1 -7.41321 
266 1 32.1002 8.06996 7.59026 5.96041 -108958 100731 78379.2 221518 57946.8 -34720.5 -7.42258 
267 1 33.519 8.06498 7.59263 5.97754 -94476.1 84530 -77621.2 252139 -2299.73 -23674 -7.41274 
268 1 34.2073 6.82391 7.58909 5.94372 -93019.5 87902.6 65682 262881 63956.7 -28559.7 -7.42181 
269 1 35.6261 6.82119 7.58986 5.96529 -81137.8 67416.3 -65189.7 287583 -2840.73 -20170.9 -7.4131 
270 1 36.3534 8.04322 7.5983 5.95031 -97723 97841.4 78556 251715 59593.6 -22664.7 -7.42293 
358 1 29.9934 9.31895 7.58678 5.97518 -122721 109409 88734.1 179398 50169.5 -41234.2 -7.42305 
359 1 31.4122 9.31152 7.59085 5.98963 -105678 100181 -88186.5 215693 -1381.74 -25881.4 -7.41245 
362 1 34.245 9.28752 7.6006 5.9643 -116227 114252 91509.8 216822 52173.9 -28500 -7.42368 
363 1 35.6638 9.28371 7.60127 5.98027 -100194 95095.1 -90328.3 241588 -6164.34 -18573 -7.41229 
19 1 37.6448 0.660003 7.55741 5.91536 -28523 18746.9 -6768.43 382675 -31400.6 -17549 -7.41554 
20 1 40.4854 0.64056 7.55841 5.90986 -31195.4 21792.2 4903.87 385396 45404.9 -17062.1 -7.41651 
21 1 41.9045 0.643252 7.55847 5.91216 -30530.7 19467.1 -6079.39 393693 -32313.2 -8852.64 -7.41559 
22 1 44.7452 0.626155 7.55843 5.90958 -31941.5 22233.2 4966.75 392915 44785.6 -9883.08 -7.41648 
83 1 37.6907 3.11944 7.56913 5.93021 -48866.1 32843 -28502.8 362776 -13567.8 -16454.6 -7.41434 
84 1 38.3783 1.87898 7.56322 5.91058 -41536.5 33721 15656.9 370426 54938.9 -20654.4 -7.41748 
85 1 39.7974 1.88067 7.56315 5.91946 -38721.9 24576.8 -17041.4 383068 -22263.3 -12322.4 -7.4149 
86 1 40.5297 3.10038 7.5695 5.91114 -48862.8 44023.5 26869.8 362828 61789.1 -15337.7 -7.41853 
87 1 41.9487 3.10256 7.5684 5.92467 -44102.1 27591.3 -27416.1 372675 -14657.4 -8132.04 -7.41438 
88 1 42.6374 1.86273 7.56295 5.90831 -38933.5 31801.2 15555.4 382240 54303 -12459.8 -7.41744 
89 1 44.0565 1.86582 7.56212 5.91665 -36215.1 21420.2 -16212.5 388652 -23216.3 -4847.2 -7.41494 
90 1 44.7885 3.08579 7.56675 5.90918 -41101.4 37880.2 26511.2 369449 60927.1 -8119.81 -7.4185 
177 1 37.7335 5.5798 7.58376 5.94977 -67298 51163.7 -52142.9 320606 -4482.29 -16051 -7.41348 
178 1 38.4221 4.3395 7.57705 5.9182 -61615.8 58072.6 39113 335513 66210.7 -18819.5 -7.41968 
179 1 39.8411 4.34041 7.57606 5.93586 -54648.8 37615.5 -39402.6 349509 -8302.22 -11917.3 -7.4139 
180 1 40.571 5.5613 7.58363 5.92333 -64031.4 64523.9 51145 317722 66979.6 -13656.4 -7.42083 
181 1 41.99 5.56248 7.58132 5.94227 -55210.9 39516.9 -50636 328570 -5708.48 -8161.31 -7.41352 
182 1 42.6798 4.32293 7.5747 5.9144 -51000.7 50110.8 38360.4 346135 65638.3 -10560.2 -7.41965 
183 1 44.0988 4.32524 7.57245 5.93044 -44310.7 27691.6 -38082.3 353758 -9363.18 -4744.86 -7.41394 
184 1 44.8288 5.54616 7.57807 5.91959 -47848.2 51356.3 50089.5 323269 66414.2 -6358.53 -7.42082 
271 1 37.7723 8.04131 7.59744 5.96957 -84170.1 74362.3 -77523 271233 -5058.99 -15440.1 -7.41269 
272 1 38.4622 6.80126 7.59208 5.93555 -79858.5 80684.6 64730.5 285788 64832.8 -17662.8 -7.42196 
273 1 39.8811 6.80103 7.5902 5.95607 -68694.9 55339.1 -63968.2 300566 -4506.16 -11808.2 -7.4131 
274 1 40.6083 8.02326 7.59723 5.94318 -77547.6 83155.3 76977.8 265282 60496.6 -13071.4 -7.42305 
275 1 42.0272 8.02317 7.59383 5.96259 -64679.8 55786.4 -75850.4 276576 -6551.82 -8239.11 -7.41272 
276 1 42.7186 6.78403 7.5879 5.93017 -61174.1 66030.6 63221.2 294753 64921.8 -9307.28 -7.42198 
277 1 44.1376 6.78517 7.5842 5.94906 -50489.7 38143.4 -62213.6 302997 -5604.42 -5001.6 -7.41315 
278 1 44.865 8.00721 7.58929 5.93759 -53106.5 62604.1 75257.3 269325 60597.7 -5593.87 -7.42308 
366 1 38.498 9.2642 7.60435 5.95797 -96565.6 102103 90756 235944 53757 -17688.9 -7.42396 
367 1 39.9169 9.2627 7.60186 5.97466 -81363.8 77088.5 -89459.5 251040 -8631.23 -11436 -7.41228 
370 1 42.7532 9.24595 7.59916 5.95107 -70137.7 80460.4 88867.2 242705 54621.3 -9215.89 -7.42407 
371 1 44.1722 9.24574 7.59422 5.9686 -55552.5 52414.4 -87623.8 251096 -9948.25 -5213.96 -7.41233 
23 1 46.1643 0.629804 7.55815 5.91144 -31141.7 19191.1 -5562.04 396553 -33156.5 -2085.97 -7.41563 
24 1 49.0051 0.613785 7.55767 5.90996 -30563.8 21885.8 4952.51 395545 43954 -3981.53 -7.41646 
25 1 50.4242 0.617751 7.55726 5.91131 -29574.4 17852 -5280.4 396154 -33958.5 3624.64 -7.41565 
26 1 53.2652 0.601795 7.55668 5.90884 -27938.4 19885.5 4794.05 395852 43116.5 1755 -7.41644 
91 1 46.2075 3.08894 7.56491 5.9211 -36358.1 20262.6 -26462 374510 -15604.3 -1639.08 -7.41442 
92 1 46.8969 1.84951 7.56084 5.9079 -34299.1 28342.4 15463.7 386315 53401.7 -6022.77 -7.41742 
93 1 48.316 1.85322 7.55966 5.91465 -31387.2 17166.6 -15633.2 389070 -24060.8 1144.25 -7.41497 
94 1 49.048 3.07318 7.56226 5.90798 -30718.2 30294.8 26283 371185 59917.9 -2108.24 -7.41848 
95 1 50.4671 3.07666 7.56015 5.9184 -25849.4 11461.9 -25866.4 372996 -16375.4 3901.04 -7.41444 
96 1 51.1568 1.83743 7.55798 5.90768 -27665.2 23642 15364.6 387196 52466.6 -265.919 -7.4174 
97 1 52.576 1.84119 7.55673 5.91312 -24717.3 11052 -15375 387028 -24773.3 6656.91 -7.41499 
98 1 53.3084 3.06087 7.55737 5.90691 -19515.4 20684.8 26114 370631 58994.8 3867.82 -7.41846 
185 1 46.2478 5.54832 7.5746 5.93684 -39095.9 24856.4 -49182.7 329074 -6666.36 -1895.45 -7.41355 
186 1 46.9386 4.30932 7.56918 5.91204 -37519.6 39469 37795.3 349317 64713.4 -4044.54 -7.41963 
187 1 48.3577 4.31226 7.56629 5.92645 -30674.9 16042.1 -37064 353025 -10228.9 1061.42 -7.41397 
188 1 49.088 5.53293 7.56973 5.91638 -28787.2 36186.8 49410.1 324166 65506.9 -173.226 -7.42081 
189 1 50.5072 5.53541 7.56582 5.93217 -19992.7 8259.24 -48198.6 326379 -7409.39 3534.87 -7.41358 
190 1 51.1986 4.29677 7.56232 5.90991 -22344.7 27159.8 37471.4 349372 63717.4 1910.27 -7.41962 
191 1 52.6178 4.29976 7.55936 5.92295 -15468.9 2233.3 -36520.3 349908 -10867.2 6476.17 -7.41399 
192 1 53.3488 5.51993 7.56081 5.91357 -9342.62 18832.1 49022.6 322971 64563.1 6097.52 -7.42079 
279 1 46.2841 8.00806 7.58421 5.95547 -40413.8 33446.1 -74028.3 275259 -7498.94 -2260.06 -7.41276 
280 1 46.9767 6.76965 7.57903 5.9258 -39072 47917.6 62015.2 296892 64379.8 -2614.97 -7.42198 
281 1 48.3959 6.7714 7.57436 5.94317 -28346.9 18663.1 -60753.7 300869 -6427.94 649.814 -7.41318 
282 1 49.124 7.99297 7.57727 5.9326 -25735.9 39409.7 74024.4 269331 60046.3 882.849 -7.42308 
283 1 50.5433 7.99413 7.57157 5.94889 -13005.9 8694.16 -72692.7 271380 -8181.18 3048.45 -7.41278 
284 1 51.2368 6.75624 7.56811 5.92191 -15690.6 27659.9 61285.7 296285 63513.7 3623.42 -7.42196 
285 1 52.6561 6.75805 7.56337 5.93772 -4793.37 -2997.45 -59905.2 296796 -7022.33 5985.78 -7.41319 
286 1 53.3853 7.97888 7.56441 5.92801 1739.97 13743.7 73272 267975 59212.2 7512.38 -7.42305 
374 1 47.0108 9.2304 7.58753 5.94498 -39651.7 54416 87117.8 243541 54635.6 -2231.99 -7.42411 
375 1 48.4299 9.23076 7.5812 5.96095 -25123 24670.9 -85887.2 247311 -10753.2 191.264 -7.41236 
378 1 51.271 9.21573 7.57295 5.93927 -8093.29 25626.1 85901.9 242513 54059 4376.52 -7.4241 
379 1 52.6904 9.21614 7.5665 5.9535 6755.3 -5636.43 -84757 242456 -11229.3 5342.65 -7.41236 
27 1 54.6843 0.60554 7.55622 5.91058 -26850 14680.9 -5236.89 393490 -34680.1 9363.05 -7.41567 
28 1 57.5255 0.588645 7.55553 5.90842 -23474.8 16695.2 4464.38 393292 42321.9 8437.86 -7.41641 
29 1 58.9446 0.591574 7.55495 5.91061 -22133.7 11043 -5352.99 386711 -35124.1 16232.7 -7.41569 
30 1 61.786 0.572557 7.55381 5.91032 -18324.4 13072.2 3957.23 383877 41519.6 16978.5 -7.41635 
31 1 63.2052 0.573763 7.55282 5.91231 -16882.1 7109.26 -5518.57 369761 -35048.4 25040.3 -7.41576 
99 1 54.7276 3.06414 7.55536 5.91605 -14430.2 910.679 -25659.8 369337 -16901.1 9549.22 -7.41445 
100 1 55.4173 1.82493 7.55512 5.90777 -19960.2 17108 15184.3 385894 51641.9 5960.44 -7.41738 
101 1 56.8365 1.8282 7.55393 5.91203 -16677.4 4018.19 -15389.4 382310 -25219.7 12794.6 -7.41501 
102 1 57.5697 3.04736 7.55301 5.90666 -7028.45 10255.5 25936.6 367500 58216.4 10915.1 -7.41843 
103 1 58.989 3.04985 7.55127 5.91457 -1536.16 -9703.72 -25718.8 361802 -16947 16340.3 -7.41448 
104 1 59.6784 1.81044 7.55247 5.90751 -11197.2 10321 14893.1 380448 50908.6 13682.8 -7.41733 
105 1 61.0977 1.81251 7.55129 5.91258 -7727.06 -3042.78 -15554.3 371180 -25153.9 20529.2 -7.41505 
106 1 61.8318 3.03094 7.54945 5.90906 4441.7 103.822 25630 358037 57533.9 19910.8 -7.41835 
107 1 63.2512 3.03177 7.54786 5.91598 10255.9 -19127.6 -25820 344738 -16185.6 24966.9 -7.41454 
193 1 54.7681 5.52221 7.55716 5.92785 -160.729 -9968.51 -47766.8 321867 -7860.86 9109.74 -7.41358 
194 1 55.4598 4.28373 7.55575 5.90825 -6419.72 13103 37262.6 347484 62838.2 8461.27 -7.41959 
195 1 56.8791 4.28626 7.55315 5.9199 951.067 -12184 -36385.3 344420 -11114.6 12536.2 -7.414 
196 1 57.6112 5.5057 7.55317 5.91163 10560.4 556.383 48809 319828 63723.1 13518.9 -7.42074 
197 1 59.0306 5.50723 7.55022 5.92441 20314.6 -28066.5 -47712.6 314050 -7729.39 15746 -7.41359 
198 1 59.7222 4.26872 7.5505 5.90817 9283.57 -1085.93 37080.3 342006 62112.8 16599.8 -7.41954 
199 1 61.1417 4.27011 7.54842 5.91858 17069.8 -25880.4 -36455.8 333055 -10639.2 20105.5 -7.41404 
200 1 61.875 5.48864 7.54783 5.91245 27721.4 -16951.1 48529.2 311274 63102.4 22866.2 -7.42064 
201 1 63.2946 5.4886 7.54568 5.92398 38019.7 -43929.7 -47694.3 297777 -6505.26 23987.8 -7.41365 
287 1 54.8047 7.97984 7.55911 5.94255 14989.9 -17959.8 -72033.3 266387 -8547.69 8477.47 -7.41278 
288 1 55.4988 6.7423 7.55777 5.91853 7967.34 5421.98 60876.7 294362 62609.4 10530.4 -7.42193 
289 1 56.9183 6.74367 7.55369 5.93265 19532.6 -25449.3 -59615.5 290959 -7192.55 11901.3 -7.41318 
290 1 57.6488 7.96355 7.55359 5.92431 28579.5 -13115 72840.2 265578 58399.9 15249.6 -7.42298 
291 1 59.0685 7.96383 7.54946 5.93707 42548.7 -44322.4 -71847.6 258997 -8225.45 14734.7 -7.41277 
292 1 59.7627 6.72641 7.54994 5.91678 30016.4 -16852.3 60617.6 289717 61872.6 18983.7 -7.42184 
293 1 61.1823 6.7267 7.54696 5.92936 42202.7 -46703.8 -59594.5 280116 -6478.14 19080.3 -7.4132 
294 1 61.9144 7.94551 7.54672 5.92345 51202.8 -38844 72371.6 258871 58007.2 24641.4 -7.42281 
295 1 63.3341 7.94432 7.54409 5.93464 66039.4 -67336.4 -71687.8 244580 -6494.24 22141.5 -7.4128 
382 1 55.5338 9.20048 7.55915 5.93405 23217.1 -5561.34 85119.8 241138 53304.6 11618.9 -7.42403 
383 1 56.9534 9.20048 7.5537 5.94635 38878.6 -36821 -84248.1 236907 -11151.8 10885.1 -7.41234 
386 1 59.7991 9.18335 7.54916 5.93053 51404.6 -36635.4 84534.8 238147 52827.3 20146 -7.42388 
387 1 61.2189 9.18236 7.54543 5.94103 67963.7 -66170.5 -84010.7 227619 -9908.55 17244.5 -7.41233 
32 1 66.0467 0.550975 7.55018 5.91747 -12814.9 9519.88 3344.23 358972 40380.3 27671.3 -7.41626 
33 1 67.4659 0.549012 7.54798 5.92065 -11484.6 3736.17 -5417.68 332959 -33949.6 35292 -7.41584 
34 1 70.3071 0.520225 7.54167 5.93359 -9045.38 6264.59 2918.47 308306 37804 38462.3 -7.41609 
35 1 71.7264 0.513131 7.53711 5.93532 -8272.34 938.697 -4837.3 267935 -30854 42736.2 -7.41583 
108 1 63.94 1.79188 7.54955 5.91101 -3208.18 3831.77 14385.3 364702 50090.4 23581.2 -7.41724 
109 1 65.3593 1.79163 7.54796 5.91729 542.73 -8620.49 -15588.8 345683 -24219.7 30147.9 -7.41514 
110 1 66.0945 3.00916 7.54583 5.91555 13055.9 -7925.93 24952 334420 56570.2 31031.6 -7.41819 
111 1 67.514 3.00692 7.54376 5.9232 19181.4 -24249.6 -25388.1 309277 -14058.3 34813.4 -7.41468 
112 1 68.2016 1.76621 7.54444 5.92224 2033.24 -543.382 13641 328879 48435.6 35045 -7.41706 
113 1 69.621 1.76189 7.54141 5.92666 5609.35 -10829.9 -14915.2 296237 -21781.9 39596.6 -7.41526 
114 1 70.3571 2.97845 7.53956 5.93221 14043.1 -10858.5 23752.6 287388 54110.2 42069.7 -7.41784 
115 1 71.7766 2.9712 7.53586 5.93605 20071.6 -21751.5 -23691.8 248087 -10132.6 41841.5 -7.41481 
116 1 72.4627 1.72932 7.53384 5.94465 1064.46 -1538.66 12721.6 265034 44271.8 43583.8 -7.4167 
202 1 63.9857 4.24975 7.54669 5.9124 21875.6 -13833.1 36623.2 327369 61475 26903.8 -7.41941 
203 1 65.4052 4.24891 7.54489 5.9218 30241.5 -36074.6 -36285.9 308689 -8899.94 29362.3 -7.41413 
204 1 66.1398 5.46644 7.54452 5.91951 39049.3 -30671.2 47691 290485 62659.1 34138.6 -7.4204 
205 1 67.5595 5.4635 7.54267 5.92966 49953.9 -52728 -46882.6 265435 -3346.9 33215 -7.4138 
206 1 68.2495 4.22393 7.54288 5.92424 27617.5 -21462.4 35503.3 295083 60355.9 38598.7 -7.4191 
207 1 69.6691 4.21919 7.54044 5.93044 36174.9 -38168.2 -34912.1 263068 -5218.3 38386.3 -7.41432 
208 1 70.4046 5.43576 7.54093 5.93688 38267.8 -35230.9 45706.9 249680 61585.8 45180.1 -7.41986 
209 1 71.8244 5.42807 7.53819 5.94077 49345.3 -48062.7 -43907.8 211090 2104.09 40100.2 -7.41404 
210 1 72.5128 4.1873 7.53581 5.94714 20750.2 -19499.1 33377.3 238238 57017 47389.1 -7.41848 
296 1 64.028 6.70674 7.54546 5.91938 47054.4 -36760.2 60045.6 277261 61572.4 29359.9 -7.42165 
297 1 65.4477 6.70494 7.54351 5.93067 60049.5 -62772.1 -59240.2 258168 -4056.46 27557 -7.41328 
298 1 66.1813 7.92265 7.54411 5.92858 65500.4 -58912.6 71191 241911 58472.3 35476.8 -7.42248 
299 1 67.6012 7.91877 7.54258 5.93789 80986.6 -81239.1 -70490 216490 -2246.88 30113.4 -7.41295 
300 1 68.2941 6.68061 7.54333 5.93016 53847.3 -49069.9 58455.4 249901 61702 40787.6 -7.42122 
301 1 69.7139 6.67517 7.54155 5.93731 67264.6 -67268.2 -57149 218105 1017.63 35770.6 -7.41351 
302 1 70.4485 7.8919 7.54352 5.94387 64431.2 -66571.4 68246.5 208019 59522.2 46006.7 -7.4218 
303 1 71.8684 7.88363 7.54173 5.94703 80095.2 -77641.8 -66153.3 169962 4990.52 36415.2 -7.4133 
304 1 72.5596 6.64433 7.54006 5.95278 43265.7 -46656.7 54879.2 201855 60762.6 49784 -7.42039 
390 1 64.0664 9.16268 7.54454 5.93119 72891.9 -63949.4 83576.1 228762 53232 30047.7 -7.4236 
391 1 65.4864 9.15977 7.54261 5.9404 90286.1 -88733.4 -83334 208950 -6495.46 24301.1 -7.41241 
394 1 68.3348 9.13604 7.54454 5.93986 81283.3 -81375.4 81302.1 206599 54940.9 40532.7 -7.42306 
395 1 69.7548 9.12979 7.54347 5.94468 99084.3 -97194 -80429.6 174924 93.8417 31043.9 -7.41268 
398 1 72.6028 9.10008 7.54506 5.95992 69226.3 -80147 76040.3 166844 56631.5 49504.1 -7.42208 
36 1 74.5669 0.47607 7.52579 5.96029 -8226.48 3616.44 2514.69 228971 32304.6 42076.7 -7.41578 
37 1 75.9862 0.462096 7.51931 5.96278 -8241.64 -575.357 -4707.8 180028 -25211.6 38621 -7.41552 
38 1 78.8259 0.416086 7.5073 5.99206 -10842.9 1794.95 1598.96 141813 24923.9 29451.1 -7.41536 
39 1 80.2452 0.395431 7.50251 5.998 -11012.7 -1255.31 -4656.02 99394.2 -18885.7 19486.7 -7.415 
117 1 73.8822 1.7189 7.52856 5.9471 4171.95 -7965.65 -13582.6 219459 -17438.7 42184.5 -7.41522 
118 1 74.6186 2.9346 7.52762 5.96106 4403.14 -5988.33 21842.4 214208 48046.6 45938 -7.41722 
119 1 76.0381 2.92054 7.52213 5.96369 10028.3 -10310.2 -21332.6 166159 -5530.91 38081.7 -7.41471 
120 1 76.7227 1.67741 7.51736 5.9768 -6895.22 1738.97 11247 179974 36408.7 39820.3 -7.41617 
121 1 78.1421 1.65984 7.51152 5.98106 -4158.29 -1384.06 -12672 132540 -12613.3 30075.3 -7.41484 
122 1 78.8783 2.87497 7.51215 5.9952 -12055.6 4763.88 19195.9 132931 37423.4 34161.3 -7.41655 
123 1 80.2977 2.85418 7.5073 6.0009 -6234.34 2030.4 -19390 90411.4 -3552.61 19775.1 -7.41424 
124 1 80.9815 1.61025 7.50272 6.00686 -15885.8 5587.9 9802.41 105834 26825.5 19885.4 -7.41574 
211 1 73.9324 4.17668 7.53162 5.94959 29142.2 -27385.4 -31708.4 193633 -84.4345 41383.7 -7.41446 
212 1 74.6681 5.39252 7.5332 5.96595 20456.9 -24797.7 41866.7 186359 57140.9 50018 -7.41894 
213 1 76.0878 5.3783 7.52859 5.96662 31312.5 -26798.6 -38634.5 138997 7635.57 38142.2 -7.41415 
214 1 76.7741 4.13602 7.52326 5.98083 645.103 -6008.57 29867.9 162071 48638.2 44942.3 -7.41761 
215 1 78.1936 4.11834 7.51785 5.98333 8972.35 -6957.06 -28026 114862 3289.6 31167.3 -7.41425 
216 1 78.929 5.33387 7.52012 6.00048 -7712.16 -2624.15 36132 114215 45498.8 41448 -7.4179 
217 1 80.3484 5.31291 7.51475 6.00369 3381.91 -2387.26 -33398 70632.9 8244.23 22816.1 -7.41378 
218 1 81.0332 4.06941 7.50927 6.01182 -19170.7 9154.09 25929.6 93206.8 34625.4 27255.2 -7.41694 
305 1 73.9794 6.63336 7.53693 5.95414 56547.3 -52550.5 -51704 158032 8041.44 39475.3 -7.41382 
306 1 74.7143 7.84946 7.53989 5.97133 41553.7 -53596 61923.2 154908 58036.5 52212.8 -7.42065 
307 1 76.1341 7.83507 7.53599 5.97013 56711.3 -51441 -57237.2 107958 12767.9 36785.3 -7.41365 
308 1 76.8229 6.59411 7.5312 5.9858 14131.1 -25528.5 48251.2 136556 54229.5 50071.8 -7.41918 
309 1 78.2425 6.57634 7.52598 5.98574 27188.6 -22092.7 -43818 89089.4 12683.6 32796.7 -7.41385 
310 1 78.9769 7.79225 7.5286 6.00546 5035.81 -23036.7 51524.8 91802 47729.3 48686.8 -7.41922 
311 1 80.3965 7.77119 7.52246 6.00509 20136.8 -17624.7 -46428.6 46651.8 14932.8 26446.6 -7.41353 
312 1 81.083 6.52859 7.51688 6.0171 -15184.3 639.853 39825.2 73685 38217.3 37166.7 -7.41809 
399 1 74.0228 9.08876 7.54283 5.9592 86506.9 -82417.3 -72573.7 123834 9138.48 35221.5 -7.41318 
402 1 76.8683 9.05117 7.53935 5.9911 35063 -55277.2 65568.8 111175 52898.1 53307.7 -7.42062 
403 1 78.2881 9.03339 7.5341 5.98752 51619 -46936.5 -59353.2 63372.5 16201.9 33024.9 -7.41352 
406 1 81.1302 8.98721 7.52407 6.02314 -1622.16 -21218.4 50904.2 53398.7 37421.9 47029.9 -7.41906 
40 1 83.0845 0.343186 7.49699 6.0149 -14213.6 -846.423 1474.19 86643.5 19269.2 6685.1 -7.41509 
41 1 84.5038 0.318968 7.49577 6.01902 -13819.2 -4548.38 -2420.95 60390.2 -14292.6 1948.31 -7.41476 
42 1 87.3431 0.265005 7.494 6.0195 -15585.2 -8436.96 1979.38 78227.2 15471.1 1501.2 -7.41498 
43 1 88.7624 0.240342 7.4919 6.01779 -14863.9 -13149.7 -79.506 56665.7 -10371.9 12532.3 -7.41472 
125 1 82.4008 1.58722 7.49963 6.01425 -12716.1 586.449 -11148.5 71350.4 -10218.7 8190.33 -7.41436 
126 1 83.1366 2.80213 7.50123 6.01752 -20037.9 8279.83 17197.6 79579.9 25283.8 12051.5 -7.41625 
127 1 84.5559 2.77758 7.49894 6.0237 -13177.5 -3296.43 -16739.9 52578.8 -5598.66 919.288 -7.41378 
128 1 85.2399 1.53364 7.49671 6.01895 -15993.5 -498.872 9248.18 75936.8 19368.2 2177.87 -7.41565 