ITEM: TIMESTEP
357
ITEM: NUMBER OF ATOMS
26936
ITEM: BOX BOUNDS pp pp pp
0.0000000000000000e+00 1.4251150300000000e+02
0.0000000000000000e+00 2.4683716400000000e+02
0.0000000000000000e+00 1.5000000000000000e+01
ITEM: ATOMS id type x y z c_csym c_2[1] c_2[2] c_2[3] c_2[4] c_2[5] c_2[6] c_3 
229 1 0.876976 8.57936 2.90996 6.01358 -171878 -144062 -2477.44 -24378.9 15582.1 -3304.4 -7.41525 
230 1 0.145329 7.36513 2.90622 6.02133 -151395 -165371 2348.28 -17726.3 19952.2 -1289.88 -7.41543 
231 1 0.830497 6.12387 2.903 6.01851 -168270 -148224 -666.458 -13200.5 12542.1 -2994.83 -7.4151 
232 1 0.0979686 4.91011 2.9001 6.02401 -153392 -163543 981.062 -8084.55 13284 -869.743 -7.41511 
233 1 0.782453 3.66852 2.89792 6.02267 -164498 -152501 164.503 -5217.77 8290.08 -2592.76 -7.41497 
234 1 0.0493221 2.45508 2.89614 6.02682 -155740 -161254 446.773 -2048.44 6506.48 -424.985 -7.41492 
235 1 0.733418 1.2133 2.89523 6.0272 -160462 -156571 367.481 -1055.03 2930.53 -2089.81 -7.41488 
236 1 -5.36583e-07 1.09361e-05 2.89477 6.02951 -158396 -158497 364.521 36.9225 -1.72773 1.42668 -7.41486 
431 1 2.29444 8.55111 2.91073 6.01581 -162672 -154306 2789.5 -19785.4 22582.6 -4241.69 -7.41564 
432 1 2.97963 7.30979 2.90773 6.01616 -180430 -136170 -552.165 -17840.2 13964.8 -9709.51 -7.41529 
433 1 2.24795 6.09553 2.90383 6.01918 -161109 -155753 1087.24 -8519.45 16069 -4676.13 -7.41526 
434 1 2.93246 4.8539 2.90177 6.01989 -173286 -143445 438.877 -8241.97 10407.2 -9057.43 -7.41513 
435 1 2.19989 3.64012 2.8988 6.02235 -159922 -156973 370.591 -483.55 9290.95 -5003.83 -7.41502 
436 1 2.88402 2.39833 2.89792 6.02436 -165914 -150957 611.506 -2195.78 5686.75 -8200.82 -7.415 
437 1 2.15086 1.18487 2.89614 6.02507 -158887 -157937 297.256 3594.4 2593.22 -5245.93 -7.41491 
632 1 5.12763 8.49685 2.91424 6.01322 -194756 -121705 623.363 -20347.9 15208.3 -16298.8 -7.41561 
633 1 4.39703 7.28192 2.90961 6.01201 -171851 -144931 315.494 -6893.07 18124.2 -7505.45 -7.41543 
634 1 5.0816 6.04027 2.90775 6.0174 -184912 -131914 1573.33 -9087.3 12420.4 -15489.3 -7.41543 
635 1 4.34987 4.82596 2.90381 6.01681 -167236 -149551 -357.493 2954.18 11471 -8632.32 -7.41516 
636 1 5.03405 3.58417 2.90302 6.02152 -174437 -142449 1512.25 -1177.8 8458.23 -14391 -7.41525 
637 1 4.30144 2.37035 2.90008 6.02054 -162709 -154065 -194.775 9092.31 4744.15 -9599.18 -7.41503 
638 1 4.98553 1.12857 2.90051 6.02227 -163521 -153219 816.544 2772.37 3414.91 -12993.6 -7.41511 
833 1 6.54498 8.46977 2.91691 6.00438 -184661 -131430 -1636.87 -3662.98 19442.6 -9342.13 -7.41559 
834 1 7.22965 7.2281 2.9153 6.01226 -198324 -118049 3851.45 -7863.23 14246.7 -21585.9 -7.41587 
835 1 6.49897 6.01312 2.91069 6.01019 -177058 -138935 -2091.27 8163.05 12992.2 -11216.9 -7.41531 
836 1 7.18324 4.77133 2.91001 6.01793 -185369 -131201 3402.67 1821.67 11120.8 -20336.8 -7.41565 
837 1 6.45144 3.55698 2.90618 6.01547 -169477 -146763 -1507.66 16336.6 6352.69 -12895.7 -7.41517 
838 1 7.1356 2.31522 2.9066 6.01939 -171724 -144924 2088.72 7728.71 6857.45 -18723.4 -7.41543 
839 1 6.40296 1.10135 2.90381 6.0182 -161784 -154680 -265.236 20314.7 -129.676 -14361.8 -7.41516 
1034 1 9.37642 8.41778 2.92386 6.00517 -213375 -103119 7426.19 -4929.6 15831.9 -27112.2 -7.41643 
1035 1 8.64697 7.20201 2.91885 6.00306 -188886 -126326 -5061.59 14564.9 13879.1 -12805.5 -7.41543 
1036 1 9.33137 5.96026 2.91831 6.01194 -198323 -118207 6501.51 6601.4 13586.7 -25786.8 -7.41617 
1037 1 8.60059 4.74522 2.91388 6.01025 -178600 -136744 -3939.17 24844.4 7400.51 -15116.2 -7.4153 
1038 1 9.28487 3.50351 2.91428 6.01667 -182281 -134079 4470.75 14478.6 10183 -24048.1 -7.41589 
1039 1 8.553 2.2891 2.91069 6.01478 -168149 -147653 -1917.19 31085.6 957.996 -17193.2 -7.41531 
1040 1 9.23746 1.04757 2.91215 6.01167 -165714 -150667 1755.52 18285.9 5695.17 -21903.8 -7.41563 
13499 2 0.540457 8.60652 6.48999 6.01792 -146279 -170352 3404.59 24427.9 23175.6 537.986 -7.41565 
13500 2 0.586938 6.15169 6.49698 6.02153 -149244 -167394 1511.53 13229.1 16695.2 -129.355 -7.41525 
13501 2 0.634993 3.69679 6.50208 6.02437 -152614 -164019 610.95 5202.06 9946.41 -822.907 -7.415 
13502 2 0.684037 1.2418 6.50477 6.0273 -156416 -160378 367.808 1075.03 3272.5 -1490.52 -7.41488 
13503 2 2.17396e-06 -2.29487e-06 6.50523 6.02953 -158430 -158497 364.667 -39.3817 1.24717 0.780396 -7.41487 
13697 2 1.95801 8.63482 6.48931 6.01009 -155472 -160508 -2090.78 20572.2 16209.8 -5638.91 -7.41531 
13698 2 2.69021 7.42092 6.49225 6.01736 -136968 -179433 1574.8 18442 19626.7 -3011.97 -7.41543 
13699 2 2.00445 6.18007 6.49619 6.01683 -156362 -160150 -358.227 9168.63 13210.6 -5614.61 -7.41516 
13700 2 2.73736 4.96653 6.49823 6.0199 -143664 -173011 439.449 8744.13 13049.5 -4483.61 -7.41513 
13701 2 2.05248 3.72521 6.50121 6.02235 -157107 -159608 370.834 921.066 8980.73 -5542.47 -7.41502 
13702 2 2.7858 2.51188 6.50208 6.02267 -150842 -165953 165.873 2491.77 6389.76 -5880.99 -7.41497 
13703 2 2.1015 1.27024 6.50386 6.02685 -157913 -158829 447.322 -3462.47 3623.3 -5421.75 -7.41492 
13704 2 2.83491 0.0569312 6.50341 6.02501 -158277 -158446 370.611 239.365 16.6741 -7136.59 -7.41493 
13898 2 4.79466 8.68907 6.48576 6.01324 -122058 -193999 624.423 21495.9 21719.5 -5020.63 -7.41561 
13899 2 4.1078 7.44889 6.49039 6.01198 -145336 -170962 315.438 8259.54 15560.7 -11940.8 -7.41543 
13900 2 4.84064 6.23532 6.49227 6.01612 -131556 -184771 -551.072 10206.8 15392.9 -7238.13 -7.41529 
13901 2 4.1549 4.99453 6.49618 6.01917 -149582 -167071 1087.7 -1989.32 12084.1 -11574.9 -7.41526 
13902 2 4.88817 3.78116 6.497 6.01847 -141698 -174648 -664.263 1991.34 8865.24 -9363.12 -7.4151 
13903 2 4.20329 2.53988 6.49991 6.02405 -153852 -162828 982.526 -8600.56 7395.05 -11066.1 -7.41511 
13904 2 4.93669 1.32654 6.49949 6.01991 -152414 -164006 -64.3975 -2473.05 2472.12 -11304.7 -7.41505 
13905 2 4.25236 0.0849325 6.50121 6.02236 -158185 -158491 403.313 -11004 1676.71 -10409.5 -7.41501 
14099 2 6.21235 8.71633 6.48307 6.00768 -131820 -184648 2125.67 5760.78 17589.9 -18018.5 -7.41584 
14100 2 6.9451 7.5027 6.48476 6.01316 -116889 -198801 -2670.02 9870.01 16980.1 -9057.3 -7.41543 
14101 2 6.25825 6.26258 6.48927 6.01578 -139004 -177605 2787.63 -6305.75 14963.2 -17434 -7.41564 
14102 2 6.99146 5.04915 6.49004 6.01358 -129783 -186036 -2477.42 -223.056 10654.7 -11841 -7.41524 
14103 2 6.30572 3.80841 6.49378 6.02131 -146366 -170187 2348.98 -15062.5 11092.6 -16630.9 -7.41543 
14104 2 7.03907 2.59501 6.49343 6.01437 -143571 -172610 -1332.18 -6853.58 4341.11 -14432.6 -7.4152 
14105 2 6.35417 1.35378 6.49618 6.01958 -153989 -162518 1180.54 -19855.8 6064.24 -15607.3 -7.41526 
14106 2 7.08733 0.140227 6.49459 6.01593 -157734 -158860 348.638 -9466.21 -1611.11 -16746.5 -7.41527 
14300 2 9.0509 8.76829 6.47631 6.00937 -100765 -214297 -6089.47 7835.03 17873.9 -10023.8 -7.41552 
14301 2 8.3628 7.52896 6.48108 6.01292 -126095 -190697 5697.32 -11720.6 17474 -22899.9 -7.41616 
14302 2 9.09588 6.31543 6.48179 6.0086 -115887 -199506 -5508.06 -3942.39 11789.9 -13348.7 -7.41536 
14303 2 8.40907 5.07536 6.48605 6.01624 -136355 -180418 4826.06 -22578.2 14522.1 -21875.8 -7.4159 
14304 2 9.14234 3.86187 6.48578 6.00765 -132059 -183728 -3728.97 -12676.4 5612.95 -16495.6 -7.41533 
14305 2 8.4566 2.62118 6.48926 6.01607 -146987 -169591 2964.56 -29839.8 10337.9 -20580.3 -7.41564 
14306 2 9.18973 1.40755 6.48787 6.00869 -148877 -167247 -1148.88 -17655.2 -328.549 -19371.2 -7.41543 
14307 2 8.50479 0.166362 6.49039 6.01578 -157669 -158658 550.344 -32783.8 5078.38 -19018.1 -7.41543 
1235 1 10.7937 8.39298 2.92771 5.99606 -202096 -111829 -9354.01 22056.1 14205.9 -13534.7 -7.41549 
1236 1 11.4783 7.15128 2.92733 6.00538 -212330 -104066 10887.3 12728.6 15796.3 -30552.9 -7.41682 
1237 1 10.7487 5.93546 2.92255 6.00378 -189771 -124882 -7651.75 34366.1 7934.22 -16357.9 -7.41539 
1238 1 11.4331 4.69381 2.92295 6.01204 -194846 -121899 8117.02 22652.6 13296.9 -28767.5 -7.41647 
1239 1 10.7022 3.47873 2.91883 6.01047 -176905 -138214 -4795.12 42658.9 1596.63 -18949.9 -7.41543 
1240 1 11.3868 2.23727 2.92014 6.00799 -176114 -140231 4391.27 28528.4 9647.33 -26550.2 -7.41612 
1241 1 10.6549 1.0228 2.9169 6.01243 -163834 -151786 -1226.08 46610.9 -4461.44 -21286.1 -7.41558 
1436 1 13.6239 8.34466 2.93654 5.99871 -226528 -89386 16498.5 19784 17699.9 -34499 -7.41755 
1437 1 12.8955 7.12797 2.93163 5.99755 -201781 -111416 -12658.9 44240.7 8037.7 -16779.6 -7.41541 
1438 1 13.5802 5.88643 2.93203 6.00598 -207990 -108410 13042.1 31732.9 16123.2 -32737.5 -7.41716 
1439 1 12.8504 4.67057 2.92763 6.00633 -187377 -126739 -8993.9 54793.4 1848.02 -19763.3 -7.41549 
1440 1 13.5352 3.4292 2.92879 6.00492 -188083 -128247 8351.47 39757.7 13357.4 -30526.1 -7.41672 
1441 1 12.8042 2.21406 2.92511 6.00955 -172347 -142646 -4332.53 61033.7 -4177.56 -22504.6 -7.41569 
1442 1 13.4894 0.97302 2.9271 5.9991 -167392 -148750 2906.92 43451.2 9464.55 -27896 -7.4163 
1637 1 15.0411 8.32293 2.94065 5.9916 -214198 -97490.4 -18839.7 54023.7 7803.52 -16549.8 -7.41535 
1638 1 15.7261 7.08152 2.94103 5.99988 -221620 -94827.9 19120.8 41270.5 18599 -35860.7 -7.41793 
1639 1 14.9975 5.86482 2.93653 6.00067 -198562 -114275 -14461.8 66771.7 1804.55 -19800.5 -7.41547 
1640 1 15.6825 4.62359 2.93755 6.00046 -200999 -115457 13587.6 51488.8 16736 -33724.7 -7.41742 
1641 1 14.9526 3.40769 2.93365 6.00743 -182246 -131577 -8800.19 75298.9 -4144.32 -22825.2 -7.41572 
1642 1 15.6379 2.16676 2.93538 5.99532 -179169 -136828 7003.21 57401.3 13670.2 -31168.1 -7.4169 
1643 1 14.9068 0.951549 2.93223 6.00291 -165538 -149303 -2360.99 79102.1 -9698.92 -25611.2 -7.41609 
1838 1 17.8706 8.27918 2.94955 5.99403 -234472 -81613.7 26116.8 50677.4 20675.8 -38083.5 -7.41874 
1839 1 17.1433 7.06161 2.9451 5.99548 -210198 -101430 -21027.9 78191.4 1551.71 -19225 -7.41538 
1840 1 17.8287 5.82055 2.94594 5.996 -213864 -102590 19920.3 63142.8 19712.2 -36081.5 -7.41819 
1841 1 17.0998 4.60384 2.94202 6.00469 -193082 -119726 -14523.7 89043.6 -4274.57 -22418 -7.41568 
1842 1 17.7854 3.36305 2.94348 5.99237 -191712 -124416 12381 71399.2 17497.8 -33660.1 -7.41758 
1843 1 17.0553 2.14711 2.94021 5.9998 -175254 -138630 -6939.18 95269.4 -9835.45 -25391.3 -7.41609 
1844 1 17.7414 0.906712 2.94233 5.986 -168421 -146985 4029.51 74987.9 14102.5 -30862.8 -7.41697 
14501 2 10.4687 8.79333 6.47221 6.0087 -111755 -205213 9905.24 -17869.6 19521.2 -27810.6 -7.41679 
14502 2 11.2016 7.57967 6.47287 6.00247 -100512 -214027 -9845.69 -8892.94 12352.6 -14012.1 -7.41542 
14503 2 10.5136 6.34037 6.47731 6.01017 -124381 -192596 8564.66 -30845.4 17543.3 -26625.1 -7.41649 
14504 2 11.2467 5.12676 6.47714 6.00082 -118465 -196392 -7416.19 -19643.4 6346.55 -17587.6 -7.41542 
14505 2 10.5599 3.88673 6.48105 6.00966 -137359 -179178 5972.6 -40431.6 14305.6 -25133 -7.41615 
14506 2 11.293 2.673 6.47989 6.0011 -137442 -177746 -3909.94 -26866.7 458.671 -20916.2 -7.41556 
14507 2 10.6072 1.43235 6.48305 6.01117 -150599 -165383 2541.88 -45801.4 9872.21 -23351 -7.41584 
14508 2 11.3399 0.21833 6.48083 6.0035 -156837 -158922 202.087 -30008.8 -4978.47 -23920.9 -7.4158 
14702 2 13.3088 8.84165 6.46381 5.99651 -84305.6 -228592 -15434.8 -14528.5 12444.7 -13993.5 -7.4154 
14703 2 12.6194 7.60317 6.46814 6.00375 -110921 -205707 13573.8 -39251.6 20052.6 -30749.9 -7.41718 
14704 2 13.3524 6.3894 6.46807 5.99418 -103766 -209563 -12403.6 -27244.2 6642.21 -17864.5 -7.41544 
14705 2 12.6644 5.15011 6.47212 6.00262 -125823 -190314 10283.5 -50998.9 17817.6 -29123.5 -7.41679 
14706 2 13.3974 3.93625 6.47121 5.99367 -124516 -189695 -8020.85 -36791.1 840.958 -21517.6 -7.41562 
14707 2 12.7106 2.69625 6.47474 6.00358 -141351 -174498 5865.51 -58909.2 14317.1 -27196.9 -7.41638 
14708 2 13.4432 1.48212 6.47289 5.99529 -145994 -169332 -2740.36 -42407.3 -4635.95 -24878.9 -7.41592 
14709 2 12.7574 0.241534 6.4757 6.00672 -156976 -158653 807.498 -62399.6 9680.7 -24986.2 -7.416 
14903 2 14.7267 8.86361 6.45902 5.99732 -96721.8 -219463 19727.4 -47409.3 21979.6 -34154.9 -7.41795 
14904 2 15.4594 7.64963 6.45902 5.98787 -88537.6 -222983 -18570 -35168 6600.58 -17488.8 -7.41538 
14905 2 14.7701 6.41114 6.46296 5.99551 -113426 -202449 15834.2 -61273.6 20763.5 -32445.9 -7.41751 
14906 2 15.5029 5.1971 6.4623 5.9866 -110635 -202251 -13424 -46944 923.758 -21343 -7.41561 
14907 2 14.815 3.95782 6.46594 5.99578 -130778 -185122 10530 -71663.3 18256.4 -30433.3 -7.41703 
14908 2 15.5475 2.74356 6.46449 5.98735 -133618 -180833 -7088.21 -54912.3 -4561.69 -24940.5 -7.41595 
14909 2 14.8607 1.50361 6.46761 5.99825 -148274 -167444 4280.88 -77743.7 14503.1 -28150.6 -7.41653 
14910 2 15.5927 0.288964 6.46531 5.9902 -156561 -159001 -85.3695 -58488 -9530.74 -28229.7 -7.41639 
15104 2 17.5678 8.90735 6.4503 5.98222 -73312 -236090 -25690.1 -42931.9 6309.51 -16614.6 -7.41525 
15105 2 16.8773 7.66968 6.45392 5.98862 -100346 -214967 22434.5 -70882.8 23068.2 -35028.3 -7.4183 
15106 2 17.6098 6.45543 6.45347 5.98006 -96157 -214650 -19944.1 -56797.6 803.554 -20555.4 -7.41551 
15107 2 16.9206 5.21693 6.45704 5.98808 -119060 -196217 16407.3 -83618.1 21575.7 -32978.7 -7.41776 
15108 2 17.653 4.00249 6.45598 5.97988 -120034 -192496 -12726 -67249.1 -4646.66 -24277.9 -7.41589 
15109 2 16.9651 2.76325 6.45923 5.98972 -138091 -177151 9134.5 -92295.4 18774.3 -30675.3 -7.41717 
15110 2 17.6971 1.54847 6.45745 5.98179 -144433 -169857 -4541.74 -73483.4 -9723.02 -27726.1 -7.41639 
15111 2 17.0102 0.308591 6.4602 5.99366 -156833 -157862 1151.23 -96324 14778.2 -28144.2 -7.4166 
2039 1 19.2877 8.26097 2.95298 5.99068 -221111 -88384 -28422.7 88626.8 1167.7 -18191.2 -7.41522 
2040 1 19.9735 7.02011 2.95358 5.992 -226274 -89980.1 27084.6 74231.6 22223.5 -37574 -7.41898 
2041 1 19.2459 5.80256 2.94977 6.00042 -203814 -107579 -21282.4 101724 -4487.8 -21448.8 -7.41555 
2042 1 19.9318 4.56195 2.95095 5.98805 -204106 -112012 18821.7 84828.5 20862.1 -35337.1 -7.41832 
2043 1 19.2027 3.34523 2.94774 5.99738 -185634 -127281 -12767.8 110391 -10008.9 -24503 -7.41601 
2044 1 19.8891 2.10499 2.94955 5.98273 -180876 -134866 9445.15 90829.6 18242.2 -32731.2 -7.41762 
2045 1 19.1588 0.888992 2.94699 5.98996 -166685 -147338 -3439.39 113978 -15050.6 -27356.8 -7.41657 
2240 1 22.1172 8.22226 2.96019 5.98777 -237747 -78191.1 34762.2 84396.5 24231.9 -38223.4 -7.41979 
2241 1 21.3907 7.00386 2.95658 5.99582 -214267 -95600.3 -28775.2 113022 -4715.47 -20073.4 -7.41536 
2242 1 22.0771 5.76347 2.95743 5.98393 -216249 -99985.7 26032 97290.3 23697.3 -36208.7 -7.41908 
2243 1 21.3491 4.54595 2.95442 5.99557 -195875 -115632 -19585 124053 -10142.1 -23116.8 -7.41584 
2244 1 22.0358 3.30588 2.9559 5.9803 -193166 -122572 15907.8 105747 21863.4 -33830.7 -7.41831 
2245 1 21.3064 2.08914 2.95351 5.98705 -176906 -136024 -9280.54 130173 -15235.7 -25973.2 -7.41645 
2246 1 21.9937 0.849496 2.95563 5.97392 -169163 -145607 4944.54 109202 18819.3 -31131.7 -7.41753 
2441 1 23.5343 8.20767 2.96218 5.99138 -223838 -84203.2 -36665.8 122558 -4910.14 -18432.3 -7.41511 
2442 1 24.2211 6.96753 2.96263 5.98055 -227316 -88795.4 33690.7 108249 25970.8 -36330.1 -7.41985 
2443 1 23.4942 5.7492 2.95991 5.99252 -205939 -104294 -27065.1 135842 -10189.4 -21396.2 -7.41562 
2444 1 24.1813 4.50935 2.96105 5.97665 -204988 -110833 23104.6 119124 24908.5 -34204.1 -7.41903 
2445 1 23.453 3.29184 2.95897 5.98495 -187033 -124736 -16076.7 144494 -15279.4 -24178.6 -7.41625 
2446 1 24.1406 2.05236 2.96081 5.97146 -181625 -133483 11394.9 125150 22571.6 -31763.8 -7.41818 
2447 1 23.4111 0.835575 2.95932 5.97726 -167550 -145366 -4280.67 147868 -19842.7 -26807.1 -7.41699 
2642 1 26.364 8.17401 2.96642 5.97792 -236846 -78557.8 41486.5 117520 27677 -35792.9 -7.4206 
2643 1 25.6382 6.95489 2.964 5.98966 -214983 -93481.1 -34870.5 145546 -10125.8 -19486.3 -7.41534 
2644 1 26.3258 5.71528 2.96476 5.9733 -215932 -99876.4 30708.8 130609 27350.3 -33928.3 -7.41975 
2645 1 25.5985 4.497 2.96306 5.98363 -196681 -113678 -23489.4 156527 -15157.4 -22144.1 -7.41599 
2646 1 26.2864 3.25772 2.96463 5.96989 -193348 -121699 18558.9 139157 25720.6 -31758.2 -7.41885 
2647 1 25.5579 2.0402 2.96356 5.97499 -177752 -134090 -11024.2 162593 -19817.5 -24648.2 -7.41674 
2648 1 26.2463 0.80134 2.96586 5.9636 -169816 -144118 5581.13 142534 22902.8 -29312.5 -7.41794 
2843 1 27.7811 8.16287 2.96661 5.98742 -222664 -83546.7 -42691.7 153043 -9945.31 -17503.3 -7.41504 
2844 1 28.4691 6.92353 2.96692 5.97079 -225431 -89880.4 38414.8 140026 29194.2 -33105.2 -7.42046 
2845 1 27.7429 5.7045 2.96561 5.98202 -205567 -103209 -31185.8 166255 -14866.7 -20010.7 -7.41568 
2846 1 28.4312 4.46544 2.96688 5.96696 -204338 -110859 26105.7 150910 28250.3 -31205.7 -7.41953 
2847 1 27.7036 3.2472 2.96631 5.97358 -187353 -123332 -18357.3 174780 -19565.5 -22356.6 -7.41644 
2848 1 28.3923 2.0085 2.96846 5.96195 -181806 -132456 12719 156987 26069.5 -29038.1 -7.41856 
2849 1 27.6636 0.790967 2.96844 5.96592 -168362 -143660 -4766.9 178124 -23714 -24584.5 -7.4173 
15305 2 18.9859 8.92571 6.44529 5.98215 -87138.5 -227040 29808.3 -79446.9 24693.9 -36830.6 -7.41913 
15306 2 19.718 7.7112 6.44495 5.97432 -81860.6 -226413 -27312 -66147.4 562.975 -19303.8 -7.41533 
15307 2 19.0276 6.47349 6.44829 5.98076 -106836 -207418 23259.3 -94430.8 24199.9 -34783.5 -7.41854 
15308 2 19.7598 5.25884 6.44756 5.97316 -106432 -203962 -19428.4 -79014.2 -4790.93 -23048.6 -7.41575 
15309 2 19.0707 4.02033 6.45081 5.98151 -126956 -187463 15181.5 -105681 22381 -32499.9 -7.41789 
15310 2 19.8026 2.80539 6.44956 5.97416 -131695 -181027 -10290.4 -87808.3 -9922.34 -26559.5 -7.41629 
15311 2 19.1146 1.5662 6.45248 5.98457 -147119 -167395 6085.03 -112375 19271.1 -30019.3 -7.41722 
15312 2 19.8459 0.350801 6.45059 5.97734 -156694 -157908 -462.994 -91866.5 -14509.7 -29796.2 -7.41693 
15506 2 21.8277 8.96444 6.43686 5.96957 -68484.3 -236938 -35208 -74619.5 261.388 -17725.1 -7.4151 
15507 2 21.136 7.72751 6.43984 5.97414 -94822.2 -218245 30780.9 -103759 26092.5 -35839.4 -7.41936 
15508 2 21.8678 6.51261 6.43935 5.96754 -92969.5 -214857 -26898 -89575.3 -4929.88 -21401.8 -7.41554 
15509 2 21.1775 5.27486 6.4425 5.97395 -115729 -197925 22150.7 -117377 25249.7 -33605.2 -7.41865 
15510 2 21.9092 4.05971 6.44171 5.96746 -118582 -192052 -17065 -100850 -10044.2 -24888.8 -7.41611 
15511 2 21.2201 2.82124 6.44473 5.97604 -136804 -177300 12211.8 -126701 23066.5 -31204.7 -7.4179 
15512 2 21.9513 1.6057 6.4435 5.9696 -144258 -168848 -6251.47 -107583 -14780.1 -28143 -7.41678 
15513 2 21.2633 0.366591 6.44615 5.98045 -157311 -156674 1528.69 -131076 19649.4 -28662.3 -7.41715 
15707 2 23.2457 8.97908 6.43176 5.96844 -83491.4 -228228 38655.2 -111431 27266.2 -36185 -7.42017 
15708 2 23.9772 7.76388 6.43136 5.96291 -80245.8 -224588 -34806.5 -98706.9 -5034.14 -19475.6 -7.41527 
15709 2 23.2857 6.52688 6.43432 5.96727 -104519 -207882 29724 -127071 27355.6 -34018.6 -7.41943 
15710 2 24.0171 5.31151 6.43389 5.96185 -105701 -202341 -24547.7 -112242 -10050 -22865 -7.41585 
15711 2 23.3269 4.07375 6.43697 5.9683 -126061 -187157 19230 -138881 26106.5 -31715.8 -7.41862 
15712 2 24.0579 2.85804 6.43633 5.96287 -131651 -179430 -13039.3 -121537 -14850.4 -26066 -7.41655 
15713 2 23.3688 1.61962 6.43923 5.97164 -147259 -166216 7696.37 -145976 23544.9 -29311.9 -7.41779 
15714 2 24.0993 0.40344 6.43823 5.96609 -157202 -156345 -855.527 -125943 -19128.8 -29041.3 -7.41734 
15908 2 26.0878 9.0128 6.42358 5.95933 -68784.8 -232984 -42837.2 -106284 -5096.8 -17400.2 -7.41497 
15909 2 25.3951 7.77652 6.42628 5.96158 -93966.7 -216959 37580.9 -134788 28727.9 -33809.3 -7.42021 
15910 2 26.1262 6.56088 6.42604 5.95736 -93665.2 -211596 -32411.1 -121924 -9935.11 -20626 -7.41555 
15911 2 25.4348 5.32383 6.42914 5.96155 -115553 -196559 26807.7 -148910 28384.2 -31613.3 -7.41937 
15912 2 26.1657 4.10792 6.42899 5.9573 -119376 -189391 -20495.6 -133630 -14705.6 -23714.7 -7.41625 
15913 2 25.4755 2.87018 6.43213 5.96376 -137127 -175798 14736.5 -158549 26699 -29353.2 -7.41848 
15914 2 26.2059 1.65387 6.43187 5.95935 -145056 -166812 -7635.85 -140679 -19131.1 -26621.1 -7.41706 
15915 2 25.5167 0.415521 6.43471 5.96828 -158043 -154855 1924.11 -163279 23767.9 -27037.8 -7.41759 
16109 2 27.5058 9.02393 6.41836 5.95699 -84555.2 -224980 45429.3 -140592 29435.8 -33078.2 -7.42097 
16110 2 28.2365 7.80799 6.41815 5.95403 -82733.6 -219416 -40354.1 -129615 -9725.35 -18302.4 -7.41522 
16111 2 27.544 6.57161 6.42117 5.95592 -105712 -204989 34625.8 -156612 29935.6 -30991.6 -7.42011 
16112 2 28.2746 5.35547 6.42137 5.95297 -107794 -198221 -28298.9 -143529 -14374.5 -21224.9 -7.41592 
16113 2 27.5833 4.1184 6.42472 5.95699 -127230 -184739 22307.1 -168626 29112.8 -28874 -7.41918 
16114 2 28.3136 2.90192 6.4251 5.9539 -133270 -176484 -15060.6 -153063 -18841 -24015.2 -7.41672 
16115 2 27.6234 1.66422 6.42838 5.96032 -148295 -164178 8986.28 -175991 26985.6 -26743.4 -7.41823 
16116 2 28.353 0.447279 6.42869 5.95691 -158135 -154420 -1194.76 -157699 -22841.3 -26631.3 -7.41761 
3044 1 30.6114 8.13393 2.96763 5.96904 -233311 -81192.6 45965.5 147305 30470.9 -31846.9 -7.42113 
3045 1 29.8862 6.91418 2.96661 5.97983 -213126 -93726.8 -38872.1 173576 -14425.4 -17882.1 -7.41535 
3046 1 30.5749 5.67537 2.96755 5.9645 -213816 -101064 33738.4 160405 30178.7 -30207.6 -7.42019 
3047 1 29.8484 4.45642 2.96744 5.97297 -196151 -113168 -25954.3 184467 -19106.9 -20063.7 -7.4161 
3048 1 30.5374 3.21791 2.96944 5.96036 -192741 -121687 20224.5 168909 28630.7 -28313 -7.41919 
3049 1 29.8096 1.99969 2.97002 5.96449 -178146 -132950 -12034 190387 -23394.3 -22111.6 -7.41695 
3050 1 30.4992 0.761585 2.97292 5.95497 -170339 -142818 5931.98 172277 25968.7 -26184.3 -7.4182 
3245 1 32.0285 8.12586 2.96624 5.97831 -219191 -85330.7 -46311.2 178510 -13862.4 -15826.7 -7.41502 
3246 1 32.7177 6.88731 2.96679 5.96289 -221777 -92435.4 41209.4 167499 31541.3 -28862.3 -7.42082 
3247 1 31.9921 5.66768 2.96702 5.97296 -203565 -103860 -33539.1 191587 -18476 -17852.9 -7.41574 
3248 1 32.6815 4.42939 2.96884 5.95919 -202361 -111820 27807.7 178337 30609.5 -27226.4 -7.41982 
3249 1 31.9546 3.21051 2.96995 5.96389 -186811 -122803 -19560.7 199952 -22842.5 -19731.7 -7.41658 
3250 1 32.6445 1.97256 2.97287 5.95332 -181450 -131867 13417 184233 28524.2 -25367.4 -7.41879 
3251 1 31.9165 0.754337 2.97456 5.9565 -169024 -142139 -4895.37 203160 -26646.4 -21509.7 -7.41751 
3446 1 34.8594 8.10107 2.96492 5.96204 -228168 -85207.4 48331.2 172341 32393.3 -27258.8 -7.42143 
3447 1 34.1348 6.88081 2.9653 5.97155 -209671 -95739.4 -40891.5 196228 -17714.2 -15766.5 -7.41538 
3448 1 34.8247 5.64275 2.96688 5.95766 -210495 -103357 35232.3 185184 32047.6 -25861.1 -7.42042 
3449 1 34.0987 4.42323 2.96837 5.964 -194415 -113854 -27086.1 206890 -22100.8 -17498 -7.41619 
3450 1 34.7888 3.18546 2.97127 5.95265 -191378 -122182 20972.6 193565 30536.5 -24254.9 -7.41938 
3451 1 34.0617 1.96662 2.97356 5.95596 -177956 -132173 -12385.1 212608 -26076.9 -19109.6 -7.4171 
3452 1 34.7523 0.729204 2.97746 5.94755 -170827 -141379 6010.62 196884 28016.4 -22456.7 -7.41834 
3647 1 36.2765 8.0956 2.96268 5.97079 -214246 -88633.6 -47852.2 198712 -16867.2 -13821.2 -7.41504 
3648 1 36.9669 6.8578 2.96399 5.95686 -217008 -95927.7 42328.3 189810 33000.8 -24287.6 -7.421 
3649 1 36.2418 5.63768 2.96561 5.96463 -200487 -105651 -34406.2 211358 -21221.2 -15430.8 -7.41581 
3650 1 36.9323 4.4001 2.96842 5.95235 -199652 -113524 28381.1 200321 32053.7 -22913.2 -7.41995 
3651 1 36.206 3.18067 2.97109 5.95608 -185635 -123103 -19890.1 219418 -25302.3 -16908.8 -7.41668 
3652 1 36.8969 1.94339 2.97512 5.9468 -180788 -131543 13556 206086 30063.1 -21361.1 -7.4189 
3653 1 36.1696 0.724569 2.97846 5.9492 -169646 -140727 -4770.69 222556 -28817 -18292.8 -7.41765 
16310 2 30.3479 9.05302 6.41025 5.95173 -73078.2 -225805 -48121 -135328 -9462.82 -16007.6 -7.41489 
16311 2 29.6544 7.81729 6.41308 5.95146 -96812.2 -212315 42406.7 -162015 30835.7 -29963.8 -7.42082 
16312 2 30.3846 6.60088 6.41344 5.94976 -97276.2 -205780 -36162.8 -151205 -13915.1 -18717.9 -7.41556 
16313 2 29.6923 5.36444 6.41692 5.95143 -117905 -192735 30093.3 -176225 30831.3 -27983.8 -7.41988 
16314 2 30.4223 4.14777 6.41779 5.94967 -122044 -185062 -22814 -163077 -18320.8 -21348.7 -7.41635 
16315 2 29.7311 2.9107 6.4215 5.95356 -138925 -172884 16558.7 -186012 29511.3 -26025.6 -7.41889 
16316 2 30.4607 1.69363 6.42259 5.95152 -146746 -164045 -8599.17 -170282 -22434.7 -23851.3 -7.41723 
16317 2 29.7704 0.456001 6.42608 5.95793 -159148 -152940 2328.35 -190900 26961.8 -24081.1 -7.4179 
16511 2 31.7659 9.06105 6.40496 5.94812 -89043.3 -218450 49924.7 -165429 31182.2 -28641.4 -7.4215 
16512 2 32.4957 7.84434 6.40531 5.94756 -88000.3 -211916 -43846.2 -156812 -13387.1 -16298.7 -7.4152 
16513 2 31.8024 6.6085 6.40876 5.94705 -109492 -199655 37826.3 -181487 31926.6 -26795.9 -7.42055 
16514 2 32.5321 5.3916 6.40995 5.94649 -111888 -192390 -30622.2 -170733 -17648.9 -18729.1 -7.41596 
16515 2 31.8399 4.15513 6.41398 5.94804 -129988 -180612 24328.6 -193499 31387.5 -24999.4 -7.41954 
16516 2 32.5693 2.9379 6.41571 5.94726 -135918 -172411 -16321.7 -180258 -21766.7 -21081.5 -7.41682 
16517 2 31.8781 1.70086 6.41981 5.95117 -150061 -161337 9914.87 -200870 29579.1 -23247.8 -7.41852 
16518 2 32.6069 0.483201 6.42172 5.94922 -159314 -152201 -1466.23 -184951 -25486.1 -23307.8 -7.41778 
16712 2 34.6078 9.08605 6.39721 5.94658 -80064.8 -216701 -51160.9 -160393 -12840.1 -14051.7 -7.41486 
16713 2 33.9135 7.85077 6.40042 5.94385 -102173 -205553 45291.6 -184566 32481.6 -25411.2 -7.4212 
16714 2 34.6429 6.63361 6.40176 5.9445 -102890 -198641 -38259.7 -176151 -16903.9 -16247.6 -7.41558 
16715 2 33.9498 5.3977 6.4059 5.94373 -122042 -187508 32035.2 -198620 32672.6 -23766.7 -7.42019 
16716 2 34.6789 4.18029 6.40809 5.94387 -126038 -179842 -24103 -187846 -20936.7 -18410.5 -7.41641 
16717 2 33.9868 2.94381 6.41267 5.94569 -141629 -169094 17681.2 -208272 31597.7 -22189.9 -7.41914 
16718 2 34.7155 1.72604 6.41534 5.94469 -148829 -160700 -9179.92 -194908 -24726.5 -20496 -7.41734 
16719 2 34.0243 0.489053 6.41984 5.94977 -160406 -150697 2708.6 -213049 29334 -20653.6 -7.4181 
16913 2 36.0257 9.09145 6.39221 5.94181 -95972.6 -209907 52340.9 -185508 32589 -23909.7 -7.42181 
16914 2 36.7546 7.87401 6.39353 5.94324 -95084.2 -203273 -45551.6 -179337 -16147.8 -13974.1 -7.41522 
16915 2 36.0606 6.63861 6.39753 5.9406 -115003 -193049 39482.6 -201385 33436.9 -22413.5 -7.42081 
16916 2 36.7895 5.42099 6.40001 5.94162 -117118 -186041 -31730.2 -193107 -20036.1 -15916.9 -7.41601 
16917 2 36.0965 4.18503 6.40482 5.94139 -133931 -175909 25381 -213268 33064.5 -20996.7 -7.41975 
16918 2 36.8251 2.96713 6.40807 5.94125 -139113 -168099 -16957.2 -202396 -23803.5 -17824.4 -7.4169 
16919 2 36.133 1.73066 6.41317 5.94424 -152199 -158340 10477.3 -220384 31480.9 -19638.1 -7.41869 
16920 2 36.861 0.512351 6.41672 5.94296 -160569 -149862 -1706.76 -206820 -27229.9 -19652.6 -7.41787 
3848 1 39.1083 8.07434 2.96067 5.95664 -221838 -89890.6 48987.8 192394 33527 -22571.2 -7.42154 
3849 1 38.384 6.85366 2.96214 5.96489 -205136 -98675.4 -41374.4 213647 -20251.2 -13524.8 -7.41544 
3850 1 39.0749 5.6163 2.9648 5.95246 -206347 -105973 35485 204882 33122 -21398.6 -7.42051 
3851 1 38.3495 4.39631 2.96758 5.95674 -191864 -115002 -27223.6 224008 -24378.4 -14901.3 -7.41628 
3852 1 39.0406 3.15919 2.97163 5.9467 -189420 -122795 20965.8 213017 31663.8 -20070.5 -7.41945 
3853 1 38.3141 1.93982 2.97536 5.9493 -177382 -131593 -12287.4 229522 -28079.2 -16167.4 -7.41721 
3854 1 39.0057 0.703009 2.98041 5.94209 -171088 -139953 5833.71 216210 29309.4 -18602.2 -7.41841 
4048 1 41.2488 9.2922 2.95748 5.95694 -224865 -85320.7 55156.1 193224 33689.3 -20775.5 -7.42204 
4049 1 40.5254 8.07102 2.95852 5.96474 -208241 -93017.1 -47902.1 214130 -19230.6 -11766.3 -7.4151 
4050 1 41.2168 6.83389 2.96098 5.95228 -211589 -99904.4 42190.6 207433 33795.7 -19766.4 -7.42104 
4051 1 40.4921 5.61338 2.96354 5.95783 -196648 -108085 -34247.7 226385 -23347.9 -13063.5 -7.41589 
4052 1 41.1836 4.37644 2.96752 5.94687 -196594 -115249 28100.4 217637 32859.9 -18633.9 -7.41999 
4053 1 40.4578 3.15654 2.97132 5.94994 -183929 -123529 -19662 234251 -27166.8 -14246.2 -7.41678 
4054 1 41.1496 1.91985 2.97646 5.94194 -180066 -131152 13252.7 223242 30996.1 -17381.7 -7.41894 
4055 1 40.423 0.700503 2.98107 5.94366 -170010 -139213 -4547.54 237202 -30419 -15338.4 -7.41775 
4249 1 42.6659 9.28957 2.95529 5.96504 -209668 -88659.5 -53954.4 212810 -18191.2 -10139.1 -7.41479 
4250 1 43.3578 8.05269 2.95751 5.95261 -214938 -95169.3 48457.7 208060 34126.2 -18072.7 -7.42154 
4251 1 42.6339 6.8317 2.95956 5.95926 -200053 -102448 -40881.3 226848 -22253.8 -11368.3 -7.41553 
4252 1 43.3258 5.59496 2.96339 5.94741 -202033 -109018 34881.1 220231 33696.1 -17097.6 -7.42051 
4253 1 42.6007 4.37458 2.9669 5.95103 -189083 -116565 -26767.4 236826 -26127.8 -12493.2 -7.41636 
4254 1 43.2928 3.13803 2.97201 5.94234 -187587 -123538 20430.6 228030 32325.4 -16034.1 -7.41946 
4255 1 42.5668 1.9182 2.97663 5.94425 -176803 -131124 -11970.4 242143 -29563.2 -13518.1 -7.41729 
4256 1 43.2592 0.681909 2.98254 5.93823 -171427 -138495 5461.66 231150 30158.5 -14890.8 -7.41843 
4450 1 45.4982 9.27252 2.95489 5.95338 -216756 -91771.3 54285.7 207126 34165.5 -16370.5 -7.42201 
4451 1 44.7749 8.05111 2.95618 5.95995 -201656 -98000.3 -47094 225543 -21124.3 -9796.18 -7.41519 
4452 1 45.4673 6.81458 2.95979 5.94821 -205803 -104169 41278.6 220874 34214.5 -15513.5 -7.42101 
4453 1 44.7429 5.59376 2.96271 5.95243 -192590 -111006 -33530.5 237455 -25001.2 -10871.3 -7.41598 
4454 1 45.4353 4.35737 2.96766 5.94278 -193198 -117304 27300 230806 33329.2 -14601.5 -7.41997 
4455 1 44.71 3.13709 2.97194 5.94527 -182238 -124247 -19160.6 245016 -28555.7 -11854.5 -7.41685 
4456 1 45.4026 1.90091 2.97781 5.9385 -179071 -130915 12680.8 236213 31614.4 -13639.4 -7.41894 
4457 1 44.6765 0.681115 2.98305 5.93963 -170374 -137778 -4325.5 247880 -31551.5 -12747.9 -7.41781 
4651 1 46.9153 9.27146 2.95385 5.96068 -201966 -95030 -52892.2 222830 -19981.7 -8340.13 -7.41489 
4653 1 46.8844 6.81393 2.95927 5.954 -194574 -106582 -39925.6 236421 -23817.6 -9362.54 -7.41562 
4655 1 46.8525 4.35704 2.96759 5.94655 -185850 -118686 -26053.6 246050 -27431.7 -10308.9 -7.41645 