ITEM: TIMESTEP
0
ITEM: NUMBER OF ATOMS
26936
ITEM: BOX BOUNDS pp pp pp
0.0000000000000000e+00 1.4251150300000000e+02
0.0000000000000000e+00 2.4683716400000000e+02
0.0000000000000000e+00 1.5000000000000000e+01
ITEM: ATOMS id type x y z c_csym c_2[1] c_2[2] c_2[3] c_2[4] c_2[5] c_2[6] c_3 
229 1 0.783 8.59 3 6.02406 -137386 -128341 -105839 10592.9 15375.3 -1742.26 -7.4129 
230 1 0.063 7.368 3 6.01988 -145174 -120098 -106245 827.666 15301.9 -169.341 -7.41301 
231 1 0.762 6.134 3 6.02366 -127851 -113420 -107493 -2254.94 11463.4 -1626.87 -7.41274 
232 1 0.042 4.912 3 6.02516 -145448 -121460 -108088 3916.8 10168.7 -115.487 -7.41265 
233 1 0.741 3.678 3 6.0239 -126261 -115132 -108692 2816.71 7150.78 -1562.48 -7.41268 
234 1 0.021 2.456 3 6.02705 -143512 -119239 -109129 4967.56 5046.44 -41.3426 -7.41305 
235 1 0.72 1.222 3 6.02411 -172444 -112831 -109370 3824.61 2488.24 -1475.86 -7.41334 
236 1 0 0 3 6.02774 -152985 -125564 -109464 13429.6 33.7279 16.8659 -7.41322 
431 1 2.201 8.577 3 6.02248 -135342 -151538 -104892 1376.6 17739.8 -3725.49 -7.41348 
432 1 2.899 7.343 3 6.02341 -143746 -141427 -106263 -2167.7 13487.9 -6422.93 -7.41362 
433 1 2.18 6.121 3 6.02248 -132695 -152886 -107072 -247.466 12624.8 -3926.59 -7.41345 
434 1 2.878 4.887 3 6.02366 -151709 -175324 -107802 -17897.2 9306.86 -6185.3 -7.41363 
435 1 2.159 3.666 3 6.01953 -134820 -152373 -108483 -33179.5 7526.99 -4040.28 -7.41314 
436 1 2.857 2.431 3 6.01835 -134238 -130708 -108650 -23853.4 4842.53 -5946.62 -7.41276 
437 1 2.137 1.21 3 6.02214 -178530 -143004 -109211 -16332 2365.11 -4169.2 -7.41331 
632 1 5.037 8.553 3 6.02603 -129527 -112982 -104136 789.991 15492.3 -11099.7 -7.41294 
633 1 4.317 7.331 3 6.02603 -118843 -123359 -105544 7067.4 14815.3 -7305.91 -7.41285 
634 1 5.016 6.097 3 6.0241 -127684 -112616 -105836 1067.43 11643 -10920.4 -7.41306 
635 1 4.296 4.875 3 6.02691 -129002 -134743 -107268 20472.4 9736.13 -7662.9 -7.41307 
636 1 4.994 3.641 3 6.02246 -140633 -146111 -107214 455.844 7321.92 -10529.4 -7.41335 
637 1 4.275 2.419 3 6.02329 -137688 -149655 -108228 7891.76 4546.78 -8185.09 -7.41319 
638 1 4.973 1.185 3 6.02446 -146965 -173300 -108037 -16102.6 2749.5 -10095.6 -7.41357 
833 1 6.455 8.541 3 6.02341 -133528 -152257 -103629 4587.81 16776.8 -10439.6 -7.41376 
834 1 7.153 7.307 3 6.02248 -145605 -141651 -103383 -4626.65 13817.5 -15401.4 -7.41357 
835 1 6.434 6.085 3 6.0222 -136090 -153082 -105596 6657.45 11715.8 -11131.7 -7.4132 
836 1 7.132 4.851 3 6.02475 -136141 -129197 -104992 12630.5 9822.83 -15037.7 -7.41308 
837 1 6.412 3.629 3 6.0241 -120932 -119163 -106802 8770.29 6562.12 -11759.9 -7.413 
838 1 7.111 2.395 3 6.02498 -124274 -116585 -106105 -1023.98 5461.81 -14516.6 -7.41297 
839 1 6.391 1.173 3 6.02538 -120579 -113150 -107209 4855.44 1590.28 -12332.3 -7.41287 
1034 1 9.291 8.516 3 6.0241 -177923 -110738 -99891.1 -4373.27 15961.8 -20031.5 -7.41376 
1035 1 8.571 7.294 3 6.02279 -127330 -138942 -103504 17545 13459.6 -14167.7 -7.41304 
1036 1 9.269 6.06 3 6.02197 -150226 -178206 -102087 -22953.2 12110 -19494.7 -7.41396 
1037 1 8.55 4.839 3 6.02097 -136689 -151349 -104941 -27205.9 8504.98 -15012.2 -7.41334 
1038 1 9.248 3.604 3 6.02097 -139822 -146796 -103568 -40924.6 8022.85 -18852.4 -7.41364 
1039 1 8.529 2.383 3 6.02341 -144604 -180917 -105665 -11876.5 3512.81 -15736.1 -7.41399 
1040 1 9.227 1.149 3 6.02168 -138229 -142790 -104683 -3085.33 3555.29 -18058.9 -7.41336 
13499 2 0.635 8.602 6.4 6.02649 -129684 -137934 -104995 -1333.24 17893.5 -942.94 -7.41284 
13500 2 0.656 6.146 6.4 6.02745 -126818 -136379 -107206 -4819.04 12770.6 -1086.39 -7.41317 
13501 2 0.677 3.69 6.4 6.02826 -125820 -135216 -108651 -3056.65 7631.1 -1209.58 -7.4133 
13502 2 0.698 1.234 6.4 6.02665 -132327 -141417 -109383 -10472.9 2608.95 -1371.28 -7.41319 
13503 2 0 0 6.4 6.02886 -155133 -126566 -109507 -17251.2 -30.5156 25.6939 -7.41285 
13697 2 2.053 8.614 6.4 6.02795 -147067 -140030 -105619 -4395.69 15504.9 -4602.14 -7.41344 
13698 2 2.772 7.392 6.4 6.0234 -133055 -152937 -105941 -1461.67 15202.8 -4641.94 -7.41355 
13699 2 2.074 6.158 6.4 6.02794 -135531 -127481 -107287 -17557.4 11590.4 -4511.34 -7.41316 
13700 2 2.794 4.936 6.4 6.0239 -168223 -118512 -107730 -2112.75 9985.36 -5037.92 -7.41331 
13701 2 2.095 3.702 6.4 6.02722 -125573 -116173 -108438 -4230.68 7284.57 -4315.89 -7.41266 
13702 2 2.815 2.48 6.4 6.02364 -121015 -119971 -108702 3677.97 4875.72 -5369.67 -7.41268 
13703 2 2.116 1.246 6.4 6.02504 -121587 -119733 -109066 -2125.11 2516.07 -4229.33 -7.41265 
13704 2 2.836 0.024 6.4 6.02172 -127796 -147815 -109059 -11639 -103.053 -5598.11 -7.41285 
13898 2 4.889 8.638 6.4 6.02367 -116465 -124865 -104154 4736.03 17383.8 -7815.91 -7.41303 
13899 2 4.19 7.404 6.4 6.02354 -136327 -146141 -105537 14953.1 13795.9 -9154.34 -7.41318 
13900 2 4.91 6.183 6.4 6.02179 -118907 -123901 -106207 37193.7 12302.2 -8498.15 -7.41269 
13901 2 4.211 4.948 6.4 6.02021 -174140 -113551 -107081 31311.1 9639.35 -9017.12 -7.41322 
13902 2 4.931 3.727 6.4 6.0231 -138468 -166558 -107565 8167.71 7091.68 -9148.4 -7.41324 
13903 2 4.233 2.493 6.4 6.0197 -138054 -149088 -108062 -1164.18 5165.57 -8845.43 -7.41318 
13904 2 4.952 1.271 6.4 6.02364 -139857 -146523 -108070 2094.7 2121.79 -9659.4 -7.41331 
13905 2 4.254 0.037 6.4 6.02208 -136065 -140153 -108521 -4143.48 416.88 -8445.21 -7.41359 
14099 2 6.307 8.651 6.4 6.01969 -144407 -142892 -103094 -1654.11 15907.9 -13821 -7.41359 
14100 2 7.026 7.429 6.4 6.02508 -137697 -151789 -104340 1932.14 14273 -11592.4 -7.41327 
14101 2 6.328 6.195 6.4 6.02302 -142850 -142641 -104870 -6604.45 12069.7 -13518.4 -7.4137 
14102 2 7.047 4.973 6.4 6.0258 -134983 -150242 -105898 1737.71 9255.78 -12407.8 -7.41364 
14103 2 6.349 3.739 6.4 6.02549 -142571 -143330 -106283 -8820.69 7768.97 -13184.6 -7.41353 
14104 2 7.068 2.517 6.4 6.02463 -136301 -150512 -106694 1247.71 4287.33 -13201.2 -7.41338 
14105 2 6.37 1.283 6.4 6.02795 -133826 -130826 -107078 -21693.1 3204.74 -12769.1 -7.41298 
14106 2 7.09 0.061 6.4 6.02412 -121298 -110737 -106703 3944.6 -711.339 -13933.8 -7.41312 
14300 2 9.142 8.675 6.4 6.02463 -133125 -154787 -102005 3043.33 16096.7 -14339.9 -7.41365 
14301 2 8.444 7.441 6.4 6.02795 -139038 -127104 -101856 -21143.8 14429.3 -18050.6 -7.41326 
14302 2 9.164 6.219 6.4 6.02387 -166866 -119739 -103814 2253.65 10944.2 -15482.3 -7.41365 
14303 2 8.465 4.985 6.4 6.02531 -129050 -115707 -103639 -8045.63 10479.7 -17535.1 -7.41272 
14304 2 9.185 3.763 6.4 6.02364 -120217 -121719 -104743 8123.7 5994.26 -16475.8 -7.4129 
14305 2 8.486 2.529 6.4 6.0241 -125199 -115418 -104856 -5877.4 6145.9 -17012.7 -7.4131 
14306 2 9.206 1.307 6.4 6.02376 -130103 -135646 -105083 -5922.46 1132.89 -17287.4 -7.41297 
14307 2 8.508 0.073 6.4 6.02288 -143279 -178295 -105583 8828.42 1406.59 -16435.4 -7.41362 
1235 1 10.708 8.504 3 6.0241 -166723 -121466 -101199 12459.2 15005.1 -16712 -7.41369 
1236 1 11.407 7.27 3 6.02603 -129099 -114887 -98108.8 -1720.04 14519.4 -23765.9 -7.4133 
1237 1 10.687 6.048 3 6.02413 -118927 -122873 -102708 11278.2 10032.6 -17782.8 -7.41314 
1238 1 11.386 4.814 3 6.0241 -126594 -116988 -100027 -3103.67 10733.8 -23177.2 -7.41318 
1239 1 10.666 3.592 3 6.02392 -121467 -121155 -103449 11847.8 5008.23 -18909.6 -7.41298 
1240 1 11.365 2.358 3 6.02411 -174853 -115283 -101635 -4408.13 6504.44 -22400.1 -7.41344 
1241 1 10.645 1.136 3 6.02385 -129790 -129505 -103533 15195.9 175.264 -19835.9 -7.41302 
1436 1 13.544 8.48 3 6.02248 -144319 -143535 -93585.4 -9482.73 16700.4 -27827 -7.41435 
1437 1 12.825 7.258 3 6.02341 -134194 -152294 -100302 8843.78 11346.6 -20191.8 -7.41395 
1438 1 13.523 6.024 3 6.02248 -144641 -144430 -95971.2 -8157.34 13169.6 -27141.4 -7.414 
1439 1 12.804 4.802 3 6.0222 -136884 -153289 -101178 10783.1 6511.67 -21455.7 -7.41345 
1440 1 13.502 3.568 3 6.02335 -135191 -130861 -97855.6 8080.62 9286.31 -26386.1 -7.41361 
1441 1 12.782 2.346 3 6.02409 -170270 -117777 -101291 13091.9 1664.36 -22673.2 -7.4137 
1442 1 13.481 1.112 3 6.02592 -123193 -113515 -99363.9 -575.532 4979.8 -25398.9 -7.41321 
1637 1 14.962 8.467 3 6.02367 -118155 -125298 -97618.2 8918.13 12370.2 -22193.4 -7.41331 
1638 1 15.661 7.233 3 6.0241 -128756 -115208 -90823 -8041.96 15561.2 -31066 -7.41393 
1639 1 14.941 6.011 3 6.02336 -127438 -139880 -98557.3 22529.8 7642.7 -23663.8 -7.41332 
1640 1 15.639 4.777 3 6.02197 -147837 -183658 -93405.2 -26662.7 11919.9 -30133.1 -7.41435 
1641 1 14.92 3.556 3 6.02341 -144686 -185379 -98872.3 -6300.59 2972.21 -24995.5 -7.41402 
1642 1 15.618 2.322 3 6.02248 -138246 -149941 -95537 -11309.7 7945.46 -29015.5 -7.41414 
1643 1 14.899 1.1 3 6.02364 -138248 -143829 -98350.4 7966.48 -1727.8 -26230 -7.41381 
1838 1 17.798 8.443 3 6.02795 -147012 -145056 -85136.2 -4123.15 17820.7 -34499.4 -7.41463 
1839 1 17.079 7.221 3 6.02463 -134126 -155065 -96077 15344.1 8551.1 -25255.2 -7.41398 
1840 1 17.777 5.987 3 6.02795 -137193 -132273 -87851 7764.54 14540.9 -33737.2 -7.41407 
1841 1 17.057 4.765 3 6.02387 -119866 -121556 -96256.5 15279.7 3817.9 -26916.7 -7.41373 
1842 1 17.756 3.531 3 6.0241 -127303 -120607 -90438.5 -8243.44 10953.7 -32655 -7.41348 
1843 1 17.036 2.309 3 6.02336 -120869 -124050 -95532.6 10416.9 -750.754 -28490.8 -7.41333 
1844 1 17.735 1.075 3 6.02256 -178622 -145016 -92631.2 -23979.9 6968.19 -31458.3 -7.41449 
14501 2 10.56 8.687 6.4 6.0241 -129950 -114095 -98092.1 -5757.45 16596.1 -22338.5 -7.41329 
14502 2 11.28 7.465 6.4 6.0231 -117358 -126313 -101506 8557.92 12578 -17955.1 -7.41297 
14503 2 10.581 6.231 6.4 6.02212 -182395 -147476 -100216 10698 12939.3 -21907.3 -7.41395 
14504 2 11.301 5.01 6.4 6.0231 -136245 -170919 -102565 12806.4 7653.29 -19294.5 -7.41341 
14505 2 10.603 3.776 6.4 6.0197 -139168 -149470 -101799 -4905.06 8865.36 -21400.2 -7.41354 
14506 2 11.322 2.554 6.4 6.02364 -138796 -148948 -102867 6342.9 2873.19 -20447 -7.41359 
14507 2 10.624 1.32 6.4 6.02248 -141459 -145690 -102954 -6475.41 4471.6 -20703.6 -7.41362 
14508 2 11.343 0.098 6.4 6.02221 -138474 -144440 -102533 8710.78 -1960.2 -21507.2 -7.41336 
14702 2 13.396 8.712 6.4 6.02364 -135539 -153027 -98990.8 8133.42 13825.1 -20079.9 -7.41382 
14703 2 12.698 7.478 6.4 6.02248 -143735 -143539 -95942 -4818.97 15403.4 -26013.3 -7.41421 
14704 2 13.417 6.256 6.4 6.02364 -135914 -152675 -100163 7835.59 9025.83 -21572.5 -7.41372 
14705 2 12.719 5.022 6.4 6.02302 -143772 -144175 -98019.9 -12281.6 11621.5 -25342.5 -7.414 
14706 2 13.438 3.8 6.4 6.02463 -135534 -152687 -100671 5403.68 4272.53 -22959.2 -7.41373 
14707 2 12.74 2.566 6.4 6.02795 -134724 -131924 -99696.9 -25301.4 7401.05 -24552.7 -7.41338 
14708 2 13.46 1.344 6.4 6.0241 -122457 -118961 -100287 4694.55 -504.002 -24267.8 -7.4134 
14709 2 12.761 0.11 6.4 6.02411 -123791 -114662 -100724 -13322.2 3006.19 -23716.3 -7.41288 
14903 2 14.814 8.724 6.4 6.02795 -139625 -129155 -90845.6 -25153.3 17679.5 -29897.3 -7.4139 
14904 2 15.534 7.502 6.4 6.0241 -118031 -123022 -97537.4 6730.48 10112.1 -23512.2 -7.41366 
14905 2 14.835 6.268 6.4 6.02531 -128078 -117101 -93289.3 -11962.4 14246.1 -29267.3 -7.41357 
14906 2 15.555 5.046 6.4 6.02392 -119827 -124041 -97970.4 7078.79 5337.03 -25141.1 -7.41329 
14907 2 14.856 3.812 6.4 6.0241 -127902 -117028 -95556.7 -11053.7 10449.8 -28320.1 -7.4134 
14908 2 15.576 2.59 6.4 6.02336 -130529 -135994 -97858.3 -1878.8 782.104 -26542.8 -7.41349 
14909 2 14.878 1.356 6.4 6.02221 -138164 -151791 -97293.6 -8969.04 6143.97 -27333.7 -7.41382 
14910 2 15.597 0.134 6.4 6.023 -144664 -178895 -97026.6 -4101.61 -3694.69 -27860.6 -7.41412 
15104 2 17.65 8.748 6.4 6.02336 -125794 -142271 -94990.5 -262.772 11008.9 -24879.3 -7.41352 
15105 2 16.952 7.514 6.4 6.02197 -151820 -179973 -88047.7 8507.34 16708.8 -32744.2 -7.41477 
15106 2 17.671 6.293 6.4 6.02097 -135713 -154435 -95407 45077.6 6379.15 -26705.4 -7.41389 
15107 2 16.973 5.058 6.4 6.02097 -141378 -148338 -90653.8 25654 13113.5 -31927.8 -7.41439 
15108 2 17.692 3.837 6.4 6.02341 -143328 -184727 -95108 29176.4 1832.52 -28462.5 -7.41457 
15109 2 16.994 2.603 6.4 6.02248 -140907 -149883 -92714.3 -9796.31 9302.69 -31014.2 -7.41407 
15110 2 17.713 1.381 6.4 6.02197 -137437 -152157 -94120.6 11082.8 -2562.21 -30036.5 -7.41412 
15111 2 17.015 0.147 6.4 6.02198 -131585 -127827 -94527.2 -24801.4 5143.99 -29744.8 -7.41379 
2039 1 19.216 8.431 3 6.02364 -128861 -138952 -93360.6 25626.9 9196.91 -26521.6 -7.41374 
2040 1 19.914 7.197 3 6.02109 -143296 -149046 -81962.2 -12039.5 16949.5 -36885 -7.41482 
2041 1 19.195 5.975 3 6.02508 -138824 -153002 -93377.7 15775.3 4665.67 -28397.4 -7.4139 
2042 1 19.893 4.741 3 6.02302 -144063 -147935 -85017.1 -6160.48 13563.4 -35840.7 -7.41464 
2043 1 19.174 3.519 3 6.02246 -136165 -153756 -92901.4 15845.3 219.807 -30073.4 -7.41418 
2044 1 19.872 2.285 3 6.02691 -134534 -133655 -87600.6 4947.77 9927.24 -34625.8 -7.41423 
2045 1 19.152 1.063 3 6.02409 -169294 -113076 -91634.1 12919.2 -4172 -31638.2 -7.41435 
2240 1 22.052 8.406 3 6.02387 -130278 -119132 -74962.9 -9559.42 19230.1 -39837.5 -7.41464 
2241 1 21.332 7.184 3 6.02367 -117380 -128558 -90673.4 12148.1 5196.51 -29399.7 -7.41358 
2242 1 22.031 5.95 3 6.02354 -135454 -151596 -78583.1 -28161.3 16283.4 -38778.1 -7.41496 
2243 1 21.311 4.729 3 6.02066 -129191 -140057 -90143.5 -7662.37 891.091 -31207 -7.4138 
2244 1 22.009 3.494 3 6.01953 -139849 -153622 -81994.4 -46609.5 12892 -37463.4 -7.41468 
2245 1 21.29 2.273 3 6.02367 -147356 -183777 -88890.5 -3251.76 -3483.85 -32920.5 -7.41474 
2246 1 21.988 1.039 3 6.02168 -136021 -147777 -84851.4 -11148.1 9158.94 -36008.2 -7.41472 
2441 1 23.47 8.394 3 6.02796 -133789 -155129 -88286.8 17965.4 5568.81 -29839.3 -7.41464 
2442 1 24.168 7.16 3 6.02795 -146119 -148985 -71678.4 -6546.41 18701.9 -41262.5 -7.41542 
2443 1 23.449 5.938 3 6.02217 -134240 -155692 -87640.3 17776.4 1255.46 -31864.5 -7.41459 
2444 1 24.147 4.704 3 6.02723 -136321 -135962 -75182 5242.72 15680.9 -40134.9 -7.41481 
2445 1 23.427 3.482 3 6.0239 -121431 -123235 -86143.5 17590.3 -3050.4 -33828.7 -7.41419 
2446 1 24.126 2.248 3 6.02531 -126698 -123629 -78629.3 -10807 12382.4 -38718.1 -7.41419 
2447 1 23.406 1.026 3 6.02431 -120028 -120685 -83765.9 8715.47 -7109.38 -35676.3 -7.41398 
2642 1 26.306 8.37 3 6.02364 -129550 -120146 -63863.4 -13096.3 20968.1 -43535 -7.4155 
2643 1 25.586 7.148 3 6.02652 -130513 -141076 -84941.2 30803 1475.29 -32213 -7.41398 
2644 1 26.284 5.914 3 6.02023 -142699 -153018 -68255.2 -9185.4 18230.4 -42313.8 -7.41563 
2645 1 25.565 4.692 3 6.02723 -138059 -153837 -83323.1 19804.5 -2630.12 -34285.5 -7.41472 
2646 1 26.263 3.458 3 6.02549 -140238 -151681 -72213.2 -9939.78 15202.9 -40933.1 -7.41572 
2647 1 25.544 2.236 3 6.02796 -137488 -153047 -81177.2 17545.5 -6599.89 -36168.9 -7.41509 
2648 1 26.242 1.002 3 6.02714 -140205 -146709 -75886.1 -5420.35 11851.2 -39319.1 -7.41515 
2843 1 27.724 8.357 3 6.0183 -131964 -160443 -82660.9 14320.9 1604.72 -32041.8 -7.41463 
2844 1 28.422 7.123 3 6.02331 -146020 -169898 -60339 -16128.4 20716.5 -44188 -7.416 
2845 1 27.702 5.902 3 6.02161 -119248 -127164 -80937.6 -18732.1 -2509.3 -34313.3 -7.41435 
2846 1 28.401 4.667 3 6.0204 -125905 -126431 -64957.7 -47800.9 18009.6 -42839 -7.41509 
2847 1 27.681 3.446 3 6.02331 -129663 -158683 -78568 -1244.96 -6439.19 -36347.9 -7.41473 
2848 1 28.38 2.212 3 6.02223 -171637 -124299 -69367.1 -14426.4 14892 -41320.7 -7.41544 
2849 1 27.66 0.99 3 6.02507 -133803 -133137 -75651 25974 -10200.1 -38199.1 -7.41452 
15305 2 19.068 8.761 6.4 6.02248 -147278 -145118 -81735.9 -9036.51 19019.8 -36127.4 -7.41483 
15306 2 19.787 7.539 6.4 6.0222 -135186 -156715 -92754.2 10993.8 7110.66 -27918.1 -7.41393 
15307 2 19.089 6.305 6.4 6.02335 -138432 -131742 -84867 -26080 15867.4 -35199 -7.41425 
15308 2 19.809 5.083 6.4 6.0241 -168159 -121962 -92503.1 8010.56 2611.27 -29845.2 -7.41419 
15309 2 19.11 3.849 6.4 6.02498 -126216 -119206 -87530.5 -15231.1 12314.5 -34181.9 -7.41403 
15310 2 19.83 2.627 6.4 6.0241 -121327 -124043 -91520.4 8436.04 -1779.89 -31594.2 -7.41367 
15311 2 19.131 1.393 6.4 6.0241 -124722 -121000 -89846.7 -14994.2 8330.52 -32992.8 -7.41379 
15312 2 19.851 0.171 6.4 6.02429 -121795 -115952 -89751.7 10298.1 -5976.04 -33216.4 -7.41389 
15506 2 21.904 8.785 6.4 6.0241 -118004 -127379 -90156.9 10153.7 7570.03 -28667 -7.41374 
15507 2 21.205 7.551 6.4 6.0241 -129317 -119353 -78261.5 -14265.4 18327 -38256.3 -7.41445 
15508 2 21.925 6.329 6.4 6.02498 -119079 -125429 -89727.6 9014.65 3232.89 -30757.3 -7.41389 
15509 2 21.226 5.095 6.4 6.0241 -175680 -117225 -81715.4 -15681.6 15105.4 -37149.5 -7.41482 
15510 2 21.946 3.873 6.4 6.02335 -130768 -138158 -88536.2 -2785.29 -1080.22 -32753.5 -7.41402 
15511 2 21.248 2.639 6.4 6.0222 -142098 -152028 -84677 -13619.2 11519 -35837.1 -7.41441 
15512 2 21.967 1.417 6.4 6.02289 -138008 -153749 -87132.6 13056.4 -5212.35 -34413.2 -7.4144 
15513 2 21.269 0.183 6.4 6.02446 -143840 -180223 -87000 2539.54 7602.29 -34490.9 -7.41491 
15707 2 23.322 8.797 6.4 6.02197 -145453 -149771 -71320.1 -10849.4 20606.1 -40789.5 -7.41544 
15708 2 24.041 7.575 6.4 6.02248 -134188 -157371 -87405 14731.1 3677.87 -31151.7 -7.41436 
15709 2 23.343 6.341 6.4 6.02341 -151207 -181749 -74986.5 6243.84 17767.1 -39759.9 -7.41575 
15710 2 24.062 5.12 6.4 6.02097 -134093 -156245 -86123.6 49309.9 -578.376 -33281.7 -7.41464 
15711 2 23.364 3.885 6.4 6.02097 -143008 -151252 -78368.6 21192 14475.3 -38577.8 -7.41489 
15712 2 24.083 2.664 6.4 6.02197 -144043 -188203 -84202.2 31198.7 -4665.11 -35286.9 -7.41499 
15713 2 23.385 1.43 6.4 6.02336 -132662 -138551 -81265.9 -25021 10949.2 -37213.8 -7.41435 
15714 2 24.105 0.208 6.4 6.02409 -123695 -117187 -81602 14082 -8660.96 -37134.6 -7.4142 
15908 2 26.157 8.822 6.4 6.02197 -133059 -158240 -84996.2 15337.9 3916.82 -31229.5 -7.41462 
15909 2 25.459 7.588 6.4 6.02336 -138714 -134934 -67444.3 -23741.6 20233.1 -42121 -7.41527 
15910 2 26.179 6.366 6.4 6.0241 -120959 -126144 -83643.2 12651 -342.129 -33569.3 -7.41408 
15911 2 25.48 5.132 6.4 6.02392 -127511 -122593 -71445.2 -15791.5 17358.5 -40908 -7.41485 
15912 2 26.2 3.91 6.4 6.02531 -120634 -126772 -81664.4 10847.3 -4335.1 -35653.5 -7.41424 
15913 2 25.501 2.676 6.4 6.0241 -125108 -121249 -75085.8 -17048.5 14109.5 -39521.1 -7.41497 
15914 2 26.221 1.454 6.4 6.02795 -132039 -138904 -78995.5 -3281.48 -8198.24 -37590.5 -7.4146 
15915 2 25.523 0.22 6.4 6.02423 -137669 -148647 -78384.4 -20539.7 10479.7 -37909.3 -7.41501 
16109 2 27.575 8.834 6.4 6.0241 -130722 -120408 -59372.6 -15979.1 22493.9 -44077.4 -7.41577 
16110 2 28.295 7.612 6.4 6.02795 -128182 -142036 -81423.3 -1779.53 -160.44 -33303.7 -7.41443 
16111 2 27.597 6.378 6.4 6.02463 -143579 -153096 -64207.4 -16273.9 19894.9 -42824.4 -7.41586 
16112 2 28.316 5.156 6.4 6.02549 -136662 -155025 -79030.4 10428.7 -4050.83 -35584.9 -7.4151 
16113 2 27.618 3.922 6.4 6.0258 -141771 -152083 -68382.5 -16590.4 17007 -41488.2 -7.41582 
16114 2 28.337 2.7 6.4 6.02302 -136516 -155140 -76440 11957.9 -7833.11 -37652.6 -7.41534 
16115 2 27.639 1.466 6.4 6.02508 -144085 -152505 -72099.8 -17169.6 13709.9 -39959 -7.41517 
16116 2 28.358 0.244 6.4 6.02091 -135232 -152713 -73194.3 19051.3 -11493.3 -39571.5 -7.41519 
3044 1 30.559 8.333 3 6.02463 -144810 -154559 -52119 -8798.38 22880.6 -45656.5 -7.41657 
3045 1 29.84 7.111 3 6.02549 -136177 -155467 -78845.2 20977.9 -2456.75 -33878.3 -7.4151 
3046 1 30.538 5.877 3 6.02723 -145251 -152936 -57092.3 -8107.14 20540.5 -44391.6 -7.41627 
3047 1 29.819 4.655 3 6.02163 -135776 -157577 -76229.9 18945.7 -6340.61 -36065.9 -7.41514 
3048 1 30.517 3.421 3 6.02508 -137715 -139478 -61658.9 771.581 17741.7 -42968.3 -7.41535 
3049 1 29.797 2.199 3 6.02248 -169046 -125766 -72987.5 14438.1 -10111.6 -38179.2 -7.41522 
3050 1 30.496 0.965 3 6.02395 -129616 -155666 -66291.7 -27756.4 14773.4 -41249.2 -7.41533 
3245 1 31.977 8.321 3 6.0241 -118949 -129117 -76865.7 16675.6 -2648.45 -33212.7 -7.41451 
3246 1 32.676 7.087 3 6.02364 -128645 -124219 -48625.6 -14317.3 22855.5 -45612.1 -7.4164 
3247 1 31.956 5.865 3 6.02652 -131341 -142548 -74037.2 31812.4 -6402.93 -35479.3 -7.41462 
3248 1 32.654 4.631 3 6.02023 -141219 -156422 -54065.6 -10199 20455.5 -44155.5 -7.41658 
3249 1 31.935 3.409 3 6.02795 -139033 -155623 -70568.2 20757.1 -10027.5 -37591.7 -7.41547 
3250 1 32.633 2.175 3 6.02796 -140332 -155158 -59291.4 -10953.8 17756.5 -42526.4 -7.41637 
3251 1 31.914 0.953 3 6.02383 -136571 -149223 -66684.6 15143.4 -13535.9 -39554.9 -7.41603 
3446 1 34.813 8.296 3 6.02364 -147385 -154620 -39745.1 -11349.1 24992.1 -46322.3 -7.4173 
3447 1 34.094 7.074 3 6.0183 -132753 -161866 -72345.6 14923.3 -6587.39 -34468.9 -7.41523 
3448 1 34.792 5.84 3 6.0231 -143702 -176281 -45605.9 -17256.2 22960.2 -45008.4 -7.41675 
3449 1 34.072 4.619 3 6.02352 -127250 -162286 -68711.6 -1092.85 -10170.6 -36745.5 -7.4154 
3450 1 34.771 3.385 3 6.02367 -124178 -130714 -51518.6 -15583.3 20502.7 -43516.6 -7.41589 
3451 1 34.051 2.163 3 6.02531 -122757 -128172 -64509.2 15594.6 -13587.6 -38778.9 -7.41526 
3452 1 34.75 0.929 3 6.02325 -122760 -121031 -56831.9 -12831.9 17781.6 -41819.6 -7.4159 
3647 1 36.231 8.284 3 6.02795 -129214 -143088 -71177 33113.4 -6829.88 -33217.7 -7.41502 
3648 1 36.929 7.05 3 6.02463 -143935 -158549 -36886 -9340.14 25165.3 -45495.3 -7.41747 
3649 1 36.21 5.828 3 6.02302 -137037 -157101 -67103.1 21149.2 -10324.1 -35517.4 -7.41579 
3650 1 36.908 4.594 3 6.02364 -143689 -157594 -43110.5 -12215.3 23066.7 -44051.4 -7.41707 
3651 1 36.189 3.372 3 6.02248 -136515 -157560 -62686.7 13650.5 -13746 -37642.6 -7.41614 
3652 1 36.887 2.138 3 6.02404 -142820 -156611 -48978.8 -12897.6 20663.7 -42431.6 -7.41677 
3653 1 36.168 0.916 3 6.01951 -135486 -155651 -57539.7 10546.6 -16904.8 -39603.2 -7.4161 
16310 2 30.411 8.858 6.4 6.02248 -135108 -156870 -79610.7 16621.3 -137.212 -32734.8 -7.41493 
16311 2 29.713 7.624 6.4 6.02364 -147139 -151414 -55921 -13938.9 22329.5 -44474.7 -7.41635 
16312 2 30.432 6.402 6.4 6.01969 -132469 -161196 -77286.8 17438.3 -3986.47 -35090.9 -7.41495 
16313 2 29.734 5.168 6.4 6.0231 -145568 -170195 -60605.6 -8652.71 19794 -43139.7 -7.41598 
16314 2 30.454 3.947 6.4 6.02021 -168098 -126724 -74139.7 49268.4 -7869.33 -37366.7 -7.41512 
16315 2 29.755 2.712 6.4 6.02179 -125476 -126678 -65027.4 19611.7 16763.5 -41701.6 -7.41508 
16316 2 30.475 1.491 6.4 6.02354 -130190 -159842 -70372.5 32267.4 -11449.7 -39416.5 -7.41524 
16317 2 29.776 0.257 6.4 6.02327 -121034 -122954 -69156 -16204.3 13619.5 -40007.4 -7.41483 
16511 2 31.829 8.871 6.4 6.02336 -139931 -138156 -47050.4 -24398.3 24479.9 -45761.9 -7.41647 
16512 2 32.549 7.649 6.4 6.0241 -118833 -127762 -75349.5 15779.1 -4118.31 -34359.8 -7.41481 
16513 2 31.85 6.415 6.4 6.02364 -128404 -125443 -52198.2 -11443.4 22295.8 -44520.6 -7.41598 
16514 2 32.57 5.193 6.4 6.02531 -122176 -129151 -72127.2 12900.5 -7837.13 -36674.5 -7.41455 
16515 2 31.871 3.959 6.4 6.0239 -175100 -122984 -57437.6 -17973.2 19705.2 -43034.1 -7.41625 
16516 2 32.591 2.737 6.4 6.02723 -131739 -141540 -68297.1 -1006.53 -11354.5 -38792.2 -7.4152 
16517 2 31.893 1.503 6.4 6.02217 -139527 -156013 -62314 -18066.2 16750.5 -41349.1 -7.41611 
16518 2 32.612 0.281 6.4 6.02578 -138860 -149352 -63983.8 13128.9 -14676.7 -40717.4 -7.41597 
16712 2 34.665 8.895 6.4 6.02795 -127687 -143940 -74030.1 -912.687 -4311.97 -33200 -7.41485 
16713 2 33.967 7.661 6.4 6.02463 -144818 -156308 -43685.4 -16601.6 24559.7 -45368.1 -7.41707 
16714 2 34.686 6.439 6.4 6.02795 -136764 -157681 -70572.1 11102.6 -7917.62 -35542.2 -7.41546 
16715 2 33.988 5.205 6.4 6.02796 -142960 -154995 -49477.1 -16964.2 22312.1 -43973.9 -7.41694 
16716 2 34.707 3.983 6.4 6.02302 -135205 -157382 -66510.4 12604.5 -11339.2 -37812.3 -7.41604 
16717 2 34.009 2.749 6.4 6.02508 -144996 -155516 -54726.1 -17551.8 19678.1 -42439.6 -7.41617 
16718 2 34.728 1.527 6.4 6.01911 -135800 -161190 -62042 16854.3 -14611.6 -39880.4 -7.41587 
16719 2 34.03 0.293 6.4 6.02412 -140217 -168372 -59711.9 -14530.9 16767.1 -40704.8 -7.41602 
16913 2 36.083 8.907 6.4 6.02364 -148334 -154776 -34497 -13910.6 26564.9 -45957.2 -7.41762 
16914 2 36.802 7.685 6.4 6.01969 -133409 -160733 -69461.1 18092.7 -8067.33 -34248.7 -7.41553 
16915 2 36.104 6.451 6.4 6.02508 -138529 -141233 -40674.6 -27075.3 24746 -44604.6 -7.41685 
16916 2 36.824 5.229 6.4 6.02367 -118410 -131162 -65125.2 17011.1 -11567.4 -36581.3 -7.41529 
16917 2 36.125 3.995 6.4 6.02354 -133176 -163497 -46510.2 3562.55 22466.3 -43157 -7.4165 
16918 2 36.845 2.774 6.4 6.02354 -127801 -165490 -60156.5 32960.7 -14884.4 -38673.1 -7.41569 
16919 2 36.146 1.54 6.4 6.02367 -123699 -128953 -52021 -13548.4 19923.6 -41483.6 -7.41608 
16920 2 36.866 0.318 6.4 6.02651 -133401 -137945 -54726.6 2363.01 -17921.4 -40626.1 -7.41574 
3848 1 39.067 8.26 3 6.0231 -130185 -128953 -27522 -13192.1 27104.2 -45604.6 -7.41744 
3849 1 38.347 7.038 3 6.0241 -121300 -131215 -65946.7 18287.9 -10642.4 -34042.5 -7.41491 
3850 1 39.046 5.804 3 6.0239 -127977 -130026 -34312.3 -9849 25444.6 -44241.3 -7.41704 
3851 1 38.326 4.582 3 6.02531 -121648 -129970 -61183.9 20664.2 -14006 -36235.4 -7.41543 
3852 1 39.025 3.348 3 6.0241 -173711 -126763 -40927.2 -9497.62 23294.4 -42744.5 -7.41734 
3853 1 38.305 2.126 3 6.02795 -133064 -142690 -56000.1 31754.5 -17139.7 -38243.9 -7.41595 
3854 1 39.003 0.892 3 6.02423 -138067 -154830 -47382.7 -7597.08 20818.2 -41018 -7.41683 
4048 1 41.204 9.469 3 6.02341 -146158 -158639 -18053.9 -12262.4 28875.3 -45206.4 -7.4188 
4049 1 40.485 8.247 3 6.02248 -132450 -161835 -65308.9 14312.4 -10994.3 -32239.5 -7.41586 
4050 1 41.183 7.013 3 6.02367 -154121 -191247 -25227.5 -28606 27489.7 -43972.8 -7.41847 
4051 1 40.464 5.792 3 6.01953 -134542 -162910 -60405.6 -18898.1 -14184.9 -34451.3 -7.41593 
4052 1 41.162 4.557 3 6.02066 -136375 -145698 -32269.5 -35191.3 25693.8 -42636.9 -7.41721 
4053 1 40.442 3.336 3 6.02215 -177851 -160577 -54614.9 -1141.31 -17323.1 -36614 -7.41672 
4054 1 41.141 2.102 3 6.0231 -124194 -132971 -39357.5 -14306.8 23442.7 -41119.4 -7.41663 
4055 1 40.421 0.88 3 6.02409 -124049 -125526 -48733.6 13661.8 -20255.7 -38549.3 -7.41592 
4249 1 42.622 9.457 3 6.02603 -118628 -131946 -65216.9 19776.7 -11332 -30300.9 -7.41519 
4250 1 43.321 8.223 3 6.0241 -130171 -130084 -15718 -7704.19 29285.4 -43419.9 -7.41835 
4251 1 42.601 7.001 3 6.02691 -128750 -145020 -59836 32912.3 -14537.3 -32506.6 -7.41583 
4252 1 43.299 5.767 3 6.02246 -143054 -162151 -23472.3 -8833.22 27802.1 -42097.5 -7.41827 
4253 1 42.58 4.545 3 6.02302 -138621 -159451 -54132.9 19862.9 -17629.4 -34609.7 -7.41644 
4254 1 43.278 3.311 3 6.02364 -142890 -160917 -30659.2 -11640.2 25966.4 -40628.2 -7.41781 
4255 1 42.559 2.089 3 6.02289 -136333 -161930 -47809.6 12739.9 -20509.1 -36525.6 -7.41691 
4256 1 43.257 0.855 3 6.02446 -146824 -189477 -38190.1 -26797.1 23838.1 -39014 -7.41757 
4450 1 45.458 9.433 3 6.02248 -148111 -160495 -6250.03 -11465.3 30759.5 -42305.5 -7.4193 
4451 1 44.739 8.211 3 6.0222 -135910 -162884 -59904 17160.5 -14825.5 -30268.1 -7.41585 
4452 1 45.437 6.977 3 6.02475 -138650 -146653 -14228.3 5353.03 29716.3 -41162.4 -7.41841 
4453 1 44.717 5.755 3 6.0241 -120722 -130746 -53725.2 19033.7 -17965 -32406.6 -7.41609 
4454 1 45.416 4.521 3 6.02498 -126496 -132980 -22167 -8751.88 28201.5 -39875.3 -7.41788 
4455 1 44.696 3.299 3 6.02603 -122039 -132734 -47185.8 18172.6 -20833.4 -34342.1 -7.41626 
4456 1 45.395 2.065 3 6.02411 -125678 -131106 -29917.1 -8679.15 26327.2 -38441.5 -7.41752 
4457 1 44.675 0.843 3 6.02555 -131482 -139837 -40317.9 28068 -23458.1 -36145.9 -7.41697 
4651 1 46.876 9.42 3 6.02279 -127189 -148199 -60413.3 25921.2 -15241.4 -27911 -7.41554 
4653 1 46.855 6.965 3 6.02097 -136517 -162411 -54187.4 -18931.3 -18161.4 -29961 -7.41629 
4655 1 46.834 4.509 3 6.02341 -144155 -194138 -47191.3 -3744.69 -20989.8 -31904.7 -7.41737 
4657 1 46.813 2.053 3 6.02197 -138196 -162929 -40131.1 13535.4 -23655.2 -33698.5 -7.4173 
17114 2 38.919 8.932 6.4 6.0241 -118268 -131513 -68528.3 16218.6 -8405.78 -32705.1 -7.415 
17115 2 38.22 7.698 6.4 6.02367 -129706 -126804 -31270.7 -11488.1 26855.5 -44892.7 -7.41743 
17116 2 38.94 6.476 6.4 6.02508 -129092 -144792 -63996 2132.45 -11730.8 -35007 -7.41545 
17117 2 38.242 5.242 6.4 6.01969 -142629 -159049 -37915.5 -11749.8 24944.3 -43455.8 -7.41741 
17118 2 38.961 4.02 6.4 6.02508 -139951 -159201 -58899.1 12271.2 -14950.3 -37162 -7.4159 
17119 2 38.263 2.786 6.4 6.02302 -140542 -157258 -44158.2 -17314.6 22634.7 -41884.5 -7.41737 
17120 2 38.982 1.564 6.4 6.02796 -137845 -158603 -53324.5 11690.5 -18050.7 -39182.8 -7.41672 
17121 2 38.284 0.33 6.4 6.02714 -140553 -151712 -50277.8 -23019.2 20044.4 -40122.6 -7.41666 
17315 2 40.337 8.944 6.4 6.02463 -145974 -159752 -22052.5 -15913.7 28708.5 -44648 -7.41835 
17316 2 41.056 7.722 6.4 6.02795 -136291 -159611 -63557.5 10730.3 -12047.2 -33119.1 -7.41587 
17317 2 40.358 6.488 6.4 6.02795 -146457 -157675 -29131.6 -17999.9 27182.2 -43372.1 -7.41793 
17318 2 41.077 5.266 6.4 6.02217 -134530 -161585 -58134.6 11899.9 -15210.8 -35322.3 -7.41633 
17319 2 40.379 4.032 6.4 6.02723 -137342 -143277 -35960.7 -30038.7 25182.8 -41913.6 -7.41712 
17320 2 41.099 2.81 6.4 6.0239 -170014 -128673 -52189 10803.9 -18229 -37487.3 -7.41655 
17321 2 40.4 1.576 6.4 6.02531 -127664 -130231 -42370.1 -17259.9 22855.6 -40311.1 -7.41633 
17322 2 41.12 0.354 6.4 6.02417 -120516 -128242 -45975.9 19037.2 -20985.7 -39375.5 -7.4162 
17516 2 43.172 8.968 6.4 6.01969 -132990 -162419 -63576.4 17323.6 -12246.2 -31119 -7.41588 
17517 2 42.474 7.734 6.4 6.02508 -139676 -144551 -19561.5 -26043.3 29091.7 -42924.9 -7.4181 
17518 2 43.194 6.512 6.4 6.02367 -117905 -133203 -57904.2 16262.5 -15507.3 -33392.6 -7.41571 
17519 2 42.495 5.278 6.4 6.02354 -135758 -164094 -26824.4 4362.49 27519.6 -41546.4 -7.41779 
17520 2 43.215 4.057 6.4 6.02179 -120679 -133868 -51707.8 48275.7 -18554.4 -35393.9 -7.41586 
17521 2 42.516 2.822 6.4 6.02021 -173664 -130101 -34043.9 20266.2 25472.4 -40053.8 -7.41749 
17522 2 43.236 1.601 6.4 6.0231 -140722 -177704 -45072.9 18865.8 -21307.3 -37281.4 -7.41691 
17523 2 42.538 0.367 6.4 6.01889 -136495 -158351 -41157.3 -15716.4 23192.4 -38307.8 -7.41707 
17717 2 44.59 8.981 6.4 6.02367 -129382 -132775 -9832.58 -10345 30778.5 -42013.8 -7.41858 