ITEM: TIMESTEP
105
ITEM: NUMBER OF ATOMS
18152
ITEM: BOX BOUNDS pp pp pp
0.0000000000000000e+00 1.1715644600000000e+02
0.0000000000000000e+00 2.0292091700000000e+02
0.0000000000000000e+00 1.8399999600000001e+01
ITEM: ATOMS id type x y z c_csym c_2[1] c_2[2] c_2[3] c_2[4] c_2[5] c_2[6] c_3 
1 1 -3.56557e-06 -3.31785e-06 7.34023 6.04804 -4967.57 -5109.6 -27.5338 -0.202103 -0.219752 -0.179998 -7.41134 
2 1 2.15041 1.19332 7.34113 6.0464 -6862.53 -3145.21 7.61071 -826.257 1979.37 -3649.41 -7.41137 
3 1 3.57009 1.16938 7.3423 6.0437 -5905.33 -4275.79 -101.835 4990.33 1493.34 -5408.28 -7.4114 
4 1 6.40927 1.12197 7.34619 6.04159 -9201.43 -1487.04 273.28 3868.95 2732.17 -10202.6 -7.41155 
5 1 7.82894 1.09907 7.34878 6.03966 -7979.7 -2313.09 -390.366 17633.8 -215.44 -10801.5 -7.41157 
56 1 0.0417563 2.45899 7.34113 6.04531 -6618.15 -3161.9 -51.6048 -1328.62 3784.25 -87.5554 -7.41137 
57 1 1.46145 2.43487 7.34142 6.04529 -4527.34 -5254.24 -21.6558 278.778 4029.97 -2177.21 -7.41137 
58 1 2.19193 3.65245 7.34287 6.04347 -10856.9 1178.11 -8.20368 -3411.02 5429.56 -3962.39 -7.41142 
59 1 3.61161 3.62853 7.344 6.04195 -7879.17 -2064.86 -186.637 2425.46 5667.73 -4889.53 -7.41145 
60 1 4.30059 2.38698 7.34372 6.04455 -11249.1 947.092 223.606 -392.917 3984.35 -7381.56 -7.41146 
61 1 5.72025 2.36347 7.34565 6.041 -9162.28 -1213.3 -426.681 9644.01 2788.13 -7882.22 -7.41148 
62 1 6.45034 3.58133 7.34777 6.04287 -17201.6 6814.08 767.662 1371.74 5900.26 -10971.6 -7.41163 
63 1 7.86998 3.55844 7.35027 6.03804 -13794.8 3902.07 -1148.51 15073.2 3705.79 -9649.41 -7.41156 
64 1 8.55906 2.31697 7.35078 6.03959 -14515.5 4375.68 952.884 7912.76 4998.53 -13406.7 -7.41174 
166 1 0.0830964 4.91803 7.34372 6.0424 -8368.88 -1303.9 -241.079 -5122.6 6955.78 -156.415 -7.41143 
167 1 1.50279 4.89393 7.344 6.04353 -4364.08 -5209.55 160.526 -3598.95 8263.77 -2022.48 -7.41147 
168 1 2.23284 6.11174 7.34618 6.04091 -14711.3 5131.96 -272.398 -8307.58 8180.86 -4182.74 -7.4115 
169 1 3.65251 6.08786 7.34724 6.03954 -9895.85 -13.4107 -16.0165 -2559.55 9807.58 -4287.28 -7.41156 
170 1 4.34167 4.84637 7.34619 6.04179 -17256 7108.23 298.772 -4084.97 6991.37 -7842.59 -7.41154 
171 1 5.76132 4.82288 7.34802 6.03851 -13108 3076.83 -683.771 5747.66 6883.52 -6954.75 -7.41153 
172 1 6.49081 6.04107 7.35078 6.03963 -24821.4 14659.7 1003.04 -3523.07 8393.87 -11524.2 -7.41173 
173 1 7.91043 6.01819 7.35313 6.03442 -19435.5 9849.55 -1641.57 9914.44 7658.11 -8342.36 -7.41162 
174 1 8.59952 4.77667 7.35293 6.03967 -24066.4 14079 1754.74 4210.82 7655.49 -14258.5 -7.41186 
276 1 0.123629 7.3771 7.34776 6.03925 -10097.5 529.596 -758.532 -11124.4 9357.56 -216.832 -7.41152 
277 1 1.54333 7.35305 7.34803 6.04184 -4444.6 -5271.57 669.308 -9578.44 12330.9 -1839.17 -7.41163 
278 1 2.27277 8.57119 7.35076 6.03881 -18324.6 8789.95 -933.995 -15133.2 10139.4 -4330.58 -7.41159 
279 1 3.69244 8.54736 7.35173 6.03702 -11945.6 1995.55 547.436 -9626.41 13698.1 -3617.51 -7.41174 
280 1 4.38197 7.30603 7.35003 6.03939 -22952.6 12960 41.9194 -10053 9252.93 -8153.32 -7.41164 
281 1 5.8016 7.28257 7.35172 6.03508 -17048.6 7047.82 -605.887 -464.597 10858.6 -5914.57 -7.41165 
282 1 6.53036 8.50117 7.35495 6.03664 -31986.4 21932 822.909 -10473.1 10135.4 -11890.7 -7.41185 
283 1 7.94995 8.47831 7.3571 6.03052 -24923.8 15451.7 -1715.88 2495.41 11438.7 -6918.17 -7.41174 
284 1 8.63925 7.23683 7.35629 6.03565 -33184.9 23286.4 2202.18 -1863.03 9604.7 -14873.4 -7.41199 
6 1 10.668 1.05357 7.35494 6.03454 -10194 102.761 700.483 15283.3 4334 -15081 -7.41185 
7 1 12.0877 1.03239 7.35834 6.03577 -9038.76 -788.768 -844.626 35187.6 -2786.52 -14519.9 -7.41183 
8 1 14.9268 0.989578 7.3655 6.02668 -10983.1 1004.45 1184.4 31559.4 6587.74 -18045 -7.41221 
9 1 16.3464 0.970545 7.36911 6.02904 -9671.25 575.817 -1371.38 55529.6 -5840.71 -16642.6 -7.41212 
65 1 9.97871 2.29486 7.35381 6.03778 -12091.6 2526.11 -1245.37 25034.5 434.842 -12207.5 -7.41166 
66 1 10.7083 3.51312 7.35628 6.03786 -21438.7 11442.4 2120.45 12809.1 7100.72 -16250 -7.41199 
67 1 12.1279 3.49193 7.35955 6.03532 -17828.1 8520.14 -2643.16 32634.8 777.141 -12958.6 -7.41174 
68 1 12.8173 2.25069 7.36056 6.0323 -17047.6 6762.05 1960.02 22022.8 6750.96 -17488.3 -7.41211 
69 1 14.237 2.23053 7.36407 6.03413 -14467.8 5129.29 -2332.83 44259.8 -2618.98 -14939.6 -7.4119 
70 1 14.966 3.44925 7.36657 6.03038 -24310.7 14237.9 3796.32 29106.2 8965.2 -19504.4 -7.41243 
71 1 16.3856 3.43018 7.37005 6.03288 -20291.4 11909.2 -4417.04 53022.2 -2629.51 -14886.3 -7.41194 
72 1 17.0755 2.1893 7.37129 6.02439 -18165.7 8389.05 3078.06 40102.1 9056.67 -19698.6 -7.41252 
175 1 10.0191 4.75455 7.35582 6.0349 -19401.6 10373.6 -2373.21 21064.5 4247.26 -10733.5 -7.41164 
176 1 10.748 5.97322 7.35882 6.03595 -32164.1 22265.3 3261.98 7825.34 9216.78 -17156.5 -7.41214 
177 1 12.1676 5.95199 7.36191 6.03103 -26326.7 17534.1 -4157.82 27322.2 4460.01 -11231.3 -7.41171 
178 1 12.8569 4.71062 7.36233 6.03516 -29195.3 18952.5 3834.2 18257.4 9005.55 -18689.1 -7.4123 
179 1 14.2765 4.69042 7.36568 6.03287 -24099.8 15516.2 -4617.74 40239 867.834 -13175.6 -7.41179 
180 1 15.0048 5.90959 7.36864 6.03155 -37103.2 27020.8 6114.16 23977.3 10702.1 -20724.6 -7.41265 
181 1 16.4243 5.89045 7.37193 6.02951 -30627.9 22896.4 -7160.38 47603.3 778.604 -12990.4 -7.41181 
182 1 17.114 4.64937 7.37271 6.02736 -31899.5 21930.9 6210.03 36294 10957.8 -21142 -7.41278 
285 1 10.0588 7.2147 7.35897 6.03023 -26576.3 17737.8 -3140.75 14593.2 8030.29 -9111.65 -7.41169 
286 1 10.7869 8.43385 7.36236 6.0314 -42189.7 32364.3 3954.13 659.467 10623.8 -17824.8 -7.4123 
287 1 12.2064 8.41258 7.36522 6.02609 -34431.5 26113.7 -5212.82 19604.5 8075.01 -9375.86 -7.41174 
288 1 12.8958 7.17115 7.36512 6.03195 -40766 30603.3 5326.68 12009.2 10580 -19640.1 -7.41248 
289 1 14.3153 7.15089 7.36825 6.02737 -33481.5 25464.1 -6511.5 33555.3 4421.26 -11271.8 -7.41174 
290 1 15.0427 8.37057 7.37155 6.02798 -49103.9 39078 7947.98 16557 11751.6 -21714.4 -7.41286 
291 1 16.4622 8.35133 7.3746 6.02391 -40509.4 33493 -9404.92 39635.3 4210.44 -10980.3 -7.41174 
292 1 17.1519 7.11013 7.37497 6.02783 -45119.8 34965.5 8940.84 29838.4 12186 -22372.8 -7.41304 
10 1 19.1856 0.930875 7.37627 6.01865 -11347.6 1733.51 1661.09 50996.2 9224.71 -19396 -7.41257 
11 1 20.6052 0.914205 7.37968 6.02086 -10104 1466.45 -1872.02 76999.3 -9016.01 -17516.6 -7.41241 
12 1 23.4445 0.87788 7.38622 6.01088 -11323.4 2224.26 2084.9 72114.6 11954 -19503.9 -7.4129 
13 1 24.8642 0.863624 7.38922 6.01262 -10150.4 2146.61 -2280.51 98343.5 -12021 -17412.1 -7.41266 
73 1 18.4952 2.17142 7.37478 6.02706 -15504 6994.76 -3502.77 65394.8 -5944.95 -16336.9 -7.41215 
74 1 19.2237 3.39062 7.37711 6.02249 -25788 15791.7 5562.58 48587.5 11291.1 -20999 -7.41287 
75 1 20.6433 3.3739 7.38038 6.02542 -21640.2 13766.8 -6210.45 74578.6 -6100.01 -15728.4 -7.41213 
76 1 21.3338 2.13344 7.38166 6.01647 -18745.4 9058.86 4172.72 60591.8 11641.3 -20415.8 -7.41291 
77 1 22.7534 2.11796 7.38482 6.01888 -15979.9 8112.55 -4593.58 86992.2 -9202.56 -16708 -7.41238 
78 1 23.4814 3.33765 7.38687 6.01469 -26014.9 16230.5 7223.44 69757 13791.4 -21104.6 -7.41327 
79 1 24.901 3.32333 7.38972 6.01726 -21817.9 14555.2 -7820.94 96008 -9342.17 -15707.7 -7.41231 
80 1 25.5922 2.08334 7.39091 6.00893 -18715.1 9228.76 5137.14 82102.2 14218.8 -19963.4 -7.41324 
81 1 27.0118 2.07025 7.39359 6.01078 -16016.6 8498.6 -5501.69 107942 -12150.7 -16236.7 -7.41258 
183 1 18.5336 4.63141 7.37604 6.03173 -26507.3 18841.1 -7071.5 61370.5 -2753.84 -14484.3 -7.41194 
184 1 19.2613 5.85109 7.37878 6.02447 -39729.6 29431.6 9164.33 43337.3 12715.7 -22417.1 -7.41317 
185 1 20.6808 5.83425 7.38187 6.02854 -32893.9 25782.9 -10238.4 69134.9 -2934.54 -13834.5 -7.41191 
186 1 21.3711 4.59358 7.38279 6.01943 -33138.9 22998 8585.71 56752.7 13273 -21956.5 -7.41325 
187 1 22.7907 4.578 7.38579 6.02406 -27479.2 20475 -9424.72 83018.6 -6257.49 -14903.3 -7.41208 
188 1 23.5178 5.79816 7.38823 6.0166 -40235 29871.7 12068.8 64423.6 14984.6 -22574.8 -7.41365 
189 1 24.9374 5.78369 7.3909 6.02181 -33203.7 26726.9 -13056.1 90570.6 -6385.7 -13924.4 -7.412 
190 1 25.6283 4.54348 7.39182 6.01179 -32952.9 22772.1 10723.2 78241.3 15655.7 -21464.2 -7.41366 
191 1 27.0479 4.53027 7.39433 6.01594 -27246.6 20651.4 -11456 104036 -9412.02 -14571.7 -7.41221 
293 1 18.5714 7.09206 7.37809 6.02638 -37297.5 30278.6 -10226.5 54546.3 577.038 -12518.5 -7.4118 
294 1 19.2981 8.31226 7.38114 6.02423 -52885.8 42432.8 12260.9 35616.6 13452.2 -23646.5 -7.41346 
295 1 20.7176 8.29527 7.38402 6.02359 -43695.6 37448.6 -13744.6 60985.2 317.308 -11847.2 -7.41175 
296 1 21.4078 7.05443 7.38463 6.02181 -47028.5 36497.7 12593.1 50126.2 14227.6 -23337.9 -7.41359 
297 1 22.8273 7.0387 7.38743 6.02541 -38768.5 32501.8 -13836.4 76125.9 -3127.72 -13010.8 -7.41185 
298 1 23.5536 8.25938 7.39017 6.01946 -53729.7 42983.8 16406.8 56443.9 15481.2 -23905.3 -7.41402 
299 1 24.973 8.24471 7.39266 6.02263 -44179.1 38628.6 -17768.8 82307.8 -3306.98 -12065.1 -7.41175 
300 1 25.6639 7.00434 7.39334 6.01412 -46746.6 35952.9 15914.4 71468.2 16413 -22854.1 -7.41407 
14 1 27.7036 0.83064 7.39483 6.00374 -11356.2 2462.83 2416.69 93620.7 14521.5 -18617.3 -7.41317 
15 1 29.1232 0.818722 7.39731 6.00478 -10210 2647.16 -2569.29 118580 -14655.6 -16485.3 -7.41288 
16 1 31.9628 0.788914 7.40186 5.99749 -11163.2 2787.38 2633.29 114338 16751.6 -16927.2 -7.41337 
17 1 33.3825 0.779152 7.40381 5.99766 -10142.9 3053.93 -2735.83 136851 -16814.1 -14878 -7.41305 
82 1 27.7393 3.29041 7.39533 6.00735 -25541.2 15756.9 8632.03 91308 16190.5 -20101.8 -7.41361 
83 1 29.1589 3.27841 7.39765 6.00929 -21320.3 14516.8 -9125.89 116332 -12172.8 -14944.7 -7.41245 
84 1 29.8508 2.0389 7.39869 6.00206 -18142.3 9015.3 5897.08 103393 16559.5 -18567.6 -7.41351 
85 1 31.2704 2.02806 7.40083 6.00315 -15491.5 8584 -6178.49 127333 -14644.6 -15043.6 -7.41274 
86 1 31.9975 3.24865 7.40225 6.00062 -24314.5 14873.6 9706.95 112066 18293.1 -18224.1 -7.41387 
87 1 33.417 3.2388 7.40404 6.00192 -20216.6 13821.9 -10078.8 134667 -14498.4 -13550.7 -7.41257 
88 1 34.1096 1.99975 7.40489 5.99575 -17392.7 8573.8 6423.01 123343 18525.8 -16445.7 -7.4137 
89 1 35.5292 1.99095 7.40651 5.99637 -14832.1 8301.34 -6620.93 144381 -16631.1 -13272.8 -7.41286 
192 1 27.7746 5.75088 7.39644 6.00918 -39278.7 28781.7 14570 85901.3 17220.2 -21498.4 -7.41406 
193 1 29.1941 5.73872 7.3986 6.01445 -32157.9 26192.9 -15393.2 110910 -9402.04 -13344 -7.41208 
194 1 29.8858 4.499 7.39942 6.00473 -31622.5 21624.5 12463.2 99526.5 17855.6 -19929.3 -7.41399 
195 1 31.3053 4.48803 7.4014 6.00814 -25931.9 19913 -13044.8 123481 -12085.4 -13579.5 -7.41231 
196 1 32.0317 5.70903 7.40319 6.00252 -37052.6 26713.2 16524.4 106606 19208.9 -19464.8 -7.41438 
197 1 33.4512 5.69901 7.40482 6.00733 -30014.2 24453.5 -17153.9 129239 -11895.7 -12178.3 -7.41214 
198 1 34.1436 4.45977 7.40551 5.99855 -29603.7 19784.2 13741.7 119447 19719.4 -17612.4 -7.41423 
199 1 35.5631 4.45083 7.40697 6.00105 -24013.3 18339.2 -14167.2 140546 -14229.4 -12043.4 -7.41238 
301 1 27.0834 6.99093 7.39567 6.01963 -38287.7 32562 -17002.2 97099.6 -6466.32 -12838.1 -7.41189 
302 1 27.8092 8.21205 7.39808 6.012 -52317.9 41363.9 20016.5 77696.7 17549.9 -22799 -7.41449 
303 1 29.2287 8.19965 7.40005 6.0178 -42569.2 37641.9 -21156.7 102546 -6491.82 -11681.5 -7.41175 
304 1 29.9202 6.95977 7.4007 6.00701 -44662.8 33919.9 18656.5 92619.2 18478.3 -21218.2 -7.41447 
305 1 31.3397 6.94859 7.40251 6.01253 -36165.5 31013.5 -19526.6 116507 -9311.84 -12061.5 -7.41192 
306 1 32.0652 8.17006 7.4046 6.00529 -49129.5 38166.9 22879.3 98210.7 19431.7 -20644.5 -7.41487 
307 1 33.4847 8.15978 7.40606 6.01102 -39382.7 34917.7 -23756.8 120806 -9148.11 -10756.3 -7.41176 
308 1 34.177 6.92041 7.40662 6.00078 -41406 30729.5 20715.7 112430 20254.5 -18734.9 -7.41476 
309 1 35.5965 6.91124 7.40792 6.00608 -32980.9 28201.6 -21358 133541 -11614.8 -10773.1 -7.41196 
18 1 36.2223 0.75222 7.40733 5.99162 -11023.2 3077.73 2731.93 133237 18560.4 -14644.7 -7.41351 
19 1 37.6419 0.744354 7.40879 5.99154 -10056.7 3444.44 -2792.31 152494 -18481.1 -12767.3 -7.41317 
20 1 40.4818 0.719901 7.4114 5.98677 -10934 3318.69 2729.79 149572 19941.8 -11995.3 -7.4136 
21 1 41.9015 0.713618 7.41243 5.98657 -10018.6 3723.04 -2761.97 165160 -19700.3 -10340.5 -7.41325 
22 1 44.7416 0.691189 7.41427 5.9831 -10729.1 3608.01 2652.07 162894 20939.3 -9173.67 -7.41365 
90 1 36.2559 3.21191 7.40765 5.99432 -22704.7 13561.5 10436.4 130958 20004.1 -15720.8 -7.41405 
91 1 37.6755 3.20395 7.40895 5.99545 -18687.8 12726.9 -10695.2 150324 -16306.9 -11675.9 -7.41265 
92 1 38.3687 1.96532 7.40961 5.99013 -16427.8 8044.23 6729.46 141014 20072.3 -13836.7 -7.41383 
93 1 39.7883 1.95826 7.41077 5.99061 -14010.3 7749.88 -6858.37 158571 -18128.9 -11099.7 -7.41295 
94 1 40.5146 3.17953 7.41168 5.98899 -20828.6 12011.7 10863.5 147243 21311.7 -12843.3 -7.41417 
95 1 41.9342 3.17315 7.41256 5.99005 -16895.9 11292.3 -11032.7 162986 -17641.8 -9487.52 -7.41271 
96 1 42.6279 1.93489 7.41304 5.98567 -15360 7362.42 6857.17 155871 21220.5 -10965.8 -7.41391 
97 1 44.0475 1.92924 7.41382 5.98599 -13010.9 7118.81 -6937.15 169632 -19200 -8692.66 -7.41301 
98 1 44.7737 3.15075 7.41455 5.98476 -18679.9 10343.7 11057.8 160513 22255.5 -9799.93 -7.41424 
200 1 36.2891 5.67217 7.40847 5.9968 -33966 23842.4 17906.9 125440 20842 -16763.7 -7.4146 
201 1 37.7087 5.66403 7.40962 6.00051 -27009.1 21950.2 -18353.2 144865 -13853.1 -10552.3 -7.41219 
202 1 38.4017 4.42524 7.41015 5.99297 -27026.2 17574.6 14582.5 137062 21191.3 -14786 -7.4144 
203 1 39.8213 4.41804 7.41116 5.9949 -21595.1 16248.7 -14872.2 154717 -15861.2 -10115.5 -7.41244 
204 1 40.5471 5.63964 7.41243 5.99198 -30275.1 20540.2 18783.6 141663 22098 -13674.4 -7.41475 
205 1 41.9666 5.63308 7.41317 5.99468 -23424.5 18831.1 -19079.4 157457 -15314 -8613.27 -7.41222 
206 1 42.6602 4.3947 7.41355 5.98796 -24021.6 15049.7 15062.5 151862 22286.9 -11695.7 -7.4145 
207 1 44.0798 4.38891 7.41419 5.98983 -18706.7 13799.8 -15248.3 165742 -17040.8 -7947.94 -7.41248 
208 1 44.8054 5.61069 7.41527 5.98731 -26150.7 16933.3 19266.7 154862 23008.6 -10420.2 -7.41484 
310 1 36.3217 8.133 7.40973 5.99952 -44617.6 33834.9 24949.3 116901 21002.8 -17772.1 -7.41514 
311 1 37.7412 8.12459 7.41071 6.00498 -34917.5 31030.7 -25574.9 136373 -11255.9 -9391.23 -7.41177 
312 1 38.4342 6.8857 7.41116 5.99556 -37201.3 26864.5 22119.2 129953 21672.7 -15711.9 -7.41497 
313 1 39.8537 6.87826 7.41201 6.00029 -28929.7 24558.1 -22560.1 147663 -13387 -9102.35 -7.41198 
314 1 40.5789 8.10023 7.41359 5.99481 -39148.4 28786.7 26309.9 133012 22227.3 -14489.7 -7.41533 
315 1 41.9984 8.09339 7.41418 5.99986 -29553.1 26283.8 -26725.2 148899 -12847.9 -7712.84 -7.41178 
316 1 42.692 6.85495 7.4145 5.99132 -32312.7 22492.3 22977.2 144655 22737.4 -12416.3 -7.4151 
317 1 44.1115 6.84892 7.41498 5.99474 -24163.8 20346.2 -23259.3 158628 -14683.4 -7184.53 -7.412 
318 1 44.8366 8.07103 7.41638 5.99105 -33093.2 23308.3 27110.2 146130 23125 -11036.4 -7.41544 
23 1 46.1612 0.686152 7.41495 5.98278 -9902.89 3865.45 -2669.58 174667 -20542.3 -7753.38 -7.41331 
24 1 49.0014 0.665262 7.41617 5.98061 -10542.6 3738.79 2524.11 173036 21613.3 -6311.45 -7.41367 
25 1 50.421 0.661123 7.41659 5.98017 -9759.91 3875.3 -2536.47 180988 -21077.1 -5106.57 -7.41335 
26 1 53.2613 0.641279 7.4173 5.97909 -10217.2 3719.32 2366.21 179986 22021.2 -3474.69 -7.41368 
99 1 46.1933 3.14562 7.41509 5.98578 -14852.9 9590.88 -11163.1 172428 -18573.3 -7129.23 -7.41276 
100 1 46.8874 1.90765 7.41542 5.98236 -14162.2 6559.45 6855.46 167584 22023.9 -8002.58 -7.41396 
101 1 48.307 1.90307 7.41589 5.98255 -11871.2 6262.35 -6904.73 177499 -19917.1 -6176.92 -7.41305 
102 1 49.033 3.12475 7.41647 5.98165 -16375.4 8493.12 11090.1 170596 22893.7 -6727.31 -7.41427 
103 1 50.4526 3.12053 7.41675 5.98266 -12619.7 7723.36 -11152.2 178683 -19172.1 -4697.71 -7.41279 
104 1 51.1471 1.88278 7.41693 5.98006 -12798.7 5644.71 6769.12 176097 22543.1 -5045.36 -7.41398 
105 1 52.5667 1.87893 7.41716 5.98028 -10549.2 5239.78 -6799.09 182199 -20344.8 -3624.35 -7.41307 
106 1 53.2926 3.10069 7.41764 5.9797 -13755.2 6485.52 11017.4 177464 23281.2 -3690.73 -7.41429 
209 1 46.225 5.60538 7.41567 5.98992 -19432 15314.9 -19449.8 166839 -16345.4 -6492.62 -7.41225 
210 1 46.9191 4.36734 7.41592 5.98408 -20748.4 12297.7 15277.5 163505 23054.9 -8520.33 -7.41456 
211 1 48.3387 4.36263 7.41626 5.98588 -15523.9 11073 -15389.2 173549 -17839.9 -5658.01 -7.41251 
212 1 49.0643 5.58452 7.4172 5.98377 -21706.6 13160.3 19470.8 164867 23627.2 -7143.29 -7.41489 
213 1 50.4839 5.58011 7.41734 5.98628 -15069 11527.8 -19573.1 173010 -17017.2 -4283.28 -7.41227 
214 1 51.1784 4.34234 7.41746 5.98134 -17184.4 9418.75 15313.7 171945 23552.7 -5360.64 -7.41459 
215 1 52.598 4.33836 7.41755 5.98305 -12027.1 8084.33 -15372.9 178158 -18323.5 -3316.96 -7.41253 
216 1 53.3236 5.56029 7.41838 5.98127 -16907.4 9180.28 19491.5 171630 24004.8 -3909.61 -7.41491 
319 1 46.2561 8.06543 7.41664 5.9951 -23627.6 20943.2 -27364.9 158233 -13985.3 -5840.07 -7.41179 
320 1 46.9503 6.82737 7.41684 5.98702 -26949.3 17794.9 23428.2 156243 23489.3 -9037.37 -7.41518 
321 1 48.3699 6.82242 7.41704 5.9903 -18890.7 15789.9 -23594 166364 -15572.6 -5129.05 -7.41202 
322 1 49.095 8.04458 7.41829 5.987 -26490.4 17590.1 27508.3 156058 23740.9 -7561.7 -7.41551 
323 1 50.5146 8.03989 7.41829 5.99059 -17130 15259.6 -27645.1 164326 -14735.8 -3861.06 -7.4118 
324 1 51.2092 6.80214 7.41838 5.98375 -21197.5 12915.3 23600.9 164609 23979.9 -5679.32 -7.41522 
325 1 52.6288 6.79793 7.41834 5.98656 -13215.2 10912.7 -23681.2 170870 -16118.5 -3006.46 -7.41203 
326 1 53.354 8.02006 7.41948 5.98404 -19530.9 11636.7 27635.3 162768 24120.3 -4133.41 -7.41554 
27 1 54.6809 0.637695 7.41749 5.97872 -9464.8 3667.14 -2377.47 184132 -21359 -2446.33 -7.41337 
28 1 57.5213 0.618394 7.41777 5.97822 -9696.06 3443.52 2193.32 183681 22204.8 -679.367 -7.41368 
29 1 58.9409 0.615015 7.41775 5.97831 -8947.44 3247.96 -2201.25 184073 -21420.5 222.129 -7.41338 
30 1 61.7813 0.595756 7.41763 5.9781 -9062.84 2938.7 2013.15 184209 22183.8 2088.7 -7.41367 
107 1 54.7122 3.09703 7.41769 5.98063 -10020.2 5594.68 -11048.6 181708 -19493.6 -2240.68 -7.4128 
108 1 55.4069 1.85942 7.41774 5.97886 -11228.7 4517.31 6631.24 181357 22827.5 -2131.53 -7.41398 
109 1 56.8265 1.85596 7.41775 5.97904 -9011.09 3942.16 -6645.93 183686 -20527.2 -1060.22 -7.41309 
110 1 57.5525 3.07773 7.41815 5.97875 -10926.2 4253.87 10880.5 181080 23458.9 -701.807 -7.41429 
111 1 58.9721 3.07427 7.418 5.97931 -7220.76 3185.58 -10882.6 181533 -19572 231.256 -7.41282 
112 1 59.6669 1.83674 7.41792 5.97799 -9479.67 3184.14 6461.8 183418 22908.4 743.914 -7.41397 
113 1 61.0865 1.83331 7.41774 5.97856 -7277.06 2377.35 -6457.99 181996 -20485.5 1520.39 -7.4131 
114 1 61.8126 3.05501 7.41806 5.97811 -7949.13 1804.49 10696.9 181485 23446.6 2258.95 -7.41428 
217 1 54.7432 5.55644 7.4183 5.98333 -10317.3 7483.67 -19532.9 175970 -17385 -2034.71 -7.41228 
218 1 55.438 4.31886 7.4183 5.97961 -13362.7 6307.91 15236.1 177138 23827.6 -2251.55 -7.4146 
219 1 56.8576 4.31527 7.41819 5.98091 -8235.07 4847.13 -15252.7 179548 -18536.8 -954.09 -7.41254 
220 1 57.5834 5.53714 7.41893 5.97988 -11777.8 4984.76 19392.6 175162 24181 -727.902 -7.41491 
221 1 59.003 5.5335 7.41865 5.9815 -5195.26 3116.66 -19379.7 175705 -17483.4 236.136 -7.41229 
222 1 59.698 4.29605 7.41853 5.97888 -9295.96 2959.16 15082.8 179081 23910 815.946 -7.41459 
223 1 61.1176 4.29249 7.41822 5.97991 -4168.62 1320.9 -15056 177716 -18501.4 1428.76 -7.41255 
224 1 61.8436 5.51423 7.41888 5.97935 -6537.04 530.284 19204.2 175480 24175 2425.23 -7.4149 
327 1 54.7736 8.01593 7.41926 5.98712 -10196.4 9312.15 -27682.2 167188 -15154 -1828.34 -7.41181 
328 1 55.4687 6.77843 7.41924 5.98157 -15111.4 7894.37 23590.8 169722 24253.4 -2376.37 -7.41523 
329 1 56.8883 6.7746 7.419 5.98391 -7159.79 5733.01 -23601.9 172163 -16366.8 -850.632 -7.41205 
330 1 57.6137 7.99663 7.42004 5.98217 -12166.7 5493.67 27581 166212 24299.8 -759.107 -7.41554 
331 1 59.0333 7.99271 7.41963 5.98478 -2851.44 2989.06 -27548.8 166819 -15274.7 234.813 -7.41182 
332 1 59.7287 6.75538 7.41951 5.98048 -8770.82 2586.32 23454.7 171605 24338.7 883.299 -7.41522 
333 1 61.1483 6.75159 7.41906 5.98241 -836.159 195.331 -23398.1 170231 -16339.2 1328.69 -7.41205 
334 1 61.874 7.97343 7.42002 5.98144 -4705.95 -931.632 27385.4 166440 24298.5 2586.95 -7.41553 
442 1 59.7587 9.21473 7.42076 5.98313 -7896.5 2109.29 31427.2 161212 24145.2 946.094 -7.41585 
443 1 61.1784 9.21062 7.42019 5.98596 2703.61 -780.313 -31338.6 159941 -14111.1 1218.3 -7.4116 
31 1 63.2009 0.592232 7.41741 5.97865 -8326.29 2559.57 -2012.46 180851 -21269.3 2914.31 -7.41339 
32 1 66.0413 0.572508 7.41686 5.97911 -8212.43 2215.77 1828.42 181556 21955.5 4849.32 -7.41364 
33 1 67.4609 0.568488 7.41642 5.98012 -7506.26 1616.5 -1814.2 174395 -20889.4 5643.57 -7.41338 
34 1 70.3014 0.547801 7.41538 5.98128 -7376.83 1275.8 1637.06 175742 21491.7 7604.71 -7.41361 
35 1 71.721 0.542942 7.41468 5.98218 -6698.34 495.232 -1608.6 164730 -20241.8 8398.01 -7.41336 
115 1 63.2322 3.05141 7.41771 5.97914 -4258.16 458.555 -10664.8 178175 -19415.2 2726.62 -7.41282 
116 1 63.927 1.81388 7.4175 5.97818 -7627.3 1570.11 6268.01 182307 22794.5 3603.58 -7.41396 
117 1 65.3466 1.81012 7.41712 5.9792 -5431.77 564.723 -6239.38 177090 -20215.5 4131.12 -7.4131 
118 1 66.0729 3.03168 7.41734 5.97863 -4919.61 -892.74 10465.7 178729 23242.4 5217.09 -7.41425 
119 1 67.4926 3.02758 7.41677 5.98012 -1236.36 -2445.66 -10391 171644 -19007.4 5251.34 -7.41282 
120 1 68.1873 1.78998 7.41642 5.97952 -5700.92 -258.45 6043.61 178031 22471 6464.51 -7.41393 
121 1 69.6069 1.78556 7.41579 5.981 -3510.65 -1466.26 -5984.38 169004 -19688.9 6772.28 -7.41309 
122 1 70.3334 3.00688 7.4159 5.98031 -1898.84 -3789.25 10166 172836 22820.6 8178.57 -7.4142 
123 1 71.7531 3.00195 7.41507 5.98223 1786.64 -5571.75 -10040.9 161914 -18309.2 7787.44 -7.41281 
225 1 63.2632 5.51046 7.4184 5.98082 45.9263 -1568.72 -19132.2 172222 -17320.9 2529.7 -7.4123 
226 1 63.9583 4.27305 7.41816 5.97857 -5158.89 -636.843 14863.6 177851 23809.7 3869.75 -7.41457 
227 1 65.378 4.26917 7.41764 5.98006 -12.1742 -2468.41 -14785.6 172721 -18213.7 3837.14 -7.41256 
228 1 66.1042 5.49071 7.41821 5.97938 -1233.46 -4109.71 18920.4 172651 23986.5 5579.62 -7.41487 
229 1 67.5239 5.48645 7.41751 5.98131 5348.48 -6542.1 -18777.7 165563 -16881.6 4843.47 -7.4123 
230 1 68.2189 4.24901 7.41712 5.97943 -1034.87 -4394.54 14562.1 173501 23513.3 6930.72 -7.41454 
231 1 69.6386 4.24447 7.41636 5.98136 4125.25 -6529.42 -14421.5 164530 -17644.9 6263.95 -7.41256 
232 1 70.3652 5.46573 7.41681 5.9806 3868.42 -8963.85 18503.4 166690 23593.1 8743.95 -7.41482 
233 1 71.7849 5.46063 7.41585 5.98297 10468 -11684.6 -18274.5 155773 -16125.6 7152.49 -7.4123 
335 1 63.2937 7.96938 7.41941 5.98362 4634.12 -3639.42 -27270 163243 -15106.8 2319.58 -7.41183 
336 1 63.9892 6.73214 7.41917 5.98015 -2448.21 -2947.03 23205.5 170280 24246.7 4131.04 -7.4152 
337 1 65.4089 6.72803 7.41852 5.98207 5526.48 -5605.74 -23071.8 165114 -16032.4 3528.23 -7.41206 
338 1 66.1349 7.94962 7.41938 5.98128 2786.56 -7546.46 27039.5 163516 24117.6 5936.87 -7.41549 
339 1 67.5547 7.94508 7.41856 5.98364 12150.8 -10662.6 -26825.5 156495 -14633.7 4414.14 -7.41183 
340 1 68.2502 6.70786 7.41817 5.98054 3835.5 -8750.63 22816.1 165839 23966.3 7390.52 -7.41516 
341 1 69.6699 6.70309 7.41729 5.9829 11858.3 -11665 -22588.7 156858 -15417.1 5732.44 -7.41207 
342 1 70.3964 7.92435 7.41802 5.98207 9950.28 -14353 26488 157542 23738.9 9300.93 -7.41543 
343 1 71.8162 7.91898 7.41694 5.98484 19337.6 -17839.4 -26152.6 146654 -13815.7 6485.78 -7.41184 
446 1 64.0194 9.19115 7.42045 5.98276 625.234 -5384.33 31141.2 159838 24056.8 4387.74 -7.41582 
447 1 65.4391 9.18673 7.41967 5.98515 11268.8 -8597.3 -30950.2 154710 -13784.3 3200.47 -7.41161 
450 1 68.2808 9.16653 7.41948 5.98278 9007.39 -13147.7 30647.9 155342 23781.6 7844.04 -7.41577 
451 1 69.7006 9.16145 7.41847 5.98553 19706.9 -16724 -30332.1 146398 -13120 5172.06 -7.41162 
36 1 74.5614 0.520793 7.41303 5.98463 -6425.82 208.797 1437.21 166750 20742.9 10317.8 -7.41355 
37 1 75.9811 0.514748 7.41199 5.98546 -5813.93 -733.578 -1397.99 151906 -19270.9 11120.1 -7.41333 
38 1 78.8214 0.490655 7.40959 5.98919 -5620.43 -944.926 1227.49 154585 19642 12895.5 -7.41346 
39 1 80.2411 0.483081 7.40814 5.98992 -5024.83 -1904.11 -1184.65 136054 -17914.4 13690.9 -7.41326 
124 1 72.4476 1.76419 7.41454 5.98203 -3765.37 -2276.22 5774.17 170580 21900.3 9312.68 -7.41387 
125 1 73.8673 1.75876 7.41361 5.98346 -1571.81 -3592.91 -5681.26 157729 -18857.7 9409.13 -7.41307 
126 1 74.5941 2.97979 7.41358 5.9832 1013.28 -6726.11 9764.65 163815 22134.6 11107.6 -7.41413 
127 1 76.0138 2.97368 7.41241 5.98517 4666.11 -8777.65 -9582.11 149062 -17264 10274.3 -7.41279 
128 1 76.708 1.73569 7.41169 5.98577 -2028.39 -4342.21 5438.29 160009 21023.9 12084.5 -7.41379 
129 1 78.1277 1.72891 7.41039 5.98712 159.358 -5788.19 -5311.52 143344 -17660 11954.5 -7.41303 
130 1 78.8549 2.94957 7.41016 5.98734 3598.02 -9664.91 9217.28 151669 21121 13907.8 -7.41401 
131 1 80.2747 2.94193 7.40858 5.98929 7271.12 -11798.1 -8972.82 133223 -15809.8 12595.5 -7.41274 
132 1 80.9684 1.70366 7.40762 5.99073 -387.158 -6262.99 5013.54 146335 19772.5 14653.6 -7.41366 
234 1 72.4798 4.22309 7.41529 5.98148 2920.55 -8322.62 14137.8 166026 22986.8 9987.77 -7.41447 
235 1 73.8996 4.21754 7.41423 5.98385 8118.16 -10665 -13922.7 153210 -16746.5 8669.28 -7.41255 
236 1 74.6265 5.43846 7.41453 5.98306 8776.93 -13818.8 17887.4 157641 22952.2 11882.6 -7.41473 
237 1 76.0463 5.43217 7.41324 5.98585 15380.6 -16891 -17555.4 142900 -14996.3 9392.59 -7.4123 
238 1 76.741 4.19446 7.41246 5.98478 6529.99 -12246.5 13532.7 155438 22175.7 12975.5 -7.41437 
239 1 78.1607 4.18755 7.41104 5.98727 11754.6 -14798.1 -13231.8 138828 -15456.5 10965.1 -7.41252 
240 1 78.8881 5.40806 7.41114 5.9868 13035 -18525.2 16986.7 145539 22006.7 14895 -7.41459 
241 1 80.3079 5.40026 7.40945 5.98983 19702 -21764.8 -16535.6 127124 -13432.1 11449.8 -7.41227 
242 1 81.0023 4.1623 7.40841 5.98937 9774.68 -15832 12678 141813 21015.7 15760.6 -7.41421 
344 1 72.5116 6.68171 7.41638 5.98215 9774.56 -14601.5 22221.3 158328 23467.8 10651.6 -7.41508 
345 1 73.9314 6.67593 7.4152 5.98494 17884.7 -17810.1 -21879.4 145509 -14444.8 7895.49 -7.41206 
346 1 74.6584 7.89679 7.41578 5.98411 16757.8 -21091.7 25634 148489 23125.3 12642.3 -7.41532 
347 1 76.0782 7.89024 7.41437 5.98731 26158.6 -25071.3 -25150.5 133790 -12596.2 8466.68 -7.41185 
348 1 76.7735 6.65285 7.41359 5.98505 15250.4 -20404.3 21326.3 147764 22703 13846.8 -7.41496 
349 1 78.1933 6.64572 7.41205 5.98824 23404.1 -23891.6 -20847.6 131170 -13053.8 9928.31 -7.41206 
350 1 78.9208 7.86614 7.41244 5.98749 22647.6 -27565.6 24351.8 136450 22228.3 15854.8 -7.41515 
351 1 80.3407 7.85807 7.41064 5.99105 32121.3 -31798.4 -23693.4 118122 -10915.7 10245.1 -7.41185 
352 1 81.0357 6.62048 7.40959 5.98928 20050.6 -25642.5 20018.6 134230 21615 16834.3 -7.41477 
454 1 72.5428 9.14004 7.41771 5.98398 16865.8 -20977.6 29858.3 147817 23295.6 11303.7 -7.41568 
455 1 73.9627 9.13395 7.41642 5.98715 27671.5 -24899.3 -29388.2 135020 -12070 7080.89 -7.41163 
458 1 76.8054 9.11086 7.41497 5.98651 24115.9 -28620.2 28641.7 137282 22558.7 14696 -7.41553 
459 1 78.2253 9.10343 7.41332 5.99005 34981.6 -32894.1 -27984.8 120773 -10573.9 8837.08 -7.41165 
462 1 81.0684 9.0782 7.41103 5.99041 30372.1 -35515.7 26845.2 123879 21524.8 17869.5 -7.4153 
40 1 83.0814 0.45658 7.40483 5.99494 -5035.72 -2078.24 1008.87 139431 18117.8 15185.8 -7.41332 
41 1 84.501 0.447161 7.4029 5.99541 -4500.14 -3043.61 -971.666 117565 -16123.7 15930.6 -7.41315 
42 1 87.3412 0.417845 7.39856 6.00176 -4507.64 -3019 786.139 121597 16120.6 16993.4 -7.41314 
43 1 88.7609 0.406307 7.3961 6.00133 -4059.64 -3927.63 -762.016 97113.9 -13893.5 17627 -7.41298 
133 1 82.3881 1.69518 7.40587 5.99206 1714.21 -7874.12 -4855.63 126121 -16037.8 14260.8 -7.41296 
134 1 83.1158 2.91543 7.4054 5.99273 5636.35 -12336.3 8478.17 136572 19712.3 16415.9 -7.41385 
135 1 84.5356 2.90594 7.40335 5.99407 9282.77 -14591.6 -8170.85 114818 -13897.7 14582.6 -7.41267 
136 1 85.2288 1.66731 7.40211 5.99687 808.029 -8040.2 4479.11 129827 18083 16834.3 -7.41349 
137 1 86.6485 1.65684 7.39986 5.99733 2891.64 -9612.22 -4295.3 106587 -13959.6 16134.7 -7.41284 
138 1 87.3767 2.87663 7.39912 5.99929 7187.13 -14471.2 7513.67 118864 17863.8 18416.9 -7.41361 
139 1 88.7965 2.86503 7.39654 5.9997 10760.3 -16794.2 -7148.49 94513.3 -11522.6 16044.2 -7.41256 
140 1 89.4891 1.62599 7.39502 6.00406 1561.53 -9384.06 3828.73 110940 15931.8 18413.7 -7.41324 
243 1 82.422 4.15371 7.40655 5.99157 14947.5 -18656.2 -12282.7 121674 -13717.6 13010.2 -7.41248 
244 1 83.15 5.37376 7.40642 5.99186 16502.8 -22728.2 15710.4 130532 20695.5 17606.1 -7.41438 
245 1 84.5698 5.36412 7.40426 5.99392 23174 -26147.7 -15129.8 108856 -11386.6 13166.4 -7.41224 
246 1 85.2637 4.12585 7.40292 5.9952 12200 -18968.7 11509.9 125401 19449.8 18141.8 -7.41399 
247 1 86.6835 4.11528 7.40056 5.99644 17352.1 -21868.3 -11018.6 102306 -11500.2 14626.8 -7.41241 
248 1 87.412 5.33484 7.40018 5.99816 19010.3 -26018.2 13989.3 113008 18982.4 19780.2 -7.41409 
249 1 88.8318 5.32309 7.39752 5.99928 25587.9 -29666.3 -13281.9 88770 -8857.17 14371.1 -7.41218 
250 1 89.5251 4.08445 7.39585 6.00218 13712.7 -21254.2 9995.85 106691 17461.7 19880.3 -7.41369 
353 1 82.4556 6.61168 7.40762 5.99216 28175.9 -29496.1 -19383.7 114143 -11189.1 11696.2 -7.41205 
354 1 83.1836 7.8316 7.40778 5.99224 27474.8 -33260.1 22508 121590 20996.8 18751.3 -7.4149 
355 1 84.6035 7.82171 7.40553 5.99491 36951.4 -37764.1 -21655.6 100075 -8731.05 11674.9 -7.41185 
356 1 85.2981 6.58385 7.40416 5.99483 23666.9 -30082.8 18193.2 117986 20156.3 19397.1 -7.4145 
357 1 86.718 6.57308 7.40171 5.99673 31741 -34215.1 -17394.7 94992.7 -8824.49 13037.2 -7.41202 
358 1 87.4466 7.79248 7.40163 5.99831 30867.6 -37709.4 20003.3 104285 19406.4 21074.1 -7.41456 