ITEM: TIMESTEP
0
ITEM: NUMBER OF ATOMS
18152
ITEM: BOX BOUNDS pp pp pp
0.0000000000000000e+00 1.1715644600000000e+02
0.0000000000000000e+00 2.0292091700000000e+02
0.0000000000000000e+00 1.8399999600000001e+01
ITEM: ATOMS id type x y z c_csym c_2[1] c_2[2] c_2[3] c_2[4] c_2[5] c_2[6] c_3 
1 1 0 0 7.5 6.04904 5041.62 4867.58 -158718 -33.9332 0.0327816 0.320882 -7.40754 
2 1 2.14279 1.20733 7.5 6.04912 4282.7 6220.21 -158227 -1904.11 3022.41 -5341.37 -7.40757 
3 1 3.56271 1.19242 7.5 6.04918 6296.19 4117.38 -157664 3246.07 2609.5 -8350.26 -7.4076 
4 1 6.40256 1.16261 7.5 6.04918 4404.45 5570.85 -155298 -5461.47 3780.09 -15470.1 -7.40774 
5 1 7.82248 1.14771 7.5 6.04918 6219.08 3669.35 -154173 6841.51 1151.22 -17512.7 -7.40781 
56 1 0.0258168 2.45938 7.5 6.04906 2829.23 7137.09 -158261 -69.1658 5816.12 -44.5508 -7.40757 
57 1 1.44574 2.44447 7.5 6.04912 7318.43 3201.18 -158086 1365.03 6049.28 -3311.9 -7.40757 
58 1 2.16861 3.66671 7.5 6.04912 1993.67 8441.85 -157300 -1849.87 8573.4 -5599.07 -7.40762 
59 1 3.58853 3.6518 7.5 6.0492 8289.08 2093.71 -156784 3364.98 8773.98 -7855.13 -7.40765 
60 1 4.28558 2.41466 7.5 6.04918 3222.76 7086.54 -156705 -3626.72 6094.73 -10784.1 -7.40766 
61 1 5.7055 2.39976 7.5 6.04918 7298.11 2991.28 -156002 5153.56 5023.45 -12704.2 -7.4077 
62 1 6.42837 3.62199 7.5 6.0492 2100.34 7691.95 -154103 -5239.89 9119.72 -16153.8 -7.40781 
63 1 7.8483 3.60709 7.5 6.0492 8238.22 1799.13 -153728 7063.58 7083.69 -16400 -7.40783 
64 1 8.54535 2.36994 7.5 6.04918 3339.41 6125.47 -152205 -6964.77 7115.92 -20516.2 -7.40793 
166 1 0.0516335 4.91875 7.5 6.04906 497.588 9284.22 -156970 -135.945 11120.1 -81.6877 -7.40765 
167 1 1.47156 4.90385 7.5 6.04912 9165.03 1081.75 -156586 1465.98 12293.5 -3131.6 -7.40766 
168 1 2.19442 6.12608 7.5 6.04912 -357.671 10557.2 -155610 -1816.73 13524.4 -5791.12 -7.40772 
169 1 3.61435 6.11118 7.5 6.0492 10013.7 28.3681 -154859 3503.49 14955.2 -7279.7 -7.40777 
170 1 4.3114 4.87404 7.5 6.0492 876.38 9189.55 -155282 -3509.77 11284.8 -11195.2 -7.40774 
171 1 5.73132 4.85913 7.5 6.0492 9163.54 973.48 -154794 5352.61 11130.7 -11826 -7.40777 
172 1 6.45419 6.08137 7.5 6.0492 -270.87 9715.17 -152173 -5020.65 13866.6 -16664 -7.40793 
173 1 7.87411 6.06646 7.5 6.0492 9990.39 -105.698 -152277 7278.72 13057 -15118.8 -7.40792 
174 1 8.57116 4.82932 7.5 6.0492 966.923 8085.69 -150409 -6685.91 12011.9 -21294.7 -7.40803 
276 1 0.0774503 7.37813 7.5 6.04906 -1845.12 11383.7 -154987 -199.48 15744.4 -112.942 -7.40776 
277 1 1.49737 7.36322 7.5 6.04912 10739.3 -991.32 -154009 1554.45 18451.4 -2922.72 -7.40781 
278 1 2.22024 8.58546 7.5 6.04912 -2680.34 12612.6 -153308 -1769.14 17731.1 -5923.21 -7.40786 
279 1 3.64016 8.57055 7.5 6.0492 11443.9 -1973.19 -151855 3612.89 20964.5 -6631.78 -7.40795 
280 1 4.33722 7.33341 7.5 6.0492 -1479.25 11245.4 -153179 -3368.49 15801.8 -11487.7 -7.40787 
281 1 5.75714 7.31851 7.5 6.0492 10757.3 -994.449 -152534 5509.89 17169.2 -10827 -7.40791 
282 1 6.48001 8.54074 7.5 6.0492 -2615.02 11688.8 -149660 -4767.11 17884 -17011.4 -7.40808 
283 1 7.89993 8.52584 7.5 6.0492 11447.7 -1942.31 -149781 7437.58 18890.6 -13688.5 -7.40807 
284 1 8.59698 7.2887 7.5 6.0492 -1416.53 10013.1 -147976 -6362.38 16249.6 -21860.1 -7.40818 
6 1 10.6623 1.1179 7.5 6.04918 4541.09 4477.25 -149738 -8677.78 5346.96 -24164.5 -7.40807 
7 1 12.0822 1.10299 7.5 6.04918 6183 2866.86 -148415 10004.7 -1234.82 -25040.3 -7.40815 
8 1 14.9221 1.07318 7.5 6.04918 4697.18 3057.72 -142064 -11369.5 7638.58 -30810.2 -7.40853 
9 1 16.342 1.05828 7.5 6.04918 6196.21 1788.67 -140889 12558.6 -4387.06 -30509.1 -7.40861 
65 1 9.96527 2.35504 7.5 6.04918 7256.53 2456.44 -151609 8607.08 2925.86 -20848.8 -7.40796 
66 1 10.6881 3.57727 7.5 6.0492 2204.58 6405.8 -148029 -8321.11 10316.3 -25249.6 -7.40818 
67 1 12.1081 3.56237 7.5 6.0492 8240.86 1242.42 -148691 10303.8 4321.05 -23403 -7.40814 
68 1 12.8051 2.32523 7.5 6.04918 3466.42 4735.9 -145191 -9883.58 8843.89 -28437.1 -7.40835 
69 1 14.225 2.31032 7.5 6.04918 7265.92 1647.04 -145312 11516.9 -84.8776 -27147.7 -7.40834 
70 1 14.9479 3.53256 7.5 6.0492 2319.07 4720.28 -139618 -10917.4 12138.1 -32253.2 -7.40868 
71 1 16.3678 3.51765 7.5 6.0492 8297.3 472.8 -142124 12905.3 705.273 -28470.8 -7.40853 
72 1 17.0649 2.28051 7.5 6.04918 3613.74 3044.56 -136264 -12221.3 11205.9 -34121.9 -7.40888 
175 1 9.99109 4.81442 7.5 6.0492 9156.3 645.911 -151009 8885.23 8737.02 -19356.2 -7.408 
176 1 10.714 6.03665 7.5 6.0492 -200.591 8251.9 -145639 -7947.85 14703.4 -26080.2 -7.40832 
177 1 12.1339 6.02175 7.5 6.0492 10032.1 -407.589 -148021 10576.1 9956.68 -21538.4 -7.40818 
178 1 12.8309 4.78461 7.5 6.0492 1054.89 6472.75 -142798 -9480.48 13315.1 -29566.1 -7.40849 
179 1 14.2509 4.7697 7.5 6.0492 9207.12 121.9 -145594 11849.8 5318.4 -25168.2 -7.40832 
180 1 14.9737 5.99194 7.5 6.0492 -130.691 6319.7 -136565 -10433.6 16066.2 -33397 -7.40886 
181 1 16.3936 5.97703 7.5 6.0492 10129.6 -862.187 -142484 13214 5924.94 -26180.3 -7.40851 
182 1 17.0907 4.73989 7.5 6.0492 1156.33 4497.29 -133076 -11737.4 15184.8 -35566.1 -7.40907 
285 1 10.0169 7.27379 7.5 6.0492 10784.1 -1107.66 -149407 9098.23 14517.4 -17672.6 -7.40809 
286 1 10.7398 8.49603 7.5 6.0492 -2581 10067 -142721 -7521.02 18384.5 -26669.7 -7.40849 
287 1 12.1597 8.48112 7.5 6.0492 11525.9 -1984.18 -146357 10772.8 15504.6 -19473.4 -7.40828 
288 1 12.8567 7.24398 7.5 6.0492 -1369.52 8196.17 -139835 -9014.9 17147 -30419 -7.40867 
289 1 14.2767 7.22908 7.5 6.0492 10874.9 -1339.61 -144935 12101.8 10742.8 -22958.4 -7.40836 
290 1 14.9995 8.45131 7.5 6.0492 -2559.61 7908.9 -133059 -9879.95 19314.6 -34255 -7.40908 
291 1 16.4195 8.43641 7.5 6.0492 11660.8 -2120.52 -141909 13436.6 11120 -23667.8 -7.40854 
292 1 17.1165 7.19927 7.5 6.0492 -1319.35 5955.96 -129398 -11177.8 18542.1 -36707.6 -7.4093 
10 1 19.1819 1.02847 7.5 6.04918 4879.42 1410.46 -132898 -13396.2 10530.4 -35194.9 -7.40909 
11 1 20.6018 1.01356 7.5 6.04918 6261.26 480.941 -132162 14386.6 -8104.51 -33873.3 -7.40913 
12 1 23.4416 0.983751 7.5 6.04918 5087.77 -425.444 -122862 -14671.8 13864.7 -37446.1 -7.40969 
13 1 24.8615 0.968845 7.5 6.04918 6371.47 -1066.79 -122779 15430.4 -12168.4 -35351 -7.4097 
73 1 18.4848 2.26561 7.5 6.04918 7326.37 614.112 -137632 13736.2 -3793.32 -31384 -7.4088 
74 1 19.2077 3.48784 7.5 6.0492 2457.4 2759.06 -129530 -12890.1 14525.1 -36930.8 -7.40929 
75 1 20.6276 3.47294 7.5 6.0492 8400.18 -497.045 -134536 14754.4 -3501.68 -31569.9 -7.40899 
76 1 21.3246 2.2358 7.5 6.04918 3789.45 1136.43 -126079 -13862.5 14090 -37533.4 -7.4095 
77 1 22.7446 2.22089 7.5 6.04918 7432.03 -638.189 -129107 15181.4 -7958.14 -33667.2 -7.40931 
78 1 23.4674 3.44313 7.5 6.0492 2626.53 585.392 -118432 -14145.1 17372.5 -39388.2 -7.40996 
79 1 24.8874 3.42822 7.5 6.0492 8534.59 -1702.94 -126409 15801.9 -8032.12 -32915.6 -7.40948 
80 1 25.5844 2.19108 7.5 6.04918 3992.58 -970.241 -115254 -14742.7 17347.5 -38902.7 -7.41015 
81 1 27.0043 2.17618 7.5 6.04918 7567.83 -2155.94 -120214 15825.3 -12338.7 -34278 -7.40985 
183 1 18.5106 4.72498 7.5 6.0492 9307.77 -580.647 -139009 14098.8 1148.72 -29066.4 -7.40872 
184 1 19.2335 5.94722 7.5 6.0492 -43.4543 4060.36 -125638 -12342 17956.1 -38358.7 -7.40952 
185 1 20.6534 5.93231 7.5 6.0492 10266 -1489.78 -136109 15082.3 1277.87 -29019.2 -7.40889 
186 1 21.3505 4.69517 7.5 6.0492 1285.25 2267.1 -121935 -13339.7 17568.3 -39233.3 -7.40975 
187 1 22.7704 4.68027 7.5 6.0492 9442.45 -1489.12 -131726 15556.4 -3477.04 -31160.3 -7.40916 
188 1 23.4933 5.9025 7.5 6.0492 74.8488 1560.77 -113557 -13572.7 20319.3 -41040.8 -7.41025 
189 1 24.9132 5.8876 7.5 6.0492 10417 -2355.11 -129311 16139 -3673.7 -30256.7 -7.4093 
190 1 25.6102 4.65046 7.5 6.0492 1447.52 -175.981 -110033 -14212 20359.7 -40772.2 -7.41046 
191 1 27.0301 4.63555 7.5 6.0492 9588.63 -2671.47 -124163 16202.4 -8281.31 -31716.2 -7.40961 
293 1 18.5364 7.18436 7.5 6.0492 11011.8 -1708.25 -139512 14375.5 6169.58 -26509.9 -7.40869 
294 1 19.2593 8.4066 7.5 6.0492 -2531.52 5371.03 -121373 -11711.2 20730.2 -39489.5 -7.40978 
295 1 20.6792 8.39169 7.5 6.0492 11824.4 -2407.07 -136810 15323.9 6097.6 -26250.1 -7.40885 
296 1 21.3763 7.15455 7.5 6.0492 -1247.54 3418.75 -117381 -12732 20437.9 -40635.2 -7.41002 
297 1 22.7962 7.13964 7.5 6.0492 11169.2 -2273.7 -133541 15847.8 1138.53 -28429.2 -7.40905 
298 1 23.5191 8.36188 7.5 6.0492 -2477.98 2559.75 -108389 -12910.8 22624.2 -42410.6 -7.41056 
299 1 24.939 8.34697 7.5 6.0492 11985 -2935.59 -131402 16396.4 783.374 -27399.1 -7.40918 
300 1 25.636 7.10983 7.5 6.0492 -1142 649.025 -104480 -13594.8 22768.8 -42369.2 -7.4108 
14 1 27.7014 0.939035 7.5 6.04918 5311.9 -2471.64 -112508 -15161.5 17461.1 -37867.7 -7.41031 
15 1 29.1213 0.924129 7.5 6.04918 6510.57 -2904.58 -113207 15680.9 -16359.8 -35243.8 -7.41027 
16 1 31.9611 0.894319 7.5 6.04918 5535.07 -4767.93 -102298 -14872.4 21127.9 -36756.6 -7.41093 
17 1 33.3811 0.879413 7.5 6.04918 6658.52 -5072.16 -103833 15163.3 -20470.3 -33776.7 -7.41084 
82 1 27.7272 3.39841 7.5 6.0492 2824.11 -1798.5 -106923 -14637.1 20531.9 -39911.1 -7.41065 
83 1 29.1471 3.38351 7.5 6.0492 8678.47 -3213.47 -118154 16046.3 -12639 -32797.5 -7.40997 
84 1 29.8442 2.14636 7.5 6.04918 4211.81 -3303.17 -104321 -14843.9 20800.9 -38544.6 -7.41081 
85 1 31.2641 2.13146 7.5 6.04918 7712.26 -3998.37 -111351 15681 -16711.4 -33489.7 -7.41038 
86 1 31.987 3.3537 7.5 6.0492 3037.09 -4415.06 -95518.9 -14364.5 23822.2 -38785.2 -7.41134 
87 1 33.4069 3.33879 7.5 6.0492 8808.98 -5076.61 -110103 15516.4 -17106.4 -31426.9 -7.41046 
88 1 34.1039 2.10165 7.5 6.04918 4428.21 -5881.41 -93729.2 -14188.1 24258.4 -36699 -7.41145 
89 1 35.5239 2.08674 7.5 6.04918 7844 -6179.76 -102852 14786.8 -20875.4 -31449.3 -7.4109 
192 1 27.753 5.85779 7.5 6.0492 228.076 -1155.3 -100966 -14069.9 23039 -41697.8 -7.41101 
193 1 29.1729 5.84288 7.5 6.0492 10556 -3541.37 -122439 16388 -8658.27 -30158.6 -7.40972 
194 1 29.87 4.60574 7.5 6.0492 1638.28 -2838.68 -97952 -14326.9 23402.7 -40476.2 -7.41119 
195 1 31.2899 4.59084 7.5 6.0492 9721.46 -4198.59 -116659 16054.7 -13024.6 -30988.3 -7.41006 
196 1 32.0128 5.81307 7.5 6.0492 409.629 -4090.01 -88430.2 -13822.6 25945.7 -40592.8 -7.41177 
197 1 33.4327 5.79817 7.5 6.0492 10659.5 -5102.39 -115769 15859.2 -13454 -28913.5 -7.41012 
198 1 34.1298 4.56103 7.5 6.0492 1842.75 -5723.4 -86196.6 -13698.8 26508.2 -38573.9 -7.41191 
199 1 35.5497 4.54612 7.5 6.0492 9820.26 -6088.79 -109492 15151.4 -17506.8 -29107.5 -7.4105 
301 1 27.056 7.09493 7.5 6.0492 11317.9 -3124.16 -127372 16504.9 -4041.55 -28956.8 -7.40942 
302 1 27.7788 8.31716 7.5 6.0492 -2388.41 -479.243 -94788.5 -13412.6 24909.8 -43230.4 -7.41139 
303 1 29.1988 8.30226 7.5 6.0492 12112.1 -3801.95 -125971 16661.8 -4531.43 -27346.6 -7.4095 
304 1 29.8958 7.06512 7.5 6.0492 -1000.76 -2338.42 -91318.2 -13727.6 25399.7 -42169.3 -7.4116 
305 1 31.3157 7.05021 7.5 6.0492 11431.1 -4339.24 -121286 16366.8 -9117.89 -28317.5 -7.40979 
306 1 32.0386 8.27245 7.5 6.0492 -2262.59 -3726.71 -81182.8 -13196.1 27430.2 -42178.9 -7.41221 
307 1 33.4585 8.25754 7.5 6.0492 12182.9 -5062.92 -120737 16147.4 -9620.19 -26251.2 -7.40982 
308 1 34.1556 7.0204 7.5 6.0492 -832.015 -5526.35 -78455.9 -13137 28146.3 -40243.5 -7.41238 
309 1 35.5755 7.0055 7.5 6.0492 11490.6 -5939.16 -115506 15468.1 -13891.1 -26621 -7.41013 
18 1 36.2209 0.849603 7.5 6.04918 5734.72 -7310.22 -92626.2 -13843.9 24674.4 -34281.5 -7.41152 
19 1 37.6408 0.834697 7.5 6.04918 6794 -7538.26 -95000.8 13926 -24306.6 -31024.8 -7.41137 
20 1 40.4807 0.804887 7.5 6.04918 5892.71 -9999.17 -83864.3 -12141.1 27920.5 -30467.7 -7.41205 
21 1 41.9006 0.789981 7.5 6.04918 6903.72 -10163.6 -87047.1 12034.1 -27693.3 -26948.4 -7.41185 
22 1 44.7404 0.760171 7.5 6.04918 5999.39 -12623.5 -76386.9 -9850.22 30703.6 -25278.9 -7.4125 
90 1 36.2467 3.30898 7.5 6.0492 3246.12 -7247.97 -84670.7 -13363.6 27048.1 -36177.9 -7.412 
91 1 37.6667 3.29407 7.5 6.0492 8908.41 -7265.8 -102542 14258 -21247.5 -28867.9 -7.41092 
92 1 38.3637 2.05693 7.5 6.04918 4620.91 -8653.22 -83887.3 -12827.9 27529.4 -33460.3 -7.41205 
93 1 39.7836 2.04203 7.5 6.04918 7947.65 -8619.48 -95021.7 13197.6 -24650.7 -28159.6 -7.41137 
94 1 40.5065 3.26426 7.5 6.0492 3430.48 -10191 -74809.7 -11701 30021.1 -32123 -7.4126 
95 1 41.9264 3.24936 7.5 6.0492 8970.38 -9644.17 -95751 12331.1 -24895.4 -25073.4 -7.41133 
96 1 42.6235 2.01222 7.5 6.04918 4772.71 -11460.5 -75196.6 -10841.5 30438.3 -28814.4 -7.41257 
97 1 44.0434 1.99731 7.5 6.04918 8018.94 -11122.6 -88175.2 10985.1 -27875 -23558.5 -7.41179 
98 1 44.7663 3.21955 7.5 6.0492 3574.99 -13025.1 -66373.8 -9468.7 32575.3 -26601.3 -7.41311 
200 1 36.2725 5.76836 7.5 6.0492 603.757 -7212.05 -76457.9 -12861.6 28842.1 -37885.1 -7.4125 
201 1 37.6925 5.75345 7.5 6.0492 10714 -7012.52 -109533 14594 -17879.2 -26571.7 -7.41049 
202 1 38.3895 4.51631 7.5 6.0492 2042.37 -8767.57 -75233.5 -12379.1 29478.7 -35161.5 -7.41257 
203 1 39.8094 4.5014 7.5 6.0492 9876.56 -8264.04 -102912 13541.9 -21555.9 -26067.7 -7.41089 
204 1 40.5323 5.72364 7.5 6.0492 790.467 -10403.2 -65542.7 -11254 31533.7 -33616.5 -7.41316 
205 1 41.9522 5.70873 7.5 6.0492 10720.9 -9137.24 -103952 12643.2 -21774 -23081.2 -7.41083 
206 1 42.6493 4.47159 7.5 6.0492 2216.3 -11803.2 -65526.9 -10448.5 32133 -30239.2 -7.41316 
207 1 44.0692 4.45669 7.5 6.0492 9893.52 -10533.7 -97172.2 11288.8 -25015.4 -21802.5 -7.41124 
208 1 44.7921 5.67892 7.5 6.0492 950.688 -13438.5 -56186 -9095.17 33853.1 -27788.9 -7.41373 
310 1 36.2984 8.22773 7.5 6.0492 -2110.49 -7133.01 -68138.9 -12286.6 29989.2 -39401.3 -7.41301 
311 1 37.7183 8.21283 7.5 6.0492 12189 -6690.84 -115876 14887.4 -14305 -24147.1 -7.41011 
312 1 38.4153 6.97569 7.5 6.0492 -652.385 -8837.52 -66419.7 -11871.4 30807.6 -36686.7 -7.41311 
313 1 39.8353 6.96078 7.5 6.0492 11493.4 -7844.5 -110225 13850.2 -18195.4 -23852.1 -7.41045 
314 1 40.5581 8.18302 7.5 6.0492 -1949.02 -10566 -56213.7 -10749.2 32390.1 -34946.9 -7.41373 
315 1 41.9781 8.16811 7.5 6.0492 12139.8 -8552.86 -111550 12923 -18429.9 -20980.1 -7.41037 
316 1 42.6751 6.93097 7.5 6.0492 -481.769 -12094.6 -55738 -10012.7 33199.3 -31515.2 -7.41376 
317 1 44.095 6.91606 7.5 6.0492 11453 -9870.47 -105636 11566.6 -21877.2 -19944.7 -7.41073 
318 1 44.8179 8.1383 7.5 6.0492 -1798.51 -13794.6 -45973 -8680.17 34467.1 -28842 -7.41436 
23 1 46.1604 0.745266 7.5 6.04918 6984.69 -12699 -80323.6 9574.1 -30475.3 -21503.1 -7.41226 
24 1 49.0002 0.715455 7.5 6.04918 6055.45 -14889.2 -70570.9 -7077.87 32883.8 -18745 -7.41285 
25 1 50.4201 0.70055 7.5 6.04918 7042.29 -14832.3 -75185 6654.84 -32523.7 -14766.7 -7.41257 
26 1 53.26 0.670739 7.5 6.04918 6069.95 -16486.6 -66757.7 -3955.28 34348.2 -11069.1 -7.41309 
99 1 46.1862 3.20464 7.5 6.0492 9000.93 -11970.9 -90018.8 9812.99 -27898 -19993 -7.41167 
100 1 46.8832 1.9675 7.5 6.04918 4875.74 -14039.5 -68066.7 -8328.24 32833.7 -22751.6 -7.41301 
101 1 48.3032 1.9526 7.5 6.04918 8064.14 -13405.6 -82637.9 8243.68 -30404.6 -17644.4 -7.41212 
102 1 49.026 3.17483 7.5 6.0492 3671.62 -15451.2 -59800.2 -6778.45 34576.4 -19665 -7.41351 
103 1 50.446 3.15993 7.5 6.0492 9016.19 -13943.3 -85639.6 6810.05 -30119.9 -13695.2 -7.41194 
104 1 51.143 1.92279 7.5 6.04918 4930.47 -16075.7 -62892.1 -5408.71 34593.4 -15389.8 -7.41332 
105 1 52.5629 1.90788 7.5 6.04918 8096.75 -15155.3 -78722.8 5095.49 -32122 -10584.2 -7.41236 
106 1 53.2858 3.13012 7.5 6.0492 3719.92 -17153.2 -55483.6 -3760.62 35923.5 -11542.2 -7.41377 
209 1 46.212 5.66402 7.5 6.0492 10696.3 -11243.1 -99251.4 10076.2 -24986.8 -18390.6 -7.41111 
210 1 46.9091 4.42688 7.5 6.0492 2350.17 -14562.8 -57549.2 -8012.42 34321.2 -23819.8 -7.41365 
211 1 48.329 4.41197 7.5 6.0492 9888.34 -12624.5 -92535.5 8480.44 -27739 -16305.7 -7.41152 
212 1 49.0518 5.63421 7.5 6.0492 1070.03 -16014.5 -48885.6 -6500.38 35672.6 -20481.9 -7.41418 
213 1 50.4718 5.6193 7.5 6.0492 10666.6 -13041.6 -95662.8 6996.54 -27374.1 -12563.4 -7.41133 
214 1 51.1688 4.38216 7.5 6.0492 2436.38 -16726.5 -51751.8 -5192.52 35930.8 -16047.6 -7.414 
215 1 52.5887 4.36726 7.5 6.0492 9884.76 -14236.2 -89255.9 5239.67 -29598 -9733.54 -7.41172 
216 1 53.3116 5.58949 7.5 6.0492 1140.83 -17811.7 -44087 -3598.39 36903 -11951.2 -7.41447 
319 1 46.2378 8.1234 7.5 6.0492 12061.5 -10424.4 -107922 10316.2 -21841 -16702.9 -7.41059 
320 1 46.9349 6.88625 7.5 6.0492 -339.009 -15025.4 -46946 -7668.63 35175.3 -24769.1 -7.4143 
321 1 48.3548 6.87135 7.5 6.0492 11396.9 -11755.2 -101937 8699.32 -24785.1 -14893.1 -7.41095 
322 1 49.0777 8.09358 7.5 6.0492 -1676.95 -16509.9 -37974.7 -6196.41 36100.4 -21198 -7.41485 
323 1 50.4976 8.07868 7.5 6.0492 11988.9 -12036.6 -105155 7166.46 -24384.8 -11377.7 -7.41076 
324 1 51.1946 6.84154 7.5 6.0492 -238.006 -17307 -40551 -4961.54 36632.9 -16622.7 -7.41469 
325 1 52.6146 6.82663 7.5 6.0492 11357.5 -13217.2 -99318 5371.91 -26778.2 -8844.9 -7.41111 
326 1 53.3374 8.04887 7.5 6.0492 -1598.56 -18393.9 -32714.3 -3424.64 37213 -12300.3 -7.41517 
27 1 54.6799 0.655834 7.5 6.04918 7086.13 -16259.1 -71946.4 3411.92 -33744.2 -7018.95 -7.41277 
28 1 57.5197 0.626023 7.5 6.04918 6055.17 -17169.5 -65197.7 -633.179 35015.2 -2664.29 -7.41318 
29 1 58.9397 0.611118 7.5 6.04918 7122.9 -16762 -70829.1 4.94652 -34084.6 1262.07 -7.41284 
30 1 61.7795 0.581307 7.5 6.04918 6020.17 -16823.2 -65998.9 2723.93 34839.5 5898.8 -7.41313 
107 1 54.7057 3.11521 7.5 6.0492 9034.38 -15269.1 -82876.1 3461.65 -31453.9 -6443.53 -7.41211 
108 1 55.4028 1.87807 7.5 6.04918 4943.93 -17278 -59999.4 -2222.56 35626.1 -7050.51 -7.4135 
109 1 56.8227 1.86316 7.5 6.04918 8129.56 -16106.9 -76682.8 1692.32 -32946.1 -2752.98 -7.41248 
110 1 57.5456 3.0854 7.5 6.0492 3725.7 -17880.7 -53712.1 -559.59 36547.2 -2670.17 -7.41388 
111 1 58.9655 3.07049 7.5 6.0492 9069.35 -15740.4 -81914.2 -62.3359 -31835.4 1307.34 -7.41216 
112 1 59.6625 1.83335 7.5 6.04918 4924.31 -17457.4 -59587.5 1076.43 35872.6 1750.57 -7.41352 
113 1 61.0825 1.81845 7.5 6.04918 8167.9 -16111.7 -76661.9 -1791.36 -32843.1 5312.36 -7.41248 
114 1 61.8053 3.04068 7.5 6.0492 3693.09 -17516.1 -54611.1 2671.77 36407.7 6357.3 -7.41383 
217 1 54.7315 5.57459 7.5 6.0492 10658.9 -14257.7 -93393 3547.67 -28815 -5848.04 -7.41147 
218 1 55.4286 4.33745 7.5 6.0492 2473.58 -17999.8 -48506.4 -2124.82 36883 -7269.39 -7.4142 
219 1 56.8485 4.32254 7.5 6.0492 9902.87 -15117.7 -87540 1726.12 -30497.7 -2440.46 -7.41182 
220 1 57.5714 5.54478 7.5 6.0492 1160.67 -18578.1 -42114.5 -527.659 37486.4 -2657.3 -7.41459 
221 1 58.9913 5.52987 7.5 6.0492 10691.3 -14695.3 -92590.7 -88.8381 -29232.5 1328.03 -7.41152 
222 1 59.6884 4.29273 7.5 6.0492 2464.24 -18191.3 -48039.2 1045.17 37127.9 1976.96 -7.41423 
223 1 61.1083 4.27782 7.5 6.0492 9951.75 -15128.2 -87507.2 -1872.7 -30395 5065.98 -7.41182 
224 1 61.8311 5.50006 7.5 6.0492 1131.16 -18196.1 -43109.3 2569.2 37387.8 6787.8 -7.41453 
327 1 54.7573 8.03396 7.5 6.0492 11956.9 -13133.3 -103398 3622.73 -25925.8 -5237.88 -7.41086 
328 1 55.4544 6.79682 7.5 6.0492 -187.194 -18644.3 -36968.5 -2024.48 37505.9 -7448.91 -7.41491 
329 1 56.8743 6.78192 7.5 6.0492 11361.6 -14022.5 -97937.7 1752.48 -27747.6 -2132.6 -7.41119 
330 1 57.5972 8.00415 7.5 6.0492 -1571.09 -19194.9 -30550.2 -497.282 37757.9 -2631.15 -7.4153 
331 1 59.0171 7.98925 7.5 6.0492 11988.2 -13534.8 -102759 -120.916 -26374.5 1319.77 -7.4109 
332 1 59.7142 6.75211 7.5 6.0492 -189.496 -18845.8 -36449.8 1005.98 37752.8 2195.44 -7.41494 
333 1 61.1341 6.7372 7.5 6.0492 11421.1 -14040.1 -97889.2 -1956.53 -27641.1 4770.74 -7.4112 
334 1 61.857 7.95944 7.5 6.0492 -1596.37 -18796.7 -31638.2 2453.25 37704.4 7183.84 -7.41523 
442 1 59.74 9.21148 7.5 6.0492 -2977.81 -19423.9 -24972.8 958.942 37681.3 2400.55 -7.41564 
443 1 61.1599 9.19658 7.5 6.0492 12560.7 -12836.2 -107712 -2042.51 -24678.3 4423.88 -7.4106 
31 1 63.1994 0.566402 7.5 6.04918 7151.7 -16265.5 -71915.1 -3393.01 -33539.3 9484.72 -7.41277 
32 1 66.0393 0.536591 7.5 6.04918 5968.25 -15496.3 -69102 5949.65 33816.8 14009.3 -7.41294 
33 1 67.4592 0.521686 7.5 6.04918 7162.42 -14857.3 -75130.5 -6610.66 -32149.5 17075.4 -7.41258 
34 1 70.299 0.491875 7.5 6.04918 5895.97 -13389.2 -74291.1 8886 31985.8 21151.4 -7.41263 
35 1 71.719 0.47697 7.5 6.04918 7139.09 -12762.2 -80263.9 -9490.06 -29997 23601.9 -7.41227 
115 1 63.2252 3.02578 7.5 6.0492 9120.27 -15285.4 -82825 -3574.5 -31254 8994.91 -7.41211 
116 1 63.9223 1.78864 7.5 6.04918 4877.3 -16578.7 -61684.2 4327.75 35308 10393.9 -7.41339 
117 1 65.3422 1.77373 7.5 6.04918 8205.7 -15176.1 -78665.3 -5173.99 -31831.3 13026.4 -7.41236 
118 1 66.0651 2.99597 7.5 6.0492 3625.89 -16109.8 -58114.5 5779.73 35496.5 14908.6 -7.41361 
119 1 67.485 2.98106 7.5 6.0492 9174.21 -13987.4 -85550 -6888.54 -29755.6 16075.9 -7.41194 
120 1 68.1821 1.74392 7.5 6.04918 4803.51 -14773.9 -66139.2 7373.77 33945.3 18289.9 -7.41312 
121 1 69.602 1.72902 7.5 6.04918 8226.51 -13458.7 -82559.4 -8284.24 -29977.6 19887.6 -7.41213 
122 1 70.3249 2.95125 7.5 6.0492 3526.08 -13866.9 -63977.7 8616.19 33841.1 22448.6 -7.41326 
123 1 71.7448 2.93635 7.5 6.0492 9208.21 -12061.4 -89916.5 -9838.56 -27434.8 22145.4 -7.41168 
225 1 63.2511 5.48515 7.5 6.0492 10765.6 -14287.1 -93315.1 -3709.98 -28611.3 8437.31 -7.41147 
226 1 63.9481 4.24801 7.5 6.0492 2412.09 -17266 -50383.2 4168.93 36641.1 11052.8 -7.41409 
227 1 65.368 4.23311 7.5 6.0492 10024.3 -14273.5 -89165.3 -5359.25 -29308.2 12233.6 -7.41172 
228 1 66.0909 5.45534 7.5 6.0492 1056.2 -16716.8 -46998.6 5550.19 36594.5 15737.1 -7.41429 
229 1 67.5108 5.44044 7.5 6.0492 10865.4 -13110.6 -95525 -7114.4 -27003 14972.2 -7.41134 
230 1 68.2079 4.2033 7.5 6.0492 2320.89 -15357.1 -55370 7100.74 35427.1 19350.9 -7.41378 
231 1 69.6278 4.18839 7.5 6.0492 10099.1 -12703 -92409.9 -8549.9 -27314 18592.1 -7.41153 
232 1 70.3507 5.41063 7.5 6.0492 942.111 -14348 -53510.3 8276.88 35122.5 23640 -7.4139 
233 1 71.7706 5.39572 7.5 6.0492 10961.4 -11367.2 -99089.3 -10126.4 -24515.1 20556.7 -7.41112 
335 1 63.2769 7.94453 7.5 6.0492 12085.5 -13179.3 -103285 -3844.95 -25711.1 7808.88 -7.41087 
336 1 63.9739 6.70739 7.5 6.0492 -241.557 -17877.5 -39032.7 3992.16 37349.1 11658 -7.41478 
337 1 65.3939 6.69249 7.5 6.0492 11529.3 -13275.5 -99183.2 -5541.73 -26477.3 11352.4 -7.41112 
338 1 66.1167 7.91472 7.5 6.0492 -1670.14 -17250.9 -35899.2 5294.59 37035 16487.7 -7.41497 
339 1 67.5366 7.89982 7.5 6.0492 12230.2 -12136.4 -104954 -7333.3 -23992.9 13762.9 -7.41077 
340 1 68.2337 6.66267 7.5 6.0492 -338.317 -15872.6 -44531.5 6798.16 36290.9 20318.8 -7.41444 
341 1 69.6536 6.64777 7.5 6.0492 11658.7 -11866.8 -101747 -8805.37 -24343.2 17177 -7.41096 
342 1 70.3765 7.87 7.5 6.0492 -1782.37 -14764.2 -43034.4 7897.21 35754.4 24717.3 -7.41454 
343 1 71.7964 7.8551 7.5 6.0492 12386.8 -10591.1 -107680 -10399.4 -21341.2 18837 -7.4106 
446 1 63.9997 9.16677 7.5 6.0492 -3024.9 -18415.4 -27785.8 3793.15 37365.5 12203 -7.41547 
447 1 65.4197 9.15186 7.5 6.0492 12701.3 -12171.4 -108623 -5719.26 -23437.4 10381.6 -7.41055 
450 1 68.2595 9.12205 7.5 6.0492 -3113.89 -16321.8 -33776.7 6458.61 36470.3 21185.9 -7.4151 
451 1 69.6794 9.10715 7.5 6.0492 12881.8 -10938.3 -110474 -9049.03 -21166.2 15643.3 -7.41044 
36 1 74.5588 0.447159 7.5 6.04918 5798.35 -10801.1 -81238.9 11396.1 29428.1 27001 -7.41221 
37 1 75.9787 0.432254 7.5 6.04918 7067.23 -10280.3 -87011.2 -11896 -27196.4 28837.8 -7.41186 
38 1 78.8186 0.402443 7.5 6.04918 5673.36 -8053.86 -89564.5 13364.9 26263.9 31443.6 -7.4117 
39 1 80.2385 0.387538 7.5 6.04918 6939.33 -7709.81 -95028.6 -13719.6 -23886.8 32739.8 -7.41137 
124 1 72.4418 1.69921 7.5 6.04918 4701.73 -12304.1 -72654.3 10069.5 31838.6 25001.2 -7.41273 
125 1 73.8618 1.6843 7.5 6.04918 8209.82 -11226.1 -88103.5 -10971.6 -27388.2 25576 -7.41179 
126 1 74.5846 2.90654 7.5 6.0492 3396.56 -11093.1 -71826.5 11048.7 31510.6 28635.5 -7.41278 
127 1 76.0045 2.89163 7.5 6.0492 9197.57 -9796.71 -95675 -12288.1 -24419.5 26997.8 -7.41133 
128 1 76.7016 1.65449 7.5 6.04918 4572.66 -9492.89 -80841.3 12289.8 29084.1 30303.9 -7.41223 
129 1 78.1215 1.63958 7.5 6.04918 8138.34 -8783.6 -94996.8 -13115.9 -24196.4 29974.5 -7.41137 
130 1 78.8444 2.86182 7.5 6.0492 3244.55 -8115.63 -81222.5 12959.9 28618.5 33338.2 -7.41221 
131 1 80.2643 2.84691 7.5 6.0492 9124.5 -7482.1 -102544 -14133.4 -20856.3 30605 -7.41092 
132 1 80.9614 1.60977 7.5 6.04918 4422.58 -6645.87 -90282.6 13929.1 25818 34159.8 -7.41166 
234 1 72.4676 4.15858 7.5 6.0492 2195.82 -12730.4 -62663.9 9702.3 33527.3 26416.5 -7.41334 
235 1 73.8876 4.14368 7.5 6.0492 10146.3 -10672.1 -97049.3 -11289.4 -24533 23845.7 -7.41125 
236 1 74.6104 5.36591 7.5 6.0492 798.857 -11397.3 -62224.9 10618.7 33028.5 30136 -7.41336 
237 1 76.0304 5.35101 7.5 6.0492 11018.8 -9331.73 -103817 -12608.7 -21290.1 25004.1 -7.41084 
238 1 76.7274 4.11387 7.5 6.0492 2045.66 -9714.37 -71824.5 11849.1 31027.8 32006.9 -7.41278 
239 1 78.1473 4.09896 7.5 6.0492 10139.1 -8471.51 -102844 -13459.2 -21110.1 27892.8 -7.4109 
240 1 78.8702 5.3212 7.5 6.0492 640.676 -8195.93 -72648 12459 30419.3 35073.4 -7.41273 
241 1 80.2901 5.30629 7.5 6.0492 11009.7 -7279 -109489 -14462.6 -17483.1 28295.6 -7.4105 
242 1 80.9872 4.06915 7.5 6.0492 1884.61 -6619.3 -82374.1 13432.2 28062.4 36065.7 -7.41214 
344 1 72.4935 6.61796 7.5 6.0492 -468.982 -13098.1 -52574.1 9292.98 34606.8 27706.9 -7.41395 
345 1 73.9134 6.60305 7.5 6.0492 11772.8 -10050.6 -105442 -11587.9 -21374.5 21972.8 -7.41074 
346 1 74.6363 7.82529 7.5 6.0492 -1917.85 -11645.4 -52580.6 10134.4 33907.1 31493.5 -7.41395 
347 1 76.0562 7.81038 7.5 6.0492 12513.2 -8796.71 -111333 -12904.8 -17913.5 22860.8 -7.41038 
348 1 76.7532 6.57324 7.5 6.0492 -618.1 -9884.85 -62669.3 11352.1 32372.6 33558.5 -7.41334 
349 1 78.1732 6.55834 7.5 6.0492 11834.7 -8101.87 -110092 -13771.7 -17728.7 25649.9 -7.41046 
350 1 78.896 7.78057 7.5 6.0492 -2056.3 -8226.68 -63987.7 11889.5 31592 36640 -7.41326 
351 1 80.3159 7.76567 7.5 6.0492 12571.7 -7014.32 -115762 -14755.4 -13874.7 25819.7 -7.41012 
352 1 81.013 6.52853 7.5 6.0492 -766.13 -6546.63 -74279.8 12866 29719.2 37794.4 -7.41263 
454 1 72.5193 9.07733 7.5 6.0492 -3229.98 -13408.2 -42538.2 8830.46 35011.5 28863.7 -7.41457 
455 1 73.9392 9.06243 7.5 6.0492 13059.5 -9351.46 -113184 -11865.1 -18015.9 19961.2 -7.41027 
458 1 76.779 9.03262 7.5 6.0492 -3353.62 -10005.9 -53528.9 10787.5 33054.1 34949.5 -7.4139 
459 1 78.199 9.01771 7.5 6.0492 13189.1 -7666.22 -116645 -14052.8 -14157.7 23253 -7.41006 
462 1 81.0388 8.9879 7.5 6.0492 -3462.13 -6430.6 -66152.1 12218.7 30723.9 39336.6 -7.41313 
40 1 83.0783 0.357727 7.5 6.04918 5527.41 -5413.19 -98883 14700.4 22645.4 34506 -7.41114 
41 1 84.4983 0.342822 7.5 6.04918 6759.44 -5276.7 -103971 -14874.7 -20226 35349.6 -7.41083 
42 1 87.3381 0.313011 7.5 6.04918 5375.43 -3040.75 -108826 15330.4 18749.7 36233.3 -7.41054 
43 1 88.758 0.298106 7.5 6.04918 6542.74 -3095.7 -113497 -15295.5 -16387.3 36664.8 -7.41026 
133 1 82.3813 1.59487 7.5 6.04918 8005.58 -6395.98 -102923 -14623.3 -20552.4 33105 -7.41089 
134 1 83.1042 2.8171 7.5 6.0492 3084.14 -5206.31 -91719.7 14252.8 25319.6 36568.9 -7.41157 
135 1 84.5241 2.8022 7.5 6.0492 8984.4 -5336.68 -110239 -15296.4 -16900.8 33019.4 -7.41045 
136 1 85.2211 1.56506 7.5 6.04918 4265.69 -3983.5 -100571 14902.8 22209.1 36615.8 -7.41104 
137 1 86.641 1.55015 7.5 6.04918 7817.93 -4232.99 -111570 -15422 -16618.8 35007.7 -7.41037 
138 1 87.3639 2.77239 7.5 6.0492 2934.78 -2532.95 -102889 14850.9 21800.1 38361.6 -7.4109 
139 1 88.7838 2.75748 7.5 6.0492 8787 -3470.86 -118481 -15717.6 -12717 34247.4 -7.40995 
140 1 89.4809 1.52034 7.5 6.04918 4122.11 -1612.46 -111312 15146.8 18448.8 37674.2 -7.41039 
243 1 82.4071 4.05424 7.5 6.0492 10060.5 -6358.07 -109540 -14973.7 -17198.8 30765.1 -7.41049 
244 1 83.13 5.27648 7.5 6.0492 488.369 -5021.11 -84271.6 13696.4 27451.7 38444.8 -7.41202 
245 1 84.5499 5.26158 7.5 6.0492 10921.1 -5422.48 -115886 -15619.4 -13248.6 30489.1 -7.41011 
246 1 85.2469 4.02443 7.5 6.0492 1731.93 -3671.76 -93843.5 14362.8 24806.5 38624.6 -7.41144 
247 1 86.6669 4.00953 7.5 6.0492 9909.24 -4496.79 -116887 -15768.7 -12955.5 32510.6 -7.41005 
248 1 87.3897 5.23176 7.5 6.0492 362.549 -2047.12 -96604.9 14252.3 24319.7 40270.3 -7.41128 
249 1 88.8097 5.21686 7.5 6.0492 10754.4 -3870.21 -122785 -16027.7 -8742.28 31598.9 -7.4097 
250 1 89.5067 3.97972 7.5 6.0492 1609.34 -986.253 -105779 14575.7 21460.1 39676.7 -7.41072 
353 1 82.4329 6.51362 7.5 6.0492 11817.7 -6266.69 -115508 -15279.3 -13564 28243.5 -7.41013 
354 1 83.1558 7.73586 7.5 6.0492 -2175.6 -4789.77 -76685.4 13059.5 28966.2 40124.9 -7.41249 
355 1 84.5757 7.72095 7.5 6.0492 12539 -5448.38 -120811 -15892.6 -9380.49 27772 -7.40981 
356 1 85.2728 6.48381 7.5 6.0492 -891.085 -3316.3 -86873.4 13742.6 26826.4 40426.4 -7.41187 
357 1 86.6927 6.46891 7.5 6.0492 11711.9 -4706.04 -121501 -16057.2 -9032.47 29805.9 -7.40977 
358 1 87.4156 7.69114 7.5 6.0492 -2254.48 -1518.72 -90119.7 13565.3 26228.6 41952.3 -7.41167 
359 1 88.8355 7.67624 7.5 6.0492 12410.6 -4206.66 -126313 -16274.6 -4580.42 28738.4 -7.40948 
360 1 89.5325 6.43909 7.5 6.0492 -972.445 -318.97 -99935.6 13917.3 23901.1 41438.9 -7.41107 
463 1 82.4587 8.973 7.5 6.0492 13235.1 -6114.43 -120734 -15542 -9756.56 25552.5 -7.40982 
466 1 85.2986 8.94319 7.5 6.0492 -3534.14 -2922.12 -79811.9 13032 28202.4 42013.9 -7.4123 
467 1 86.7185 8.92828 7.5 6.0492 13178.8 -4853.57 -125324 -16289.5 -4962.79 26912.3 -7.40954 
470 1 89.5583 8.89847 7.5 6.0492 -3551.57 381.1 -93931.1 13165.3 25700 42956.6 -7.41144 
44 1 91.5979 0.268296 7.5 6.04918 5237.79 -987.16 -119026 15203 14770.8 36570.2 -7.40992 
45 1 93.0178 0.25339 7.5 6.04918 6310.84 -1178.66 -123248 -14936.8 -12556.6 36544.7 -7.40967 
46 1 95.8576 0.22358 7.5 6.04918 5135.36 775.314 -129077 14290.4 10912.3 35311.1 -7.40932 
47 1 97.2776 0.208674 7.5 6.04918 6084.23 517.576 -132803 -13782.7 -8929.31 34707.5 -7.40909 
141 1 90.9008 1.50544 7.5 6.04918 7593.07 -2351.65 -120623 -15457 -12570.6 35622.4 -7.40982 
142 1 91.6237 2.72767 7.5 6.0492 2817.96 -153.076 -114305 14702.5 18261 38654.5 -7.41021 
143 1 93.0436 2.71277 7.5 6.0492 8552.13 -1891.28 -126964 -15352.7 -8483.4 34157.4 -7.40944 