(written by TR)

18152	atoms
1	atom types
0	117.156446	xlo xhi
0	202.920917	ylo yhi
0	18.3999996	zlo zhi


Masses

1	12

Atoms

1 1 1 0 0.00000000 0.00000000 7.50000000 0 0 0
2 1 1 0 2.14279113 1.20733028 7.50000000 0 0 0
3 1 1 0 3.56271280 1.19242497 7.50000000 0 0 0
4 1 1 0 6.40255664 1.16261434 7.50000000 0 0 0
5 1 1 0 7.82247831 1.14770903 7.50000000 0 0 0
6 1 1 0 10.66232215 1.11789840 7.50000000 0 0 0
7 1 1 0 12.08224382 1.10299308 7.50000000 0 0 0
8 1 1 0 14.92208766 1.07318245 7.50000000 0 0 0
9 1 1 0 16.34200933 1.05827714 7.50000000 0 0 0
10 1 1 0 19.18185317 1.02846651 7.50000000 0 0 0
11 1 1 0 20.60177484 1.01356120 7.50000000 0 0 0
12 1 1 0 23.44161868 0.98375057 7.50000000 0 0 0
13 1 1 0 24.86154035 0.96884526 7.50000000 0 0 0
14 1 1 0 27.70138419 0.93903463 7.50000000 0 0 0
15 1 1 0 29.12130585 0.92412932 7.50000000 0 0 0
16 1 1 0 31.96114969 0.89431869 7.50000000 0 0 0
17 1 1 0 33.38107136 0.87941338 7.50000000 0 0 0
18 1 1 0 36.22091520 0.84960275 7.50000000 0 0 0
19 1 1 0 37.64083687 0.83469743 7.50000000 0 0 0
20 1 1 0 40.48068071 0.80488681 7.50000000 0 0 0
21 1 1 0 41.90060238 0.78998149 7.50000000 0 0 0
22 1 1 0 44.74044622 0.76017086 7.50000000 0 0 0
23 1 1 0 46.16036789 0.74526555 7.50000000 0 0 0
24 1 1 0 49.00021173 0.71545492 7.50000000 0 0 0
25 1 1 0 50.42013340 0.70054961 7.50000000 0 0 0
26 1 1 0 53.25997724 0.67073898 7.50000000 0 0 0
27 1 1 0 54.67989891 0.65583367 7.50000000 0 0 0
28 1 1 0 57.51974275 0.62602304 7.50000000 0 0 0
29 1 1 0 58.93966442 0.61111773 7.50000000 0 0 0
30 1 1 0 61.77950825 0.58130710 7.50000000 0 0 0
31 1 1 0 63.19942992 0.56640178 7.50000000 0 0 0
32 1 1 0 66.03927376 0.53659116 7.50000000 0 0 0
33 1 1 0 67.45919543 0.52168584 7.50000000 0 0 0
34 1 1 0 70.29903927 0.49187521 7.50000000 0 0 0
35 1 1 0 71.71896094 0.47696990 7.50000000 0 0 0
36 1 1 0 74.55880478 0.44715927 7.50000000 0 0 0
37 1 1 0 75.97872645 0.43225396 7.50000000 0 0 0
38 1 1 0 78.81857029 0.40244333 7.50000000 0 0 0
39 1 1 0 80.23849196 0.38753802 7.50000000 0 0 0
40 1 1 0 83.07833580 0.35772739 7.50000000 0 0 0
41 1 1 0 84.49825747 0.34282208 7.50000000 0 0 0
42 1 1 0 87.33810131 0.31301145 7.50000000 0 0 0
43 1 1 0 88.75802298 0.29810614 7.50000000 0 0 0
44 1 1 0 91.59786681 0.26829551 7.50000000 0 0 0
45 1 1 0 93.01778848 0.25339019 7.50000000 0 0 0
46 1 1 0 95.85763232 0.22357956 7.50000000 0 0 0
47 1 1 0 97.27755399 0.20867425 7.50000000 0 0 0
48 1 1 0 100.11739783 0.17886362 7.50000000 0 0 0
49 1 1 0 101.53731950 0.16395831 7.50000000 0 0 0
50 1 1 0 104.37716334 0.13414768 7.50000000 0 0 0
51 1 1 0 105.79708501 0.11924237 7.50000000 0 0 0
52 1 1 0 108.63692885 0.08943174 7.50000000 0 0 0
53 1 1 0 110.05685052 0.07452643 7.50000000 0 0 0
54 1 1 0 112.89669436 0.04471580 7.50000000 0 0 0
55 1 1 0 114.31661603 0.02981049 7.50000000 0 0 0
56 1 1 0 0.02581676 2.45937650 7.50000000 0 0 0
57 1 1 0 1.44573853 2.44447119 7.50000000 0 0 0
58 1 1 0 2.16860789 3.66670678 7.50000000 0 0 0
59 1 1 0 3.58852956 3.65180147 7.50000000 0 0 0
60 1 1 0 4.28558227 2.41466056 7.50000000 0 0 0
61 1 1 0 5.70550404 2.39975525 7.50000000 0 0 0
62 1 1 0 6.42837340 3.62199084 7.50000000 0 0 0
63 1 1 0 7.84829507 3.60708553 7.50000000 0 0 0
64 1 1 0 8.54534778 2.36994462 7.50000000 0 0 0
65 1 1 0 9.96526954 2.35503930 7.50000000 0 0 0
66 1 1 0 10.68813891 3.57727490 7.50000000 0 0 0
67 1 1 0 12.10806058 3.56236959 7.50000000 0 0 0
68 1 1 0 12.80511328 2.32522868 7.50000000 0 0 0
69 1 1 0 14.22503505 2.31032336 7.50000000 0 0 0
70 1 1 0 14.94790442 3.53255896 7.50000000 0 0 0
71 1 1 0 16.36782609 3.51765364 7.50000000 0 0 0
72 1 1 0 17.06487879 2.28051273 7.50000000 0 0 0
73 1 1 0 18.48480056 2.26560742 7.50000000 0 0 0
74 1 1 0 19.20766993 3.48784301 7.50000000 0 0 0
75 1 1 0 20.62759160 3.47293770 7.50000000 0 0 0
76 1 1 0 21.32464430 2.23579679 7.50000000 0 0 0
77 1 1 0 22.74456607 2.22089148 7.50000000 0 0 0
78 1 1 0 23.46743543 3.44312707 7.50000000 0 0 0
79 1 1 0 24.88735710 3.42822176 7.50000000 0 0 0
80 1 1 0 25.58440981 2.19108085 7.50000000 0 0 0
81 1 1 0 27.00433158 2.17617554 7.50000000 0 0 0
82 1 1 0 27.72720094 3.39841113 7.50000000 0 0 0
83 1 1 0 29.14712261 3.38350582 7.50000000 0 0 0
84 1 1 0 29.84417532 2.14636491 7.50000000 0 0 0
85 1 1 0 31.26409709 2.13145960 7.50000000 0 0 0
86 1 1 0 31.98696645 3.35369519 7.50000000 0 0 0
87 1 1 0 33.40688812 3.33878988 7.50000000 0 0 0
88 1 1 0 34.10394083 2.10164897 7.50000000 0 0 0
89 1 1 0 35.52386260 2.08674365 7.50000000 0 0 0
90 1 1 0 36.24673196 3.30897925 7.50000000 0 0 0
91 1 1 0 37.66665363 3.29407394 7.50000000 0 0 0
92 1 1 0 38.36370634 2.05693303 7.50000000 0 0 0
93 1 1 0 39.78362811 2.04202771 7.50000000 0 0 0
94 1 1 0 40.50649747 3.26426331 7.50000000 0 0 0
95 1 1 0 41.92641914 3.24935799 7.50000000 0 0 0
96 1 1 0 42.62347184 2.01221708 7.50000000 0 0 0
97 1 1 0 44.04339361 1.99731177 7.50000000 0 0 0
98 1 1 0 44.76626298 3.21954736 7.50000000 0 0 0
99 1 1 0 46.18618465 3.20464205 7.50000000 0 0 0
100 1 1 0 46.88323735 1.96750114 7.50000000 0 0 0
101 1 1 0 48.30315912 1.95259583 7.50000000 0 0 0
102 1 1 0 49.02602849 3.17483142 7.50000000 0 0 0
103 1 1 0 50.44595016 3.15992611 7.50000000 0 0 0
104 1 1 0 51.14300286 1.92278520 7.50000000 0 0 0
105 1 1 0 52.56292463 1.90787989 7.50000000 0 0 0
106 1 1 0 53.28579400 3.13011548 7.50000000 0 0 0
107 1 1 0 54.70571566 3.11521017 7.50000000 0 0 0
108 1 1 0 55.40276837 1.87806926 7.50000000 0 0 0
109 1 1 0 56.82269014 1.86316395 7.50000000 0 0 0
110 1 1 0 57.54555950 3.08539954 7.50000000 0 0 0
111 1 1 0 58.96548117 3.07049423 7.50000000 0 0 0
112 1 1 0 59.66253388 1.83335332 7.50000000 0 0 0
113 1 1 0 61.08245565 1.81844801 7.50000000 0 0 0
114 1 1 0 61.80532501 3.04068360 7.50000000 0 0 0
115 1 1 0 63.22524668 3.02577829 7.50000000 0 0 0
116 1 1 0 63.92229939 1.78863738 7.50000000 0 0 0
117 1 1 0 65.34222116 1.77373206 7.50000000 0 0 0
118 1 1 0 66.06509052 2.99596766 7.50000000 0 0 0
119 1 1 0 67.48501219 2.98106234 7.50000000 0 0 0
120 1 1 0 68.18206490 1.74392144 7.50000000 0 0 0
121 1 1 0 69.60198667 1.72901612 7.50000000 0 0 0
122 1 1 0 70.32485603 2.95125171 7.50000000 0 0 0
123 1 1 0 71.74477770 2.93634640 7.50000000 0 0 0
124 1 1 0 72.44183040 1.69920549 7.50000000 0 0 0
125 1 1 0 73.86175217 1.68430018 7.50000000 0 0 0
126 1 1 0 74.58462154 2.90653577 7.50000000 0 0 0
127 1 1 0 76.00454321 2.89163046 7.50000000 0 0 0
128 1 1 0 76.70159591 1.65448955 7.50000000 0 0 0
129 1 1 0 78.12151768 1.63958424 7.50000000 0 0 0
130 1 1 0 78.84438705 2.86181983 7.50000000 0 0 0
131 1 1 0 80.26430872 2.84691452 7.50000000 0 0 0
132 1 1 0 80.96136142 1.60977361 7.50000000 0 0 0
133 1 1 0 82.38128319 1.59486830 7.50000000 0 0 0
134 1 1 0 83.10415256 2.81710389 7.50000000 0 0 0
135 1 1 0 84.52407423 2.80219858 7.50000000 0 0 0
136 1 1 0 85.22112693 1.56505767 7.50000000 0 0 0
137 1 1 0 86.64104870 1.55015236 7.50000000 0 0 0
138 1 1 0 87.36391806 2.77238795 7.50000000 0 0 0
139 1 1 0 88.78383973 2.75748264 7.50000000 0 0 0
140 1 1 0 89.48089244 1.52034173 7.50000000 0 0 0
141 1 1 0 90.90081421 1.50543641 7.50000000 0 0 0
142 1 1 0 91.62368357 2.72767201 7.50000000 0 0 0
143 1 1 0 93.04360524 2.71276669 7.50000000 0 0 0
144 1 1 0 93.74065795 1.47562579 7.50000000 0 0 0
145 1 1 0 95.16057972 1.46072047 7.50000000 0 0 0
146 1 1 0 95.88344908 2.68295607 7.50000000 0 0 0
147 1 1 0 97.30337075 2.66805075 7.50000000 0 0 0
148 1 1 0 98.00042346 1.43090984 7.50000000 0 0 0
149 1 1 0 99.42034523 1.41600453 7.50000000 0 0 0
150 1 1 0 100.14321459 2.63824012 7.50000000 0 0 0
151 1 1 0 101.56313626 2.62333481 7.50000000 0 0 0
152 1 1 0 102.26018897 1.38619390 7.50000000 0 0 0
153 1 1 0 103.68011073 1.37128859 7.50000000 0 0 0
154 1 1 0 104.40298010 2.59352418 7.50000000 0 0 0
155 1 1 0 105.82290177 2.57861887 7.50000000 0 0 0
156 1 1 0 106.51995447 1.34147796 7.50000000 0 0 0
157 1 1 0 107.93987624 1.32657265 7.50000000 0 0 0
158 1 1 0 108.66274561 2.54880824 7.50000000 0 0 0
159 1 1 0 110.08266728 2.53390293 7.50000000 0 0 0
160 1 1 0 110.77971998 1.29676202 7.50000000 0 0 0
161 1 1 0 112.19964175 1.28185671 7.50000000 0 0 0
162 1 1 0 112.92251112 2.50409230 7.50000000 0 0 0
163 1 1 0 114.34243279 2.48918699 7.50000000 0 0 0
164 1 1 0 115.03948549 1.25204608 7.50000000 0 0 0
165 1 1 0 116.45940726 1.23714076 7.50000000 0 0 0
166 1 1 0 0.05163352 4.91875300 7.50000000 0 0 0
167 1 1 0 1.47155529 4.90384769 7.50000000 0 0 0
168 1 1 0 2.19442465 6.12608328 7.50000000 0 0 0
169 1 1 0 3.61434632 6.11117797 7.50000000 0 0 0
170 1 1 0 4.31139902 4.87403706 7.50000000 0 0 0
171 1 1 0 5.73132079 4.85913175 7.50000000 0 0 0
172 1 1 0 6.45419016 6.08136734 7.50000000 0 0 0
173 1 1 0 7.87411183 6.06646203 7.50000000 0 0 0
174 1 1 0 8.57116453 4.82932112 7.50000000 0 0 0
175 1 1 0 9.99108630 4.81441581 7.50000000 0 0 0
176 1 1 0 10.71395567 6.03665140 7.50000000 0 0 0
177 1 1 0 12.13387734 6.02174609 7.50000000 0 0 0
178 1 1 0 12.83093004 4.78460518 7.50000000 0 0 0
179 1 1 0 14.25085181 4.76969986 7.50000000 0 0 0
180 1 1 0 14.97372118 5.99193546 7.50000000 0 0 0
181 1 1 0 16.39364285 5.97703014 7.50000000 0 0 0
182 1 1 0 17.09069555 4.73988924 7.50000000 0 0 0
183 1 1 0 18.51061732 4.72498392 7.50000000 0 0 0
184 1 1 0 19.23348668 5.94721951 7.50000000 0 0 0
185 1 1 0 20.65340835 5.93231420 7.50000000 0 0 0
186 1 1 0 21.35046106 4.69517329 7.50000000 0 0 0
187 1 1 0 22.77038283 4.68026798 7.50000000 0 0 0
188 1 1 0 23.49325219 5.90250357 7.50000000 0 0 0
189 1 1 0 24.91317386 5.88759826 7.50000000 0 0 0
190 1 1 0 25.61022657 4.65045735 7.50000000 0 0 0
191 1 1 0 27.03014834 4.63555204 7.50000000 0 0 0
192 1 1 0 27.75301770 5.85778763 7.50000000 0 0 0
193 1 1 0 29.17293937 5.84288232 7.50000000 0 0 0
194 1 1 0 29.86999208 4.60574141 7.50000000 0 0 0
195 1 1 0 31.28991385 4.59083610 7.50000000 0 0 0
196 1 1 0 32.01278321 5.81307169 7.50000000 0 0 0
197 1 1 0 33.43270488 5.79816638 7.50000000 0 0 0
198 1 1 0 34.12975759 4.56102547 7.50000000 0 0 0
199 1 1 0 35.54967935 4.54612016 7.50000000 0 0 0
200 1 1 0 36.27254872 5.76835575 7.50000000 0 0 0
201 1 1 0 37.69247039 5.75345044 7.50000000 0 0 0
202 1 1 0 38.38952309 4.51630953 7.50000000 0 0 0
203 1 1 0 39.80944486 4.50140421 7.50000000 0 0 0
204 1 1 0 40.53231423 5.72363981 7.50000000 0 0 0
205 1 1 0 41.95223590 5.70873449 7.50000000 0 0 0
206 1 1 0 42.64928860 4.47159359 7.50000000 0 0 0
207 1 1 0 44.06921037 4.45668827 7.50000000 0 0 0
208 1 1 0 44.79207974 5.67892387 7.50000000 0 0 0
209 1 1 0 46.21200141 5.66401855 7.50000000 0 0 0
210 1 1 0 46.90905411 4.42687764 7.50000000 0 0 0
211 1 1 0 48.32897588 4.41197233 7.50000000 0 0 0
212 1 1 0 49.05184524 5.63420792 7.50000000 0 0 0
213 1 1 0 50.47176691 5.61930261 7.50000000 0 0 0
214 1 1 0 51.16881962 4.38216170 7.50000000 0 0 0
215 1 1 0 52.58874139 4.36725639 7.50000000 0 0 0
216 1 1 0 53.31161075 5.58949198 7.50000000 0 0 0
217 1 1 0 54.73153242 5.57458667 7.50000000 0 0 0
218 1 1 0 55.42858513 4.33744576 7.50000000 0 0 0
219 1 1 0 56.84850690 4.32254045 7.50000000 0 0 0
220 1 1 0 57.57137626 5.54477604 7.50000000 0 0 0
221 1 1 0 58.99129793 5.52987073 7.50000000 0 0 0
222 1 1 0 59.68835064 4.29272982 7.50000000 0 0 0
223 1 1 0 61.10827241 4.27782451 7.50000000 0 0 0
224 1 1 0 61.83114177 5.50006010 7.50000000 0 0 0
225 1 1 0 63.25106344 5.48515479 7.50000000 0 0 0
226 1 1 0 63.94811615 4.24801388 7.50000000 0 0 0
227 1 1 0 65.36803792 4.23310856 7.50000000 0 0 0
228 1 1 0 66.09090728 5.45534416 7.50000000 0 0 0
229 1 1 0 67.51082895 5.44043885 7.50000000 0 0 0
230 1 1 0 68.20788165 4.20329794 7.50000000 0 0 0
231 1 1 0 69.62780342 4.18839262 7.50000000 0 0 0
232 1 1 0 70.35067279 5.41062822 7.50000000 0 0 0
233 1 1 0 71.77059446 5.39572290 7.50000000 0 0 0
234 1 1 0 72.46764716 4.15858199 7.50000000 0 0 0
235 1 1 0 73.88756893 4.14367668 7.50000000 0 0 0
236 1 1 0 74.61043830 5.36591227 7.50000000 0 0 0
237 1 1 0 76.03035997 5.35100696 7.50000000 0 0 0
238 1 1 0 76.72741267 4.11386605 7.50000000 0 0 0
239 1 1 0 78.14733444 4.09896074 7.50000000 0 0 0
240 1 1 0 78.87020381 5.32119633 7.50000000 0 0 0
241 1 1 0 80.29012547 5.30629102 7.50000000 0 0 0
242 1 1 0 80.98717818 4.06915011 7.50000000 0 0 0
243 1 1 0 82.40709995 4.05424480 7.50000000 0 0 0
244 1 1 0 83.12996931 5.27648039 7.50000000 0 0 0
245 1 1 0 84.54989098 5.26157508 7.50000000 0 0 0
246 1 1 0 85.24694369 4.02443417 7.50000000 0 0 0
247 1 1 0 86.66686546 4.00952886 7.50000000 0 0 0
248 1 1 0 87.38973482 5.23176445 7.50000000 0 0 0
249 1 1 0 88.80965649 5.21685914 7.50000000 0 0 0
250 1 1 0 89.50670920 3.97971823 7.50000000 0 0 0
251 1 1 0 90.92663097 3.96481291 7.50000000 0 0 0
252 1 1 0 91.64950033 5.18704851 7.50000000 0 0 0
253 1 1 0 93.06942200 5.17214320 7.50000000 0 0 0
254 1 1 0 93.76647471 3.93500229 7.50000000 0 0 0
255 1 1 0 95.18639648 3.92009697 7.50000000 0 0 0
256 1 1 0 95.90926584 5.14233257 7.50000000 0 0 0
257 1 1 0 97.32918751 5.12742725 7.50000000 0 0 0
258 1 1 0 98.02624021 3.89028634 7.50000000 0 0 0
259 1 1 0 99.44616198 3.87538103 7.50000000 0 0 0
260 1 1 0 100.16903135 5.09761662 7.50000000 0 0 0
261 1 1 0 101.58895302 5.08271131 7.50000000 0 0 0
262 1 1 0 102.28600572 3.84557040 7.50000000 0 0 0
263 1 1 0 103.70592749 3.83066509 7.50000000 0 0 0
264 1 1 0 104.42879686 5.05290068 7.50000000 0 0 0
265 1 1 0 105.84871853 5.03799537 7.50000000 0 0 0
266 1 1 0 106.54577123 3.80085446 7.50000000 0 0 0
267 1 1 0 107.96569300 3.78594915 7.50000000 0 0 0
268 1 1 0 108.68856237 5.00818474 7.50000000 0 0 0
269 1 1 0 110.10848404 4.99327943 7.50000000 0 0 0
270 1 1 0 110.80553674 3.75613852 7.50000000 0 0 0
271 1 1 0 112.22545851 3.74123321 7.50000000 0 0 0
272 1 1 0 112.94832787 4.96346880 7.50000000 0 0 0
273 1 1 0 114.36824954 4.94856349 7.50000000 0 0 0
274 1 1 0 115.06530225 3.71142258 7.50000000 0 0 0
275 1 1 0 116.48522402 3.69651727 7.50000000 0 0 0
276 1 1 0 0.07745027 7.37812950 7.50000000 0 0 0
277 1 1 0 1.49737204 7.36322419 7.50000000 0 0 0
278 1 1 0 2.22024141 8.58545978 7.50000000 0 0 0
279 1 1 0 3.64016308 8.57055447 7.50000000 0 0 0
280 1 1 0 4.33721578 7.33341356 7.50000000 0 0 0
281 1 1 0 5.75713755 7.31850825 7.50000000 0 0 0
282 1 1 0 6.48000692 8.54074384 7.50000000 0 0 0
283 1 1 0 7.89992859 8.52583853 7.50000000 0 0 0
284 1 1 0 8.59698129 7.28869762 7.50000000 0 0 0
285 1 1 0 10.01690306 7.27379231 7.50000000 0 0 0
286 1 1 0 10.73977243 8.49602790 7.50000000 0 0 0
287 1 1 0 12.15969409 8.48112259 7.50000000 0 0 0
288 1 1 0 12.85674680 7.24398168 7.50000000 0 0 0
289 1 1 0 14.27666857 7.22907636 7.50000000 0 0 0
290 1 1 0 14.99953793 8.45131196 7.50000000 0 0 0
291 1 1 0 16.41945960 8.43640665 7.50000000 0 0 0
292 1 1 0 17.11651231 7.19926574 7.50000000 0 0 0
293 1 1 0 18.53643408 7.18436042 7.50000000 0 0 0
294 1 1 0 19.25930344 8.40659602 7.50000000 0 0 0
295 1 1 0 20.67922511 8.39169070 7.50000000 0 0 0
296 1 1 0 21.37627782 7.15454979 7.50000000 0 0 0
297 1 1 0 22.79619959 7.13964448 7.50000000 0 0 0
298 1 1 0 23.51906895 8.36188007 7.50000000 0 0 0
299 1 1 0 24.93899062 8.34697476 7.50000000 0 0 0
300 1 1 0 25.63604333 7.10983385 7.50000000 0 0 0
301 1 1 0 27.05596510 7.09492854 7.50000000 0 0 0
302 1 1 0 27.77883446 8.31716413 7.50000000 0 0 0
303 1 1 0 29.19875613 8.30225882 7.50000000 0 0 0
304 1 1 0 29.89580883 7.06511791 7.50000000 0 0 0
305 1 1 0 31.31573060 7.05021260 7.50000000 0 0 0
306 1 1 0 32.03859997 8.27244819 7.50000000 0 0 0
307 1 1 0 33.45852164 8.25754288 7.50000000 0 0 0
308 1 1 0 34.15557434 7.02040197 7.50000000 0 0 0
309 1 1 0 35.57549611 7.00549666 7.50000000 0 0 0
310 1 1 0 36.29836548 8.22773225 7.50000000 0 0 0
311 1 1 0 37.71828715 8.21282694 7.50000000 0 0 0
312 1 1 0 38.41533985 6.97568603 7.50000000 0 0 0
313 1 1 0 39.83526162 6.96078071 7.50000000 0 0 0
314 1 1 0 40.55813099 8.18301631 7.50000000 0 0 0
315 1 1 0 41.97805266 8.16811100 7.50000000 0 0 0
316 1 1 0 42.67510536 6.93097009 7.50000000 0 0 0
317 1 1 0 44.09502713 6.91606477 7.50000000 0 0 0
318 1 1 0 44.81789649 8.13830037 7.50000000 0 0 0
319 1 1 0 46.23781816 8.12339505 7.50000000 0 0 0
320 1 1 0 46.93487087 6.88625414 7.50000000 0 0 0
321 1 1 0 48.35479264 6.87134883 7.50000000 0 0 0
322 1 1 0 49.07766200 8.09358442 7.50000000 0 0 0
323 1 1 0 50.49758367 8.07867911 7.50000000 0 0 0
324 1 1 0 51.19463638 6.84153820 7.50000000 0 0 0
325 1 1 0 52.61455815 6.82663289 7.50000000 0 0 0
326 1 1 0 53.33742751 8.04886848 7.50000000 0 0 0
327 1 1 0 54.75734918 8.03396317 7.50000000 0 0 0
328 1 1 0 55.45440189 6.79682226 7.50000000 0 0 0
329 1 1 0 56.87432366 6.78191695 7.50000000 0 0 0
330 1 1 0 57.59719302 8.00415254 7.50000000 0 0 0
331 1 1 0 59.01711469 7.98924723 7.50000000 0 0 0
332 1 1 0 59.71416740 6.75210632 7.50000000 0 0 0
333 1 1 0 61.13408916 6.73720101 7.50000000 0 0 0
334 1 1 0 61.85695853 7.95943660 7.50000000 0 0 0
335 1 1 0 63.27688020 7.94453129 7.50000000 0 0 0
336 1 1 0 63.97393290 6.70739038 7.50000000 0 0 0
337 1 1 0 65.39385467 6.69248507 7.50000000 0 0 0
338 1 1 0 66.11672404 7.91472066 7.50000000 0 0 0
339 1 1 0 67.53664571 7.89981535 7.50000000 0 0 0
340 1 1 0 68.23369841 6.66267444 7.50000000 0 0 0
341 1 1 0 69.65362018 6.64776912 7.50000000 0 0 0
342 1 1 0 70.37648955 7.87000472 7.50000000 0 0 0
343 1 1 0 71.79641122 7.85509940 7.50000000 0 0 0
344 1 1 0 72.49346392 6.61795850 7.50000000 0 0 0
345 1 1 0 73.91338569 6.60305318 7.50000000 0 0 0
346 1 1 0 74.63625505 7.82528877 7.50000000 0 0 0
347 1 1 0 76.05617672 7.81038346 7.50000000 0 0 0
348 1 1 0 76.75322943 6.57324255 7.50000000 0 0 0
349 1 1 0 78.17315120 6.55833724 7.50000000 0 0 0
350 1 1 0 78.89602056 7.78057283 7.50000000 0 0 0
351 1 1 0 80.31594223 7.76566752 7.50000000 0 0 0
352 1 1 0 81.01299494 6.52852661 7.50000000 0 0 0
353 1 1 0 82.43291671 6.51362130 7.50000000 0 0 0
354 1 1 0 83.15578607 7.73585689 7.50000000 0 0 0
355 1 1 0 84.57570774 7.72095158 7.50000000 0 0 0
356 1 1 0 85.27276045 6.48381067 7.50000000 0 0 0
357 1 1 0 86.69268222 6.46890536 7.50000000 0 0 0
358 1 1 0 87.41555158 7.69114095 7.50000000 0 0 0
359 1 1 0 88.83547325 7.67623564 7.50000000 0 0 0
360 1 1 0 89.53252596 6.43909473 7.50000000 0 0 0
361 1 1 0 90.95244773 6.42418942 7.50000000 0 0 0
362 1 1 0 91.67531709 7.64642501 7.50000000 0 0 0
363 1 1 0 93.09523876 7.63151970 7.50000000 0 0 0
364 1 1 0 93.79229146 6.39437879 7.50000000 0 0 0
365 1 1 0 95.21221323 6.37947347 7.50000000 0 0 0
366 1 1 0 95.93508260 7.60170907 7.50000000 0 0 0
367 1 1 0 97.35500427 7.58680375 7.50000000 0 0 0
368 1 1 0 98.05205697 6.34966285 7.50000000 0 0 0
369 1 1 0 99.47197874 6.33475753 7.50000000 0 0 0
370 1 1 0 100.19484811 7.55699313 7.50000000 0 0 0
371 1 1 0 101.61476978 7.54208781 7.50000000 0 0 0
372 1 1 0 102.31182248 6.30494690 7.50000000 0 0 0
373 1 1 0 103.73174425 6.29004159 7.50000000 0 0 0
374 1 1 0 104.45461362 7.51227718 7.50000000 0 0 0
375 1 1 0 105.87453528 7.49737187 7.50000000 0 0 0
376 1 1 0 106.57158799 6.26023096 7.50000000 0 0 0
377 1 1 0 107.99150976 6.24532565 7.50000000 0 0 0
378 1 1 0 108.71437912 7.46756124 7.50000000 0 0 0
379 1 1 0 110.13430079 7.45265593 7.50000000 0 0 0
380 1 1 0 110.83135350 6.21551502 7.50000000 0 0 0
381 1 1 0 112.25127527 6.20060971 7.50000000 0 0 0
382 1 1 0 112.97414463 7.42284530 7.50000000 0 0 0
383 1 1 0 114.39406630 7.40793999 7.50000000 0 0 0
384 1 1 0 115.09111901 6.17079908 7.50000000 0 0 0
385 1 1 0 116.51104078 6.15589377 7.50000000 0 0 0
386 1 1 0 0.10326703 9.83750600 7.50000000 0 0 0
387 1 1 0 1.52318880 9.82260069 7.50000000 0 0 0
388 1 1 0 2.24605817 11.04483628 7.50000000 0 0 0
389 1 1 0 3.66597984 11.02993097 7.50000000 0 0 0
390 1 1 0 4.36303254 9.79279006 7.50000000 0 0 0
391 1 1 0 5.78295431 9.77788475 7.50000000 0 0 0
392 1 1 0 6.50582367 11.00012034 7.50000000 0 0 0
393 1 1 0 7.92574534 10.98521503 7.50000000 0 0 0
394 1 1 0 8.62279805 9.74807412 7.50000000 0 0 0
395 1 1 0 10.04271982 9.73316881 7.50000000 0 0 0
396 1 1 0 10.76558918 10.95540440 7.50000000 0 0 0
397 1 1 0 12.18551085 10.94049909 7.50000000 0 0 0
398 1 1 0 12.88256356 9.70335818 7.50000000 0 0 0
399 1 1 0 14.30248533 9.68845287 7.50000000 0 0 0
400 1 1 0 15.02535469 10.91068846 7.50000000 0 0 0
401 1 1 0 16.44527636 10.89578315 7.50000000 0 0 0
402 1 1 0 17.14232907 9.65864224 7.50000000 0 0 0
403 1 1 0 18.56225084 9.64373692 7.50000000 0 0 0
404 1 1 0 19.28512020 10.86597252 7.50000000 0 0 0
405 1 1 0 20.70504187 10.85106720 7.50000000 0 0 0
406 1 1 0 21.40209458 9.61392630 7.50000000 0 0 0
407 1 1 0 22.82201635 9.59902098 7.50000000 0 0 0
408 1 1 0 23.54488571 10.82125658 7.50000000 0 0 0
409 1 1 0 24.96480738 10.80635126 7.50000000 0 0 0
410 1 1 0 25.66186008 9.56921035 7.50000000 0 0 0
411 1 1 0 27.08178185 9.55430504 7.50000000 0 0 0
412 1 1 0 27.80465122 10.77654063 7.50000000 0 0 0
413 1 1 0 29.22457289 10.76163532 7.50000000 0 0 0
414 1 1 0 29.92162559 9.52449441 7.50000000 0 0 0
415 1 1 0 31.34154736 9.50958910 7.50000000 0 0 0
416 1 1 0 32.06441673 10.73182469 7.50000000 0 0 0
417 1 1 0 33.48433840 10.71691938 7.50000000 0 0 0
418 1 1 0 34.18139110 9.47977847 7.50000000 0 0 0
419 1 1 0 35.60131287 9.46487316 7.50000000 0 0 0
420 1 1 0 36.32418224 10.68710875 7.50000000 0 0 0
421 1 1 0 37.74410390 10.67220344 7.50000000 0 0 0
422 1 1 0 38.44115661 9.43506253 7.50000000 0 0 0
423 1 1 0 39.86107838 9.42015722 7.50000000 0 0 0
424 1 1 0 40.58394774 10.64239281 7.50000000 0 0 0
425 1 1 0 42.00386941 10.62748750 7.50000000 0 0 0
426 1 1 0 42.70092212 9.39034659 7.50000000 0 0 0
427 1 1 0 44.12084389 9.37544127 7.50000000 0 0 0
428 1 1 0 44.84371325 10.59767687 7.50000000 0 0 0
429 1 1 0 46.26363492 10.58277155 7.50000000 0 0 0
430 1 1 0 46.96068763 9.34563065 7.50000000 0 0 0
431 1 1 0 48.38060940 9.33072533 7.50000000 0 0 0
432 1 1 0 49.10347876 10.55296093 7.50000000 0 0 0
433 1 1 0 50.52340043 10.53805561 7.50000000 0 0 0
434 1 1 0 51.22045314 9.30091470 7.50000000 0 0 0
435 1 1 0 52.64037491 9.28600939 7.50000000 0 0 0
436 1 1 0 53.36324427 10.50824498 7.50000000 0 0 0
437 1 1 0 54.78316594 10.49333967 7.50000000 0 0 0
438 1 1 0 55.48021864 9.25619876 7.50000000 0 0 0
439 1 1 0 56.90014041 9.24129345 7.50000000 0 0 0
440 1 1 0 57.62300978 10.46352904 7.50000000 0 0 0
441 1 1 0 59.04293145 10.44862373 7.50000000 0 0 0
442 1 1 0 59.73998415 9.21148282 7.50000000 0 0 0
443 1 1 0 61.15990592 9.19657751 7.50000000 0 0 0
444 1 1 0 61.88277529 10.41881310 7.50000000 0 0 0
445 1 1 0 63.30269696 10.40390779 7.50000000 0 0 0
446 1 1 0 63.99974966 9.16676688 7.50000000 0 0 0
447 1 1 0 65.41967143 9.15186157 7.50000000 0 0 0
448 1 1 0 66.14254080 10.37409716 7.50000000 0 0 0
449 1 1 0 67.56246247 10.35919185 7.50000000 0 0 0
450 1 1 0 68.25951517 9.12205094 7.50000000 0 0 0
451 1 1 0 69.67943694 9.10714562 7.50000000 0 0 0
452 1 1 0 70.40230630 10.32938122 7.50000000 0 0 0
453 1 1 0 71.82222797 10.31447591 7.50000000 0 0 0
454 1 1 0 72.51928068 9.07733500 7.50000000 0 0 0
455 1 1 0 73.93920245 9.06242968 7.50000000 0 0 0
456 1 1 0 74.66207181 10.28466528 7.50000000 0 0 0
457 1 1 0 76.08199348 10.26975996 7.50000000 0 0 0
458 1 1 0 76.77904619 9.03261905 7.50000000 0 0 0
459 1 1 0 78.19896796 9.01771374 7.50000000 0 0 0
460 1 1 0 78.92183732 10.23994933 7.50000000 0 0 0
461 1 1 0 80.34175899 10.22504402 7.50000000 0 0 0
462 1 1 0 81.03881170 8.98790311 7.50000000 0 0 0
463 1 1 0 82.45873347 8.97299780 7.50000000 0 0 0
464 1 1 0 83.18160283 10.19523339 7.50000000 0 0 0
465 1 1 0 84.60152450 10.18032808 7.50000000 0 0 0
466 1 1 0 85.29857721 8.94318717 7.50000000 0 0 0
467 1 1 0 86.71849897 8.92828186 7.50000000 0 0 0
468 1 1 0 87.44136834 10.15051745 7.50000000 0 0 0
469 1 1 0 88.86129001 10.13561214 7.50000000 0 0 0
470 1 1 0 89.55834271 8.89847123 7.50000000 0 0 0
471 1 1 0 90.97826448 8.88356592 7.50000000 0 0 0
472 1 1 0 91.70113385 10.10580151 7.50000000 0 0 0
473 1 1 0 93.12105552 10.09089620 7.50000000 0 0 0
474 1 1 0 93.81810822 8.85375529 7.50000000 0 0 0
475 1 1 0 95.23802999 8.83884997 7.50000000 0 0 0
476 1 1 0 95.96089936 10.06108557 7.50000000 0 0 0
477 1 1 0 97.38082103 10.04618026 7.50000000 0 0 0
478 1 1 0 98.07787373 8.80903935 7.50000000 0 0 0
479 1 1 0 99.49779550 8.79413403 7.50000000 0 0 0
480 1 1 0 100.22066486 10.01636963 7.50000000 0 0 0
481 1 1 0 101.64058653 10.00146431 7.50000000 0 0 0
482 1 1 0 102.33763924 8.76432340 7.50000000 0 0 0
483 1 1 0 103.75756101 8.74941809 7.50000000 0 0 0
484 1 1 0 104.48043037 9.97165368 7.50000000 0 0 0
485 1 1 0 105.90035204 9.95674837 7.50000000 0 0 0
486 1 1 0 106.59740475 8.71960746 7.50000000 0 0 0
487 1 1 0 108.01732652 8.70470215 7.50000000 0 0 0
488 1 1 0 108.74019588 9.92693774 7.50000000 0 0 0
489 1 1 0 110.16011755 9.91203243 7.50000000 0 0 0
490 1 1 0 110.85717026 8.67489152 7.50000000 0 0 0
491 1 1 0 112.27709203 8.65998621 7.50000000 0 0 0
492 1 1 0 112.99996139 9.88222180 7.50000000 0 0 0
493 1 1 0 114.41988306 9.86731649 7.50000000 0 0 0
494 1 1 0 115.11693577 8.63017558 7.50000000 0 0 0
495 1 1 0 116.53685754 8.61527027 7.50000000 0 0 0
496 1 1 0 0.12908379 12.29688250 7.50000000 0 0 0
497 1 1 0 1.54900556 12.28197719 7.50000000 0 0 0
498 1 1 0 2.27187492 13.50421278 7.50000000 0 0 0
499 1 1 0 3.69179659 13.48930747 7.50000000 0 0 0
500 1 1 0 4.38884930 12.25216656 7.50000000 0 0 0
501 1 1 0 5.80877107 12.23726125 7.50000000 0 0 0
502 1 1 0 6.53164043 13.45949684 7.50000000 0 0 0
503 1 1 0 7.95156210 13.44459153 7.50000000 0 0 0
504 1 1 0 8.64861481 12.20745062 7.50000000 0 0 0
505 1 1 0 10.06853658 12.19254531 7.50000000 0 0 0
506 1 1 0 10.79140594 13.41478090 7.50000000 0 0 0
507 1 1 0 12.21132761 13.39987559 7.50000000 0 0 0
508 1 1 0 12.90838032 12.16273468 7.50000000 0 0 0
509 1 1 0 14.32830209 12.14782937 7.50000000 0 0 0
510 1 1 0 15.05117145 13.37006496 7.50000000 0 0 0
511 1 1 0 16.47109312 13.35515965 7.50000000 0 0 0
512 1 1 0 17.16814583 12.11801874 7.50000000 0 0 0
513 1 1 0 18.58806759 12.10311342 7.50000000 0 0 0
514 1 1 0 19.31093696 13.32534902 7.50000000 0 0 0
515 1 1 0 20.73085863 13.31044371 7.50000000 0 0 0
516 1 1 0 21.42791133 12.07330280 7.50000000 0 0 0
517 1 1 0 22.84783310 12.05839748 7.50000000 0 0 0
518 1 1 0 23.57070247 13.28063308 7.50000000 0 0 0
519 1 1 0 24.99062414 13.26572776 7.50000000 0 0 0
520 1 1 0 25.68767684 12.02858685 7.50000000 0 0 0
521 1 1 0 27.10759861 12.01368154 7.50000000 0 0 0
522 1 1 0 27.83046798 13.23591713 7.50000000 0 0 0
523 1 1 0 29.25038965 13.22101182 7.50000000 0 0 0
524 1 1 0 29.94744235 11.98387091 7.50000000 0 0 0
525 1 1 0 31.36736412 11.96896560 7.50000000 0 0 0
526 1 1 0 32.09023348 13.19120119 7.50000000 0 0 0
527 1 1 0 33.51015515 13.17629588 7.50000000 0 0 0
528 1 1 0 34.20720786 11.93915497 7.50000000 0 0 0
529 1 1 0 35.62712963 11.92424966 7.50000000 0 0 0
530 1 1 0 36.34999899 13.14648525 7.50000000 0 0 0
531 1 1 0 37.76992066 13.13157994 7.50000000 0 0 0
532 1 1 0 38.46697337 11.89443903 7.50000000 0 0 0
533 1 1 0 39.88689514 11.87953372 7.50000000 0 0 0
534 1 1 0 40.60976450 13.10176931 7.50000000 0 0 0
535 1 1 0 42.02968617 13.08686400 7.50000000 0 0 0
536 1 1 0 42.72673888 11.84972309 7.50000000 0 0 0
537 1 1 0 44.14666065 11.83481778 7.50000000 0 0 0
538 1 1 0 44.86953001 13.05705337 7.50000000 0 0 0
539 1 1 0 46.28945168 13.04214806 7.50000000 0 0 0
540 1 1 0 46.98650439 11.80500715 7.50000000 0 0 0
541 1 1 0 48.40642616 11.79010183 7.50000000 0 0 0
542 1 1 0 49.12929552 13.01233743 7.50000000 0 0 0
543 1 1 0 50.54921719 12.99743211 7.50000000 0 0 0
544 1 1 0 51.24626989 11.76029121 7.50000000 0 0 0
545 1 1 0 52.66619166 11.74538589 7.50000000 0 0 0
546 1 1 0 53.38906103 12.96762148 7.50000000 0 0 0
547 1 1 0 54.80898270 12.95271617 7.50000000 0 0 0
548 1 1 0 55.50603540 11.71557526 7.50000000 0 0 0
549 1 1 0 56.92595717 11.70066995 7.50000000 0 0 0
550 1 1 0 57.64882654 12.92290554 7.50000000 0 0 0
551 1 1 0 59.06874821 12.90800023 7.50000000 0 0 0
552 1 1 0 59.76580091 11.67085932 7.50000000 0 0 0
553 1 1 0 61.18572268 11.65595401 7.50000000 0 0 0
554 1 1 0 61.90859205 12.87818960 7.50000000 0 0 0
555 1 1 0 63.32851371 12.86328429 7.50000000 0 0 0
556 1 1 0 64.02556642 11.62614338 7.50000000 0 0 0
557 1 1 0 65.44548819 11.61123807 7.50000000 0 0 0
558 1 1 0 66.16835755 12.83347366 7.50000000 0 0 0
559 1 1 0 67.58827922 12.81856835 7.50000000 0 0 0
560 1 1 0 68.28533193 11.58142744 7.50000000 0 0 0
561 1 1 0 69.70525370 11.56652213 7.50000000 0 0 0
562 1 1 0 70.42812306 12.78875772 7.50000000 0 0 0
563 1 1 0 71.84804473 12.77385241 7.50000000 0 0 0
564 1 1 0 72.54509744 11.53671150 7.50000000 0 0 0
565 1 1 0 73.96501921 11.52180618 7.50000000 0 0 0
566 1 1 0 74.68788857 12.74404178 7.50000000 0 0 0
567 1 1 0 76.10781024 12.72913646 7.50000000 0 0 0
568 1 1 0 76.80486295 11.49199556 7.50000000 0 0 0
569 1 1 0 78.22478472 11.47709024 7.50000000 0 0 0
570 1 1 0 78.94765408 12.69932584 7.50000000 0 0 0
571 1 1 0 80.36757575 12.68442052 7.50000000 0 0 0
572 1 1 0 81.06462845 11.44727961 7.50000000 0 0 0
573 1 1 0 82.48455022 11.43237430 7.50000000 0 0 0
574 1 1 0 83.20741959 12.65460989 7.50000000 0 0 0
575 1 1 0 84.62734126 12.63970458 7.50000000 0 0 0
576 1 1 0 85.32439396 11.40256367 7.50000000 0 0 0
577 1 1 0 86.74431573 11.38765836 7.50000000 0 0 0
578 1 1 0 87.46718510 12.60989395 7.50000000 0 0 0
579 1 1 0 88.88710677 12.59498864 7.50000000 0 0 0
580 1 1 0 89.58415947 11.35784773 7.50000000 0 0 0
581 1 1 0 91.00408124 11.34294242 7.50000000 0 0 0
582 1 1 0 91.72695061 12.56517801 7.50000000 0 0 0
583 1 1 0 93.14687228 12.55027270 7.50000000 0 0 0
584 1 1 0 93.84392498 11.31313179 7.50000000 0 0 0
585 1 1 0 95.26384675 11.29822648 7.50000000 0 0 0
586 1 1 0 95.98671611 12.52046207 7.50000000 0 0 0
587 1 1 0 97.40663778 12.50555676 7.50000000 0 0 0
588 1 1 0 98.10369049 11.26841585 7.50000000 0 0 0
589 1 1 0 99.52361226 11.25351053 7.50000000 0 0 0
590 1 1 0 100.24648162 12.47574613 7.50000000 0 0 0
591 1 1 0 101.66640329 12.46084081 7.50000000 0 0 0
592 1 1 0 102.36345600 11.22369991 7.50000000 0 0 0
593 1 1 0 103.78337777 11.20879459 7.50000000 0 0 0
594 1 1 0 104.50624713 12.43103019 7.50000000 0 0 0
595 1 1 0 105.92616880 12.41612487 7.50000000 0 0 0
596 1 1 0 106.62322151 11.17898396 7.50000000 0 0 0