ITEM: TIMESTEP
196
ITEM: NUMBER OF ATOMS
8216
ITEM: BOX BOUNDS pp pp pp
0.0000000000000000e+00 7.8819589800000003e+01
0.0000000000000000e+00 1.3651953399999999e+02
0.0000000000000000e+00 1.8399999600000001e+01
ITEM: ATOMS id type x y z c_csym c_2[1] c_2[2] c_2[3] c_2[4] c_2[5] c_2[6] c_3 
1 1 4.02912e-06 -4.68658e-07 7.4361 6.04605 -10002.2 -9966.32 -7941.73 4.83319 -0.166953 -0.0510803 -7.41275 
2 1 2.15884 1.17728 7.44331 6.03493 -20663.3 -31.3868 -4880.94 813.42 13201.3 -23976 -7.41306 
3 1 3.57811 1.14393 7.4516 6.02109 -19760 -3712.9 -3591.48 23825.8 10599.5 -29360.2 -7.4132 
4 1 6.41568 1.07972 7.47192 6.01702 -25872.7 4325.86 3787.13 33164.2 11181.2 -42086.4 -7.41444 
5 1 7.83495 1.05112 7.48056 6.02514 -23801.6 -3105.94 -1961.74 66058.3 -3616.65 -22831.6 -7.41395 
38 1 0.0598545 2.45849 7.4433 6.02767 -16831.6 -4714.13 -5608.94 -8915.32 24663.4 1411.34 -7.41297 
39 1 1.47917 2.42384 7.44551 6.02729 -16452.6 -5139.83 -4685.35 -2423.55 27334.2 -13315.9 -7.4131 
40 1 2.21708 3.6367 7.45527 6.02144 -41208 18401.7 -1286.87 -14910 28039.2 -20202.6 -7.41345 
41 1 3.63628 3.60336 7.46174 6.01569 -38261.4 12433.3 -2983.86 6740.11 30672.8 -22185 -7.41348 
42 1 4.3162 2.35688 7.46026 6.02685 -39974.6 19195.2 2239.86 9095.96 18797.9 -38916.8 -7.41396 
43 1 5.73538 2.32579 7.46964 6.01915 -36943.5 8374.67 -3977.3 40739 12576.5 -27401.9 -7.41346 
44 1 6.47175 3.5399 7.47774 6.02384 -52772.7 36249 10180.8 16222.1 16050.1 -38279.7 -7.41518 
45 1 7.89091 3.51076 7.48445 6.02724 -45789.5 15103.7 -10117.1 47021.3 6629.63 -14424.3 -7.41338 
46 1 8.57196 2.26504 7.48555 6.01988 -33643.1 18255.7 10934.6 39651.1 12562.3 -31081.2 -7.41554 
112 1 0.116948 4.91714 7.46021 6.01768 -24946.2 -1282.76 -3520.04 -29741.6 33712 2750.52 -7.41333 
113 1 1.53627 4.88277 7.46177 6.02119 -21766.3 -126.198 1334.38 -23708.3 42801.1 -10989.2 -7.41394 
114 1 2.272 6.09681 7.47186 6.02132 -55528 28553.5 -1488.7 -36696.4 26341 -13778.4 -7.41372 
115 1 3.69119 6.06367 7.47581 6.01314 -47873.1 23145.6 505.092 -18245.7 36010.7 -13205.8 -7.41423 
116 1 4.37214 4.81754 7.47192 6.02105 -63090 42149.4 5206.19 -12830.8 22023.6 -30952.3 -7.41442 
117 1 5.79125 4.78612 7.47841 6.01602 -55581.2 25787.2 -6575.22 15548.1 22503.2 -16810.4 -7.41356 
118 1 6.52556 6.00132 7.48568 6.0176 -68590.9 54119.4 12204.2 -10539.7 10970.5 -28663 -7.41559 
119 1 7.9447 5.97133 7.48985 6.0238 -55702.4 27004.4 -14334.9 16399.7 9323.63 -5058.21 -7.41331 
120 1 8.62619 4.72559 7.48979 6.02302 -49415.8 40271.8 17909 14914.8 10420.8 -26904.6 -7.41634 
186 1 0.170169 7.37583 7.47759 6.02059 -30075.3 -360.121 -7063.37 -46886.3 25040.5 2621.57 -7.41342 
187 1 1.58954 7.34213 7.4785 6.0211 -21463.8 3777.15 8706.04 -41881.4 40618.2 -7532.54 -7.4151 
188 1 2.32357 8.55711 7.48537 6.03115 -58817.1 29901.9 -7398.33 -48310.6 12551.2 -8133.63 -7.41365 
189 1 3.74281 8.52452 7.48719 6.01665 -45743.1 27344.4 6379.89 -34766.8 28053 -3229.3 -7.41516 
190 1 4.42502 7.27892 7.48373 6.02156 -73845.5 50967.7 2781.86 -34922.4 12810 -20443.6 -7.41454 
191 1 5.84415 7.24728 7.48722 6.01673 -60681.4 34804.2 -5127.8 -12039.9 20743.7 -5336.45 -7.41407 
192 1 6.57708 8.46312 7.49172 6.01825 -72410 57776.2 8973.65 -32555.8 129.492 -19335.8 -7.41548 
193 1 7.99626 8.43237 7.4939 6.0243 -54763.3 32960.7 -13507.5 -11392.7 6482.7 2916.8 -7.41364 
194 1 8.67849 7.18683 7.49394 6.02002 -56251.7 49548.5 19574.9 -13794.8 2635.21 -21360.9 -7.41657 
265 1 5.89481 9.70875 7.49265 6.02045 -54949.7 36992.8 -183.402 -28201.2 13512.9 4913.48 -7.41475 
268 1 8.72922 9.64819 7.49619 6.02035 -58526.9 51568.7 16358.3 -34959.6 -5105.39 -18748.2 -7.41628 
6 1 10.6731 0.992658 7.49142 6.01932 -17348.7 1482.44 6770.26 51513.4 12279.5 -15555.6 -7.41533 
7 1 12.0925 0.966232 7.49363 6.02377 -14798.1 -3818.17 -4997.54 73404.6 -13090.4 -189.342 -7.41436 
8 1 14.9317 0.909048 7.49573 6.01841 -8679.03 -988.766 5125.01 55782.8 18617.1 -3556.07 -7.41536 
9 1 16.351 0.883134 7.49707 6.0165 -5658.67 -1931.65 -6999.13 82951.4 -15216.2 -7124.06 -7.41456 
10 1 19.1906 0.827847 7.50418 5.99698 -8635.49 741.118 3099.48 98738.3 27762.8 -23055.8 -7.41558 
47 1 9.99122 2.23775 7.49027 6.03151 -28351.4 1855.21 -9443.89 66530.2 -5825.72 -6982.94 -7.41372 
48 1 10.7275 3.4521 7.49339 6.02307 -27825.9 19475.4 18249.8 33794.3 12880.3 -16920.5 -7.41646 
49 1 12.1468 3.42498 7.49513 6.03245 -18507.7 -2218.24 -18266.8 56132.6 -7892.57 1671.43 -7.41335 
50 1 12.8295 2.18022 7.49503 6.02033 -13498.2 3844.74 13414.2 45511 16685.7 -6678.74 -7.41602 
51 1 14.2489 2.15369 7.49578 6.02441 -7263.23 -6446.17 -13781.3 67707.6 -11523.3 649.291 -7.41391 
52 1 14.986 3.3676 7.49827 6.01683 -7515.23 -2147.42 19652.2 41415.9 24323.2 -9745.03 -7.41656 
53 1 16.4054 3.34137 7.50022 6.02073 2043.65 -10345.7 -22539.3 70773.4 -6161.85 -9327.92 -7.41369 
54 1 17.0885 2.09696 7.49971 6.00874 -7392.87 -3561.94 11683 65553.2 28394.3 -13968.4 -7.41599 
55 1 18.5079 2.0724 7.50344 6.00719 -963.554 -3959.63 -15874.6 102628 -9706.62 -19817 -7.4143 
56 1 19.2452 3.28651 7.50984 5.99529 -14375.3 -1093.38 20618.3 86693.8 40628.4 -29345.8 -7.41684 
121 1 10.0454 4.69731 7.49313 6.03495 -37805.9 11094.7 -18833.8 40376.9 -1169.4 -1706.39 -7.41309 
122 1 10.7805 5.91221 7.49643 6.02799 -33716.2 29900.5 25187 5636.25 8533.36 -17456.1 -7.41715 
123 1 12.1998 5.88388 7.49811 6.03968 -18366.5 871.208 -27542.5 28645.8 -4305.67 1016.32 -7.41284 
124 1 12.8831 4.63928 7.4978 6.02474 -15731.2 9753.24 24896.6 23150 16770.4 -11769.6 -7.41706 
125 1 14.3025 4.61196 7.49909 6.03208 -3165.85 -9758.94 -26865.8 47558.4 -5440.21 -2173.8 -7.41315 
126 1 15.0387 5.82618 7.50356 6.02132 -10638.1 -241.642 31485 18260.5 25068.5 -19914.4 -7.41754 
127 1 16.4582 5.7994 7.50685 6.02657 4213.11 -9868.82 -35257.3 50972.2 1742.42 -15007.6 -7.41323 
128 1 17.1423 4.5554 7.5058 6.00872 -10244.8 -4859.91 27116.3 47713.6 34837.3 -23189.3 -7.41719 
129 1 18.5617 4.53065 7.51066 6.01303 1662.16 -6299.21 -31379.7 87233.6 1605.62 -23398.2 -7.4137 
130 1 19.2976 5.74539 7.51979 5.99907 -26762.1 5460.6 38307.4 65391.8 44754.9 -39176.6 -7.4182 
195 1 10.0977 7.1573 7.49621 6.03316 -39069.1 18046.3 -23192.5 9340.22 -316.466 1891.46 -7.41297 
196 1 10.8318 8.37261 7.49904 6.02627 -38152.4 35465.1 26903.4 -21501.5 2247.69 -20184.3 -7.41723 
197 1 12.2511 8.34304 7.5013 6.03822 -18953.4 8874.4 -31616.6 1704.83 -1454.25 -2218.31 -7.41284 
198 1 12.935 7.09858 7.50163 6.0313 -20148.4 14942 31933 -3925.53 13227.1 -19609.3 -7.41764 
199 1 14.3545 7.07026 7.50412 6.03727 -2798.66 -4986.92 -35690.2 23375.6 -298.053 -7904.93 -7.41289 
200 1 15.0894 8.2851 7.5098 6.02805 -21573 9456.84 39599 -5520.08 21944 -33038.3 -7.41816 
201 1 16.5089 8.25785 7.51463 6.02195 -3470.36 3420.15 -44471 30829.9 7713.54 -21539.1 -7.41317 
202 1 17.1937 7.01408 7.5144 6.01511 -21448.1 2675.78 40599 25188.7 34437.1 -35840.2 -7.41826 
203 1 18.6131 6.98917 7.52049 6.01415 -5371.79 4191.88 -45030.2 67623.3 9480.07 -27972.4 -7.41344 
204 1 19.3469 8.20505 7.53034 6.00953 -47455.3 23012.6 54172.8 42714.3 40398 -50202.3 -7.41945 
269 1 10.1485 9.61761 7.49812 6.03067 -38776 25773.7 -22464.4 -15812 298.854 2953.58 -7.41327 
272 1 12.9852 9.55826 7.50521 6.02971 -30710.8 25314.7 34319 -27408.7 9123.51 -30106.8 -7.41772 
273 1 14.4047 9.52912 7.50921 6.03059 -11157.4 11183.2 -39834.6 2140.18 4724.6 -14614.3 -7.41303 
276 1 17.2424 9.47359 7.52266 6.02366 -41840.2 21926.9 50694.4 4560.85 29364.6 -49396.5 -7.41907 
277 1 18.6618 9.44871 7.52951 6.00894 -23244.1 27762.3 -56337.5 49648 14065.8 -30916.7 -7.41337 
11 1 20.6099 0.80581 7.50999 5.99206 -5280.28 3564.32 -7516.52 143463 -17859.5 -30990.4 -7.41495 
12 1 23.4494 0.757245 7.52467 5.96258 -13515.4 8177.64 4530.34 185200 37525.7 -41748.5 -7.41626 
13 1 24.8688 0.74217 7.53203 5.96151 -10630 11430.3 -7320.46 235007 -24174.8 -40500.9 -7.41534 
14 1 27.7085 0.702699 7.5447 5.93786 -18310 16410.1 5587.23 274461 43989 -41745.9 -7.41673 
15 1 29.1278 0.694332 7.54922 5.93777 -16443.8 17229.6 -7651.58 312634 -29294.9 -32043.5 -7.41556 
57 1 20.6645 3.26445 7.51646 5.99676 -5315.7 1593.15 -24989.8 132743 -2929.69 -31687.2 -7.41419 
58 1 21.3475 2.02017 7.51637 5.98067 -16765.8 5350.86 13022.4 134235 41553.6 -36404.7 -7.41655 
59 1 22.7668 2.00143 7.524 5.97932 -10727 8443.81 -16793.5 184329 -12016.7 -37884.6 -7.4147 
60 1 23.5035 3.21665 7.53343 5.96533 -32773.7 19781.4 25730.3 170571 54228.4 -44856.6 -7.41782 
61 1 24.9227 3.20141 7.54117 5.97166 -24656 20329.8 -27816.7 220691 -6464.43 -38927.8 -7.41439 
62 1 25.6058 1.95766 7.53985 5.95029 -27689.5 21214.4 16278 226375 51531.4 -44683.1 -7.41738 
63 1 27.0251 1.94603 7.54614 5.95371 -22701.9 19997.5 -18272.6 272134 -17226.4 -36772.1 -7.41487 
64 1 27.7609 3.1626 7.55513 5.94002 -43379.8 38865 29556.3 254615 61593.3 -41689.1 -7.41869 
65 1 29.1801 3.1538 7.55935 5.9523 -36582.2 29810.3 -30700.7 293210 -10652 -30235 -7.41435 
131 1 20.7169 5.7233 7.52724 6.00455 -13049.5 10323.9 -41958.2 112946 7835.85 -33723 -7.41374 
132 1 21.4008 4.4794 7.52634 5.98221 -32032.7 13219 33242.8 114883 51713.6 -42617.5 -7.41806 
133 1 22.8201 4.46058 7.5345 5.98966 -20989.7 16851.5 -35944.7 165389 2237.44 -37772.7 -7.41404 
134 1 23.5546 5.67692 7.54598 5.97381 -56225.5 38116.6 48882.1 142424 57956.4 -48967.3 -7.41961 
135 1 24.9737 5.66142 7.55363 5.98763 -43531.3 38559.1 -49998.7 191737 3998.58 -37202.1 -7.41372 
136 1 25.6578 4.41791 7.55188 5.95575 -52404.1 41504.2 40439.7 199406 62187.4 -46213.8 -7.41931 
137 1 27.0769 4.40585 7.55804 5.97 -42582.4 35761.7 -41185.4 244709 -2708.04 -35059.7 -7.41397 
138 1 27.8102 5.62378 7.56831 5.95285 -69555.2 64009.5 56382.2 215572 64012.3 -41486.8 -7.42091 
139 1 29.2292 5.61421 7.57198 5.97262 -58045.4 50201.8 -56320.2 253288 -1811.54 -28372.4 -7.41345 
205 1 20.7662 8.18306 7.53809 6.00589 -30242 31887.6 -58409.3 91593.1 13164.2 -34208.2 -7.41345 
206 1 21.451 6.93941 7.53837 5.99208 -53913.6 30388.4 53644 89092 50225.3 -50097.4 -7.41963 
207 1 22.8702 6.92056 7.54655 6.00108 -38747.9 36862.6 -56082.4 139491 9556.05 -36613.2 -7.41356 
208 1 23.6019 8.13845 7.55737 5.99002 -83611.6 63050.1 71649 111902 49723.2 -52823.1 -7.42132 
209 1 25.0209 8.12274 7.56438 6.00335 -66820.9 66304 -73493 159725 6514.89 -33157.4 -7.41308 
210 1 25.7061 6.87942 7.56456 5.97142 -79785.8 66603.7 66190.6 162735 57965.6 -47715.1 -7.42131 
211 1 27.1251 6.86681 7.57018 5.98979 -65425.4 60790.4 -66566.2 206502 2075.21 -31972.7 -7.4132 
212 1 27.8552 8.08639 7.57917 5.97389 -95942.4 91120.7 83927.3 172962 52924.5 -41230.2 -7.42297 
213 1 29.2741 8.07594 7.58216 5.99102 -79862.1 77896.9 -83937.7 208804 -2805.55 -24630.2 -7.41255 
280 1 21.4976 9.40069 7.54813 6.00734 -80794.1 56016.2 71632.4 65336.3 40809.6 -56973.1 -7.42102 
281 1 22.9167 9.38197 7.55564 6.0004 -62357.3 65739.9 -75785.9 115064 11337.1 -32766.2 -7.41309 
284 1 25.7502 9.34241 7.57319 5.9908 -107268 94511.6 90392.3 128671 44448.1 -48569.4 -7.42303 
285 1 27.1691 9.32931 7.57801 6.00098 -88845.9 91382.1 -92030.7 170155 251.908 -26345.6 -7.41238 
16 1 31.968 0.662554 7.55532 5.92344 -21250.7 21093.7 5582.85 335572 46122.9 -29342.2 -7.41683 
17 1 33.3872 0.658671 7.5569 5.92465 -20075.8 19167.5 -7465.51 356903 -31805.2 -16805.8 -7.41567 
18 1 36.2278 0.631532 7.55858 5.91774 -21380.3 22251.7 5481.78 365578 45924.6 -14409.6 -7.41677 
19 1 37.647 0.629784 7.55864 5.91995 -20312.8 18230.2 -6893.92 372922 -33279.4 -1651.08 -7.41573 
66 1 29.8643 1.91095 7.55587 5.92876 -32081.1 31141.2 17609.2 301759 55864.5 -35866.7 -7.41782 
67 1 31.2834 1.90495 7.55841 5.93653 -28196.2 23472.1 -19322.8 331909 -20382.9 -23742.9 -7.41491 
68 1 32.0187 3.12248 7.56535 5.92426 -41338.6 44167.3 30852.2 310988 63602.8 -27531.2 -7.41908 
69 1 33.4378 3.11801 7.56582 5.93966 -35436.7 26932.8 -31615.7 333300 -12749.3 -15645.8 -7.4143 
70 1 34.1232 1.87604 7.56147 5.91787 -29327.6 32161.3 17893.2 344926 56418.5 -20846.2 -7.41791 
71 1 35.5423 1.87327 7.56141 5.92746 -25923.4 20097.5 -19118.3 359479 -21942.4 -8468.22 -7.41492 
72 1 36.2774 3.09118 7.56592 5.91668 -29712.4 38140.6 30965.1 337816 63176.2 -11857.7 -7.41917 
73 1 37.6966 3.08881 7.56427 5.93062 -24105.5 16240.3 -31077.8 346292 -13892 -1070.31 -7.4143 
74 1 38.3828 1.8474 7.5608 5.91454 -21265.4 27376.3 17742 361493 55492.5 -5825.86 -7.41788 
140 1 29.9144 4.37155 7.56825 5.93641 -55653.6 55710.5 44035.1 266528 66206.5 -34535.5 -7.42014 
141 1 31.3334 4.36476 7.57003 5.9553 -47013.6 37793.3 -44252 296793 -6262.48 -22606.6 -7.41381 
142 1 32.0661 5.58359 7.57789 5.9382 -60565.4 67104.8 59259 263221 65609.1 -25612.8 -7.42163 
143 1 33.4851 5.578 7.57724 5.95948 -50010.6 41260.9 -58525 285369 -5147.75 -14947.6 -7.41326 
144 1 34.1718 4.33635 7.57227 5.92483 -43275.4 51866.5 44923.9 304087 66668.9 -18369.5 -7.42048 
145 1 35.5909 4.33263 7.57075 5.94332 -35252.6 26096.3 -44506.3 319218 -8006.67 -8165.99 -7.41374 
146 1 36.3237 5.55157 7.57606 5.92909 -36438.1 51984 59388.3 285086 65325.8 -9341.38 -7.4219 
147 1 37.7429 5.54794 7.57273 5.94809 -26210.7 19614.1 -58021.4 293723 -6653.94 -1326.91 -7.41321 
148 1 38.4308 4.30709 7.56817 5.91908 -21878 36878.3 44478.4 317648 65789.6 -2821.19 -7.42053 
214 1 29.9605 6.83349 7.58068 5.95525 -79210.9 81242.4 72869.3 218499 60563.9 -33416.1 -7.4225 
215 1 31.3795 6.82559 7.58165 5.97757 -65879.7 59762.9 -72186.1 247731 -4057.79 -20709.2 -7.41286 
216 1 32.1092 8.04591 7.58822 5.96086 -78652 89394.9 89181.4 210707 53598.9 -24382 -7.42399 
217 1 33.5281 8.03893 7.58662 5.98118 -63379.7 61878.5 -88008.6 231744 -8781.5 -13244.7 -7.41222 
218 1 34.2164 6.79765 7.58343 5.94354 -56056.2 70168.1 74679.7 248521 60904.5 -16559.3 -7.4231 
219 1 35.6355 6.79253 7.58056 5.96383 -43398.7 38482.3 -73224.7 263254 -7187.15 -7795.03 -7.4127 
220 1 36.3657 8.01263 7.58479 5.95035 -41708.2 63460 89764.7 227033 53439.2 -8010.41 -7.42447 
221 1 37.7849 8.00739 7.58005 5.96811 -26776.2 28047.6 -87988.7 234971 -11322.4 -1475.74 -7.41211 
222 1 38.4749 6.76719 7.57652 5.93542 -20949.9 43150.5 73835.6 258671 60426.4 -762.79 -7.42327 
288 1 30.0024 9.29677 7.58868 5.97672 -101165 106299 101050 173415 44962.2 -32434.9 -7.4245 
289 1 31.4213 9.28772 7.589 5.99271 -83318 86352.3 -100743 200802 -9418.97 -16994.3 -7.41183 
292 1 34.2567 9.25986 7.59093 5.96745 -67090.5 86877.3 104724 195795 44746.6 -15565.6 -7.42535 
293 1 35.6758 9.25315 7.58707 5.98452 -49865.8 54926.5 -103285 209444 -14713.4 -6659.82 -7.41156 
296 1 38.5148 9.22754 7.58245 5.95707 -18377.2 46731.6 103970 202607 44639.6 -80.6626 -7.42566 
20 1 40.4878 0.604263 7.55818 5.91713 -18269.5 20805.6 5156.38 372715 44797.6 181.2 -7.4167 
21 1 41.9071 0.602681 7.55741 5.91959 -17073.7 14915.1 -6442.97 368146 -34268.7 12731.7 -7.4158 
22 1 44.7481 0.575977 7.55529 5.91963 -12792.4 17139.2 4486.23 359767 43172.5 15405.7 -7.4166 
23 1 46.1674 0.57263 7.55346 5.92359 -11529 10379.4 -6076.84 341807 -34386.4 27363.4 -7.41591 
24 1 49.0084 0.5418 7.54817 5.931 -7214 12851 3689.5 320751 40563.9 31143.2 -7.41641 
75 1 39.802 1.84575 7.5595 5.92247 -17802.4 12707.3 -18481.2 363506 -22954.1 5940.28 -7.41497 
76 1 40.5374 3.06349 7.56153 5.9147 -13085.2 25924.7 30391.8 343157 61884.3 3214.99 -7.41912 
77 1 41.9567 3.06131 7.55901 5.92648 -7281.25 1808.63 -30154.8 339692 -14359.3 12893.1 -7.41437 
78 1 42.6432 1.82005 7.55717 5.91664 -10265.9 19190.1 17116.3 358225 53969.2 9163.69 -7.41778 
79 1 44.0625 1.81765 7.5552 5.92268 -6598.76 3520.1 -17832.5 347969 -23261.1 20196.8 -7.41507 
80 1 44.7986 3.03477 7.55518 5.91883 3675.23 11342.7 29151.3 330457 60207 18912.3 -7.41893 
81 1 46.2181 3.03093 7.55223 5.92849 9876.94 -11343.1 -28949.8 313620 -13569.6 27053.1 -7.41452 
82 1 46.9042 1.78933 7.55129 5.92274 48.807 10589.2 15964 333885 51870 25154.1 -7.41757 
83 1 48.3236 1.78414 7.54819 5.93014 3746.55 -3454.91 -16852.6 308427 -22131.4 34269.3 -7.41523 
84 1 49.0606 3.00034 7.54689 5.93074 13647.4 0.117612 27164.4 294868 57676 34991.3 -7.41851 
149 1 39.8501 4.30447 7.56507 5.93525 -13836.2 7214.51 -43511.5 320335 -8778.27 5659.26 -7.41376 
150 1 40.5837 5.52288 7.56803 5.92436 -6209.11 27323.7 58131.1 288734 64423.5 6083.8 -7.42188 
151 1 42.0031 5.51945 7.56383 5.94085 4354.38 -7609.54 -56476.7 285490 -6705.36 11892.5 -7.41327 
152 1 42.6918 4.279 7.56071 5.91845 1923.77 16640.7 43198.8 313943 64489.8 12591.3 -7.4204 
153 1 44.1112 4.27571 7.55726 5.93224 10368.6 -13426.8 -42075.2 304489 -8332.5 19400.4 -7.41388 
154 1 44.8461 5.49317 7.55863 5.92538 21427.3 -309.486 55861.3 277996 63643.2 21968.9 -7.42158 
155 1 46.2657 5.48822 7.55465 5.93931 32623.6 -32184.4 -54179 261749 -4658.53 25211.9 -7.41346 
156 1 46.9542 4.24768 7.55253 5.92536 20401.7 -2647.04 41019.4 292740 63046.2 28868.7 -7.42002 
157 1 48.3738 4.24178 7.54885 5.93698 29231.6 -27684.6 -39829 268462 -5769.81 32865.6 -7.41411 
158 1 49.11 5.45812 7.5497 5.93615 36359.9 -20753 52368.5 249096 63049.8 37977.5 -7.4209 
223 1 39.8942 6.76307 7.57175 5.95317 -8303.78 6478.29 -72000.3 261106 -8103.47 4847.07 -7.41269 
224 1 40.6258 7.98227 7.57408 5.94272 2026.18 24653.5 87772.2 229251 53300 7311.07 -7.42448 
225 1 42.0453 7.97719 7.56845 5.95771 17449.4 -13911 -85947 225682 -10974.7 10088 -7.41216 
226 1 42.7365 6.73774 7.56584 5.93164 15408.9 8752.74 71533.4 255409 60042.5 14709.3 -7.4231 
227 1 44.156 6.73302 7.56105 5.94663 28773.1 -27920.6 -69687.5 246004 -6754.93 17412.2 -7.41282 
228 1 44.8894 7.95092 7.56257 5.93996 40745.5 -17463.6 84107.5 221559 54247.5 22708.2 -7.42406 
229 1 46.3091 7.94454 7.55782 5.95237 56895.6 -52006 -82411 205618 -7267.44 21588.6 -7.41239 
230 1 47.0006 6.70529 7.55602 5.93496 42272.9 -23250.9 67924.3 239195 60565.3 30694.3 -7.42253 
231 1 48.4203 6.69826 7.55194 5.94759 56276.5 -52286.7 -65922.5 215617 -2189.38 29601.5 -7.41312 
232 1 49.1553 7.91485 7.55389 5.94668 61248.8 -48805.6 78688.2 200426 56863.3 37917 -7.42315 
297 1 39.9341 9.22167 7.57642 5.97137 -1110.93 8916.62 -102244 204394 -16014 3642.77 -7.41151 
300 1 42.777 9.19602 7.56989 5.94978 30889.6 -2838.57 100532 200324 45622.9 14710 -7.42543 
301 1 44.1967 9.18964 7.56416 5.96131 49021 -40443.9 -99040.4 190824 -13451 13850.5 -7.41166 
304 1 47.0428 9.16189 7.55967 5.94896 66293.1 -48450.5 95099.5 189621 48837.7 29493.6 -7.42468 
305 1 48.4628 9.15356 7.55549 5.9585 84986.2 -76782.3 -93479.5 166819 -6422.97 23753.1 -7.41206 
25 1 50.4278 0.534394 7.5441 5.93405 -6344.99 6307.16 -5421.75 286069 -32573.8 40164.2 -7.41596 
26 1 53.2683 0.496323 7.53319 5.95436 -4625.05 8923.87 2991.63 248788 35207.5 41538.3 -7.41606 
27 1 54.6877 0.482476 7.52636 5.95649 -4546.58 3714.84 -5042.53 200552 -27514.7 42297.5 -7.41572 
28 1 57.5275 0.435305 7.51243 5.98653 -6021.17 6480.21 1780.36 157795 27044.9 35104.5 -7.41555 
29 1 58.9469 0.41427 7.50625 5.99181 -6323.86 2945.95 -5331.58 111359 -20473 25751.5 -7.41514 
85 1 50.4801 2.9926 7.5427 5.93717 19887.3 -16881.2 -26813 261497 -10635.7 39264.1 -7.41474 
86 1 51.1652 1.75015 7.54069 5.94011 4145.85 5051.56 14455.9 280386 47888 39587.5 -7.41716 
87 1 52.5847 1.7397 7.53525 5.94358 7397.52 -4679.16 -15207.9 238428 -18616.9 42861.1 -7.41529 
88 1 53.3223 2.95494 7.53359 5.95509 10417 -1994.14 24437.2 229714 52173.1 45564.5 -7.41776 
89 1 54.7418 2.94092 7.52738 5.95806 16277.8 -10038.9 -23804.2 182806 -5887.18 41461.6 -7.41477 
90 1 55.4255 1.69728 7.52302 5.97023 -818.866 5426.89 12454.7 198075 40046.1 42939.2 -7.41651 
91 1 56.8449 1.67968 7.51615 5.97391 1917.73 695.701 -13957.7 148792 -13421.7 35831.6 -7.41498 
92 1 57.5824 2.89422 7.51551 5.98958 -4609.05 6323.5 20800.3 146371 41588 39787.6 -7.41687 
93 1 59.0018 2.87304 7.50953 5.99437 1197.47 3327 -21294.9 100338 -2788.41 25967.7 -7.41435 
159 1 50.5297 5.44962 7.54557 5.9448 47937.6 -42536.6 -50164.2 217046 422.935 36799.1 -7.4138 
160 1 51.2172 4.20833 7.54253 5.9437 24459.7 -12259 37778.1 246906 60352.7 43434.3 -7.41927 
161 1 52.6368 4.19747 7.53754 5.94792 33246.6 -26568.6 -35887 206537 -724.205 41428.7 -7.41437 
162 1 53.3737 5.41286 7.53872 5.96078 29002.2 -23113.8 47143 195451 60313.5 49022.1 -7.41977 
163 1 54.7934 5.3985 7.53319 5.96232 40325.9 -30322.3 -43600 149961 7200.97 40254.8 -7.41408 
164 1 55.4791 4.15586 7.52768 5.97447 9722.89 -5788.65 33115.4 175479 53117.7 47690.8 -7.41818 
165 1 56.8986 4.13808 7.52131 5.97652 18272.5 -9062.66 -31066.5 127125 3956.98 36201.7 -7.41431 
166 1 57.6353 5.35297 7.52319 5.99525 2775.71 -5375.37 39698.1 124159 50287.1 46158.7 -7.4184 
167 1 59.0548 5.33162 7.517 5.997 14078 -4501.89 -36610.6 77859.3 9962.05 28357.1 -7.41387 
233 1 50.5752 7.90536 7.55 5.95385 77762.2 -70417.5 -76179.3 169535 571.747 31799.2 -7.41286 
234 1 51.2657 6.66556 7.54733 5.9505 47814.4 -39262.2 62528.2 203392 61338.7 45051.7 -7.42148 
235 1 52.6855 6.65405 7.5429 5.95466 61772.5 -53319.7 -59078.6 164408 5743.52 38086.2 -7.41357 
236 1 53.4214 7.86968 7.54577 5.96759 52668.5 -54043.2 70310 158671 58541.6 49578 -7.4217 
237 1 54.8413 7.85492 7.54095 5.96736 68609.1 -57639.2 -65201.3 114518 10724.2 36770.1 -7.41343 
238 1 55.5297 6.61373 7.53562 5.98011 26500.7 -29319.9 54109.7 145126 57616.7 51371.7 -7.41997 
239 1 56.9494 6.59575 7.52965 5.97965 40021.7 -28333.8 -49073.7 97422.5 12939.1 36187.6 -7.41383 
240 1 57.6851 7.81099 7.53271 6.00037 19000.2 -30361.4 57467.3 99280.9 51575.8 51516.9 -7.4199 
241 1 59.1048 7.78955 7.5261 5.99843 34485.5 -23582.5 -51375.8 52294.9 16205 30530.8 -7.41358 
308 1 51.3103 9.1215 7.55309 5.96023 74682.5 -72112.5 87118.2 163398 53590.9 43174.5 -7.42339 
309 1 52.7303 9.10929 7.54935 5.96186 93011 -83121.6 -83362.7 126008 4647 31720.1 -7.41273 
312 1 55.5767 9.0704 7.54469 5.98635 50625.2 -62140.6 74225.8 116780 54115.2 52309.8 -7.42158 
313 1 56.9966 9.05231 7.53903 5.98252 67791.2 -56272.7 -67135.9 69749.3 15215.8 33962.5 -7.41338 
30 1 61.7862 0.359709 7.49828 6.01353 -9316.15 4360.89 1259.48 90362.2 20288.1 11716 -7.41515 
31 1 63.2056 0.334119 7.49633 6.01898 -9046.63 798.149 -3212.93 60791 -15071.2 3656.61 -7.41477 
32 1 66.0448 0.277008 7.4944 6.02138 -11233.6 -2616.59 2129.35 74838.1 16292.9 272.431 -7.41501 
33 1 67.4642 0.250675 7.49265 6.02044 -10452.1 -7540.47 -183.31 53873.8 -11011.6 9245.89 -7.41475 
94 1 59.6845 1.62844 7.50494 6.0032 -10401.6 9319.77 10239.3 115321 29487.3 26418.7 -7.4159 
95 1 61.1038 1.60452 7.50076 6.01054 -7304.45 5049.07 -12500.7 76571.3 -10124.4 13065.8 -7.41443 
96 1 61.8409 2.81875 7.50172 6.01689 -16030.7 13041.8 18025.3 82630.6 28147.2 17306 -7.41635 
97 1 63.2602 2.79285 7.49899 6.02382 -9171.69 3430.19 -18321.8 52388.8 -4610.11 3298.54 -7.4138 
98 1 63.9429 1.54809 7.49679 6.02023 -12622.1 6092.19 9693.88 74647.2 20748.1 4219.21 -7.4157 
99 1 65.3622 1.52169 7.49553 6.02435 -8552.86 -5011.09 -9054.2 52041.3 -9564.82 149.684 -7.41417 
100 1 66.0994 2.73563 7.49619 6.02034 -6254.61 -638.979 16358.4 65152.8 18789.1 4952.91 -7.41628 
101 1 67.5188 2.70877 7.4939 6.02431 1118.49 -23072.6 -13507.5 43661.4 -5767.2 4155.63 -7.41364 
102 1 68.2018 1.46435 7.49172 6.01825 -3007.01 -11718.7 8973.4 72707.5 16680.6 9780 -7.41549 
168 1 59.7386 4.08759 7.51091 6.00832 -12266.6 10004 27747.5 100825 39030.5 33599.8 -7.4172 
169 1 61.158 4.0634 7.50601 6.01441 -3049.64 6262.13 -27113.5 61177 2997.4 15275.9 -7.41375 
170 1 61.8942 5.2781 7.50803 6.02205 -17074.4 12144.6 32598.4 64933 31992.9 27210.6 -7.41751 
171 1 63.3136 5.25164 7.50381 6.03058 -4465.1 1970.56 -30986.2 32410.4 4188.29 6178.73 -7.41321 
172 1 63.9969 4.00717 7.50052 6.02326 -14651.6 10938.4 24081.2 60031.6 23106 11868.7 -7.41687 
173 1 65.4162 3.98007 7.49812 6.03066 -4013.9 -8899.48 -22464.6 35798.7 -2707.48 -1217.78 -7.41327 
174 1 66.1528 5.19426 7.49904 6.02628 -1598.15 -1141.96 26903.3 42677.7 16356.4 12038.5 -7.41723 
175 1 67.5723 5.16625 7.4962 6.03316 11850.7 -32888.5 -23192.4 20016.7 -1479.8 -1219.76 -7.41297 
176 1 68.2564 3.92237 7.49394 6.02002 11159.7 -17850.9 19574.7 52711.7 17181.4 12962.6 -7.41658 
242 1 59.7906 6.54661 7.51948 6.01376 -5728.25 -2611.74 43399 79849.2 43063.6 42631.1 -7.41849 
243 1 61.2101 6.52215 7.51339 6.01673 8337.81 -1940.23 -39826.7 38294.2 11877.3 19687.4 -7.41342 
244 1 61.9453 7.73725 7.51528 6.02693 -9225.04 -2269.75 43537.6 44062.2 31571.6 38890.5 -7.41843 
245 1 63.3648 7.71024 7.50921 6.03059 7506.9 -7411.64 -39834.5 8559.34 10294 11398.8 -7.41303 
246 1 64.0493 6.46637 7.50521 6.0297 -12471.1 7064.22 34318.9 37963.4 21511.6 22954.6 -7.41772 
247 1 65.4687 6.43828 7.5013 6.03823 3373.64 -13525.3 -31616.6 11181.9 2648.18 -150.311 -7.41284 
248 1 66.2045 7.65278 7.50163 6.0313 2794.38 -7936.58 31932.9 17162.6 10368.6 21259.5 -7.41764 
249 1 67.6241 7.6234 7.49811 6.03969 20915.3 -38380.5 -27542.6 -6004.43 1272.57 -4236.97 -7.41284 
250 1 68.3092 6.38005 7.49643 6.02799 18854 -22700.3 25186.9 24752.1 10850.8 16118.1 -7.41715 
316 1 59.8398 9.00487 7.52878 6.01944 11474.2 -28692.2 56420.5 59307.3 41535.3 50954.6 -7.4196 
317 1 61.2594 8.98027 7.52132 6.01346 28539.4 -22026.2 -49893.1 15638.2 16703.1 24349.8 -7.41333 
320 1 64.0998 8.92524 7.5098 6.02805 -3112.26 -9021.26 39599.1 16244.5 17640.2 35523.1 -7.41815 
321 1 65.5193 8.89621 7.50412 6.03726 15801.1 -23580.3 -35690.2 -12681.8 6994.94 3694.39 -7.41289 
324 1 68.3603 8.83745 7.4978 6.02475 23433 -29344.1 24896.7 -541.736 1807.47 20408.4 -7.41706 
34 1 70.3034 0.192716 7.48373 6.02156 -10483.8 -12360.7 2781.87 71539.6 11299.4 21315.6 -7.41454 
35 1 71.7227 0.164823 7.47581 6.01314 -10339.9 -14295.1 505.133 39817.7 -6569.1 37789.3 -7.41423 
36 1 74.5616 0.101698 7.45527 6.02144 -9455.4 -13386.5 -1286.99 33320.2 3476.36 34383.9 -7.41345 
37 1 75.9809 0.0690775 7.44551 6.02729 -10063.4 -11501.6 -4685.26 6095.6 -2135.31 30330.1 -7.4131 
103 1 69.6212 1.43754 7.48722 6.01672 551.613 -26388 -5127.73 47310.8 -5750.41 20632.9 -7.41407 
104 1 70.3595 2.65063 7.48568 6.0176 14269.4 -28741.5 12204.1 58470 19337.7 23832.3 -7.41558 
105 1 71.7791 2.62231 7.47841 6.01601 18931.1 -48748.2 -6575.17 27387.2 3306.6 27893.6 -7.41356 
106 1 72.4614 1.37761 7.47192 6.02105 4720.02 -25592.5 5206.12 52073.1 15793.5 34549.1 -7.41442 
107 1 73.8809 1.34743 7.46174 6.01569 5631.91 -31460.2 -2983.94 18544.3 3876.21 37655.9 -7.41348 
108 1 74.6204 2.55949 7.46026 6.02685 12246.7 -33020.8 2239.77 21093.1 24304 35738 -7.41396 
109 1 76.0399 2.52676 7.4516 6.0211 12876.2 -36398.4 -3591.51 -4928.6 20127 23859.5 -7.4132 
110 1 76.7206 1.28096 7.44331 6.03493 -4479.48 -16229.3 -4880.85 8556.35 14163 23420.5 -7.41306 
111 1 78.14 1.24654 7.4386 6.03641 -4884.7 -15421.8 -6928.27 -3486.72 13629.8 7742.39 -7.41284 
177 1 69.6759 3.89464 7.48985 6.0238 20599 -49251.6 -14334.8 27567.7 -281.372 10603.7 -7.41331 
178 1 70.414 5.1077 7.48979 6.02302 30739.6 -39896.1 17909 31422.3 18089.7 22477 -7.41634 
179 1 71.8337 5.07835 7.48445 6.02724 40614 -71289.6 -10117.3 2827.53 9177.03 12953.7 -7.41338 
180 1 72.5181 3.83475 7.47774 6.02385 28049.4 -44547.3 10180.7 30466.3 25126 33039.8 -7.41518 
181 1 73.9377 3.80409 7.46964 6.01914 32357.6 -60890.8 -3977.32 -763.892 17442.2 24592.7 -7.41346 
182 1 74.6767 5.01628 7.47192 6.01702 25497.6 -47113.7 3787.16 -3518 30857.4 30726.1 -7.41444 
183 1 76.0963 4.9834 7.46594 6.02042 29419.4 -53223 1109.54 -26518.2 33200.7 12063.3 -7.41385 
184 1 76.7792 3.73875 7.45527 6.01969 1898.63 -25052.3 -2197.12 -9529.27 32186.5 22771.9 -7.41347 
185 1 78.1986 3.7044 7.45162 6.02729 2821.79 -24085.7 -1400.22 -20373.6 36129 3852.72 -7.41345 
251 1 69.7289 6.35092 7.49313 6.03495 33853.4 -60572 -18833.8 969.045 2062.48 -159.519 -7.41309 
252 1 70.4662 7.56426 7.49339 6.02307 36909 -45267.7 18249.9 3610.17 8213.53 19614.8 -7.41646 
253 1 71.886 7.53377 7.49027 6.03151 51920.1 -78441.6 -9444.01 -20208.1 8960.13 -1553.74 -7.41372 
254 1 72.572 6.29101 7.48555 6.01987 39626.6 -54997.9 10934.6 2644.68 20636 26419.9 -7.41554 
255 1 73.9918 6.2597 7.48056 6.02514 48898.1 -75867.1 -1961.62 -24018.5 21581.2 8283.47 -7.41395 
256 1 74.7296 7.47248 7.48374 6.01407 29215.8 -52808.2 666.566 -25249.4 21283.5 21584.9 -7.4145 
257 1 76.1493 7.43967 7.48069 6.01936 38414.4 -58092.2 7143.78 -43316.2 31929.2 -116.603 -7.41488 
258 1 76.8342 6.19607 7.47187 6.01363 3078.66 -30573.6 -3026.07 -31942.3 31672.3 18048 -7.41373 
259 1 78.2538 6.16207 7.46973 6.02375 8250.05 -27585.8 6290.94 -40905.3 42944.5 -1664.77 -7.41454 
325 1 69.7801 8.80698 7.49513 6.03245 42328.5 -63061.7 -18266.7 -21024.1 2498.81 -7670.78 -7.41335 
328 1 72.6234 8.74688 7.49142 6.01932 41370.1 -57283 6770.34 -17630.4 7331.79 18412 -7.41533 
329 1 74.0432 8.71515 7.4893 6.02065 55571.4 -76075.3 2677.8 -37201.1 17066.1 -5514.33 -7.41478 
332 1 76.8857 8.65316 7.48551 6.01821 2303.64 -31441.1 -9001.63 -43046.4 17128.3 11080.5 -7.41361 
333 1 78.3053 8.61995 7.48472 6.02036 13063.1 -26043.6 14020.7 -49375.1 34384.3 -5115.54 -7.41577 
260 1 0.220495 9.83445 7.4895 6.02836 -29133.3 -560.82 -14948.9 -47139.2 8448.7 964.144 -7.41321 
261 1 1.63995 9.80185 7.48991 6.02329 -15813.1 5299.71 16298.3 -43873.2 27922.7 -2175.47 -7.41619 
262 1 2.37334 11.0172 7.49307 6.03429 -52750.1 27307.1 -15999 -42122.8 -1244.71 -5217.85 -7.41334 
263 1 3.79268 10.9855 7.49345 6.02101 -37354.6 26454.8 13276.2 -34826.5 17783.7 6028.45 -7.41599 
264 1 4.4756 9.74031 7.49131 6.02511 -71796.4 49358.4 -4047.8 -43492.1 -494.67 -12357.7 -7.41427 
266 1 6.62728 10.9248 7.4944 6.02138 -69531.2 55769.8 2129.37 -41129.6 -7910.55 -14246.2 -7.41501 
267 1 8.04653 10.8936 7.49553 6.02434 -50953.3 37389.2 -9054.42 -27572.6 4912.07 8208.47 -7.41417 
334 1 0.269932 12.293 7.49598 6.03697 -23271.7 1006.24 -23833.8 -31375.4 -2314.72 -1427.5 -7.4129 
335 1 1.68946 12.2618 7.496 6.02666 -9565.28 4321.81 23429.4 -30302.2 18885.4 3655.68 -7.41697 
336 1 2.42302 13.4772 7.49734 6.03607 -44520.2 27264.7 -24770.6 -25542.3 -4174.5 -4787.36 -7.41305 
337 1 3.84243 13.4466 7.49683 6.0205 -31912 24089.3 19761.4 -24753.5 16818.8 12721.7 -7.41658 
338 1 4.5254 12.2014 7.49478 6.02681 -64327.5 46255.3 -12654.8 -37194.6 -7184.36 -8647.24 -7.41383 
339 1 5.94468 12.1702 7.49488 6.02033 -48393.8 37274.8 6061.55 -30632.3 10832.3 12336.4 -7.41539 
340 1 6.6771 13.3863 7.49563 6.02075 -69198.7 58547.6 -6453.19 -39755.6 -6456.35 -13489.4 -7.41448 