ITEM: TIMESTEP
0
ITEM: NUMBER OF ATOMS
8216
ITEM: BOX BOUNDS pp pp pp
0.0000000000000000e+00 7.8819589800000003e+01
0.0000000000000000e+00 1.3651953399999999e+02
0.0000000000000000e+00 1.8399999600000001e+01
ITEM: ATOMS id type x y z c_csym c_2[1] c_2[2] c_2[3] c_2[4] c_2[5] c_2[6] c_3 
1 1 0 0 7.5 6.04912 10710 10672.1 -64844.2 10.685 0.0546012 0.0244986 -7.41189 
2 1 2.14893 1.19637 7.5 6.04916 9353.33 11366.4 -60992.5 -1951.92 12989.1 -23535.8 -7.41209 
3 1 3.56875 1.17422 7.5 6.04919 11564.9 7940.94 -56831 4330.59 12013.9 -34606.9 -7.41231 
4 1 6.40841 1.12991 7.5 6.04919 9028.8 6897.66 -41383.7 -5666.52 10529.5 -52326.9 -7.4131 
5 1 7.82824 1.10775 7.5 6.04919 10723.2 3891.11 -36140.7 8446.04 4860.02 -46528.4 -7.41339 
38 1 0.0383737 2.45921 7.5 6.04912 7183.29 13166.5 -61254.8 -123.062 26194.6 225.588 -7.41208 
39 1 1.4582 2.43706 7.5 6.04915 12416.9 7930.34 -59931 2092.26 26633.6 -15050.9 -7.41214 
40 1 2.1873 3.65559 7.5 6.04916 5124.28 13733.3 -54217.9 -1430.71 34200 -21240.1 -7.41244 
41 1 3.60713 3.63343 7.5 6.0492 12510.4 5381.05 -50826.7 5350.23 34434.5 -30848 -7.41263 
42 1 4.29786 2.39275 7.5 6.0492 7351.68 10601.9 -50063.3 -3292.44 21816.7 -41049.5 -7.41265 
43 1 5.71768 2.37059 7.5 6.0492 11918.6 4728.69 -46087.2 7312.44 19341.8 -43172.1 -7.41288 
44 1 6.44678 3.58912 7.5 6.0492 5187.75 9376.59 -34379.6 -4312.09 24498.1 -48145.9 -7.41345 
45 1 7.86661 3.56697 7.5 6.0492 12154 2159.75 -35073.8 9789.34 20019.6 -40023.3 -7.41346 
46 1 8.55734 2.32628 7.5 6.0492 7034.46 5885.29 -25433.3 -6634.78 14986.6 -51022.4 -7.41391 
112 1 0.0767474 4.91843 7.5 6.04912 2430.6 15372.7 -52070.5 -238.714 43801.7 966.673 -7.41257 
113 1 1.49657 4.89627 7.5 6.04915 12544.6 5152.34 -49328.2 2514.17 46172.8 -13506.5 -7.41269 
114 1 2.22568 6.1148 7.5 6.04916 317.194 15844 -43645 -1082.93 44474.1 -16820.7 -7.413 
115 1 3.6455 6.09264 7.5 6.0492 12376.7 2939.63 -39260.3 5898.3 47198 -24695.5 -7.41322 
116 1 4.33623 4.85196 7.5 6.0492 2879.93 12998.5 -41237.9 -2375.8 35464.7 -35397.4 -7.41311 
117 1 5.75606 4.8298 7.5 6.0492 12506.6 2687.53 -39638.4 8318.51 34859.8 -35695.1 -7.41322 
118 1 6.48516 6.04833 7.5 6.0492 965.976 11898.1 -25152.8 -3373.92 30146.2 -39552.3 -7.41392 
119 1 7.90498 6.02618 7.5 6.0492 12779.1 908.953 -30006.8 10363.1 28294.6 -29926.4 -7.41373 
120 1 8.59571 4.78549 7.5 6.0492 3226.73 8469.53 -17214.9 -5401.82 21629.6 -44667.7 -7.41431 
186 1 0.115121 7.37764 7.5 6.04912 -2206.36 17224.8 -40703.9 -338.798 48220.8 1743.44 -7.41317 
187 1 1.53495 7.35548 7.5 6.04915 12017.4 2420.1 -34045.4 2701.5 53632 -11153.1 -7.41347 
188 1 2.26405 8.57401 7.5 6.04916 -3638.8 17616.5 -32919.9 -975.108 41832.5 -11683 -7.41357 
189 1 3.68388 8.55186 7.5 6.0492 12106.1 674.15 -24755 5884.96 48077.4 -17046.8 -7.41395 
190 1 4.3746 7.31117 7.5 6.0492 -1450.1 15181 -30926.9 -1881.58 37886.3 -27163.8 -7.41365 
191 1 5.79443 7.28902 7.5 6.0492 12532.7 928.457 -29324.3 8574.93 40401.8 -25559 -7.41374 
192 1 6.52353 8.50755 7.5 6.0492 -2490.07 14244.1 -16706 -2992.87 26262.3 -29130.4 -7.41436 
193 1 7.94336 8.48539 7.5 6.0492 13217.5 35.7885 -22518.3 10054.5 28220.7 -18073.7 -7.4141 
194 1 8.63408 7.24471 7.5 6.0492 -358.165 11105.2 -9100.5 -4699.14 20856.5 -35154.2 -7.41472 
265 1 5.8328 9.74823 7.5 6.0492 12761.8 -565.859 -17571.9 8075.62 36294.2 -14417.7 -7.41432 
268 1 8.67246 9.70392 7.5 6.0492 -2794.87 13523.8 -3482.57 -4507.73 13529.6 -25327 -7.41501 
6 1 10.6679 1.06344 7.5 6.04919 8431.4 3480.17 -17367.6 -8808.39 9102.97 -43550.3 -7.41432 
7 1 12.0877 1.04129 7.5 6.04919 9907.08 2721.53 -17169.6 10660.2 -4197.71 -26184.4 -7.41435 
8 1 14.9274 0.996978 7.5 6.04919 8039.82 4336.52 -3347.48 -10522.2 11158.2 -16002.1 -7.41501 
9 1 16.3472 0.974823 7.5 6.04919 9669.78 5421.82 -9229.49 10811.8 -11308.5 -2828.12 -7.41471 
10 1 19.1869 0.930513 7.5 6.04919 8298.09 6647.11 19.6522 -10231.6 16607.1 -2012.71 -7.41514 
47 1 9.97716 2.30413 7.5 6.0492 11253 2009.86 -26898.5 10462.9 6219.5 -36224.8 -7.41388 
48 1 10.7063 3.52266 7.5 6.0492 5094.22 5722.52 -9544.94 -7609.91 15028.1 -40868.6 -7.4147 
49 1 12.1261 3.5005 7.5 6.0492 11958.4 1969.82 -21749.1 11375.4 3096.06 -20751.5 -7.41414 
50 1 12.8168 2.25982 7.5 6.0492 6632.18 4296.39 -4479.43 -9476.38 11667.3 -29855.1 -7.41496 
51 1 14.2366 2.23766 7.5 6.0492 10921.4 3524.51 -15470.4 11160.3 -5598.68 -10915.5 -7.41443 
52 1 14.9657 3.45619 7.5 6.0492 4983.37 5733.45 6081.98 -10112.1 13270.7 -16913.6 -7.41547 
53 1 16.3856 3.43404 7.5 6.0492 12248.3 5396.87 -17631.5 10617.7 -7592.44 -357.793 -7.4143 
54 1 17.0763 2.19335 7.5 6.0492 6542.6 5998.65 4386.13 -10649.8 14965.4 -7164.47 -7.41538 
55 1 18.4961 2.1712 7.5 6.0492 11306.2 6926.04 -13289.1 10047.7 -11573.6 1919.16 -7.41448 
56 1 19.2252 3.38973 7.5 6.0492 5169.92 6949.81 11424.2 -10491 20110 -5754.94 -7.41573 
121 1 10.0155 4.76334 7.5 6.0492 12614.6 1113.2 -27078.3 11218.8 14906.1 -28115.4 -7.41388 
122 1 10.7446 5.98187 7.5 6.0492 1662.57 8300.19 -1502.71 -6736.23 15940.9 -34464.2 -7.4151 
123 1 12.1645 5.95971 7.5 6.0492 13461.6 1898.09 -23769.4 11393.9 6975.67 -13336.5 -7.41404 
124 1 12.8552 4.71903 7.5 6.0492 3432.53 6431.89 4037.6 -8696.69 13275.2 -27423.8 -7.41537 
125 1 14.275 4.69687 7.5 6.0492 13014.9 3535.45 -21225.6 11125.5 -1635.4 -6476.61 -7.41415 
126 1 15.0041 5.9154 7.5 6.0492 2069.17 7501.58 14647.6 -9709.89 12664 -16829.4 -7.4159 
127 1 16.4239 5.89325 7.5 6.0492 14343.6 5875.79 -23944.9 10055 -4851.65 1415.86 -7.41398 
128 1 17.1147 4.65256 7.5 6.0492 3558.34 7032.35 14536.5 -10539.5 16175.2 -9853.68 -7.41589 
129 1 18.5345 4.63041 7.5 6.0492 13811.8 7298.98 -21569 9455.27 -7733.17 2235.86 -7.41406 
130 1 19.2636 5.84894 7.5 6.0492 2288.75 7449.19 22280.8 -10481.2 21404.4 -10889.8 -7.41629 
195 1 10.0539 7.22255 7.5 6.0492 13520.3 750.878 -24477.3 11128.7 17582.7 -17802.9 -7.41401 
196 1 10.783 8.44108 7.5 6.0492 -1121.4 10855.9 4664.38 -6317.04 11489.3 -26823.9 -7.4154 
197 1 12.2028 8.41893 7.5 6.0492 14644.3 2266.62 -23643 10699.9 6801.31 -5486.96 -7.41404 
198 1 12.8936 7.17824 7.5 6.0492 545.031 8757.46 11177.7 -8182.53 10955.9 -23483 -7.41573 
199 1 14.3134 7.15609 7.5 6.0492 14648.1 4053.36 -24729.6 10544.1 -61.8696 -1939.28 -7.41397 
200 1 15.0425 8.37462 7.5 6.0492 -290.677 9269.69 20959.6 -9374.42 9414.9 -17133.4 -7.41622 
201 1 16.4623 8.35246 7.5 6.0492 15891.2 6592.82 -27873.2 9245.48 -3350.78 1980.6 -7.41376 
202 1 17.153 7.11178 7.5 6.0492 950.034 8193.37 23181.7 -10307.3 15052.7 -13283.3 -7.41634 
203 1 18.5729 7.08962 7.5 6.0492 15693.1 7865.64 -27390.1 8770.14 -4582.56 850.583 -7.41376 
204 1 19.302 8.30815 7.5 6.0492 -71.1944 7894.51 31491.3 -10183.5 20439.3 -17545.4 -7.41679 
269 1 10.0923 9.68177 7.5 6.0492 14363.6 720.248 -20269.6 10250.8 14764.3 -7234.77 -7.4142 
272 1 12.9319 9.63745 7.5 6.0492 -1501.1 10914.3 15463.9 -7896.57 5568.85 -20109 -7.41594 
273 1 14.3518 9.6153 7.5 6.0492 15878.8 4791.44 -26130.9 9565.31 -407.808 1624.96 -7.41387 
276 1 17.1914 9.57099 7.5 6.0492 -1010.64 9188.04 29341 -9905.61 12165.5 -18117 -7.41667 
277 1 18.6112 9.54883 7.5 6.0492 16843.3 8383.89 -30536.6 8177.87 -1989.86 -2093.39 -7.41359 
11 1 20.6067 0.908358 7.5 6.04919 10288.1 7573.43 -7885.55 9420.49 -15033.4 -1355.78 -7.41473 
12 1 23.4463 0.864048 7.5 6.04919 9294.3 5897.58 2673.05 -8258.44 22934.4 -12404 -7.41526 
13 1 24.8662 0.841893 7.5 6.04919 11513.7 5465.51 -2877 7327.41 -16639.6 -18597.6 -7.41496 
14 1 27.7058 0.797582 7.5 6.04919 10652.4 1451.99 12543.6 -5597.3 27475.6 -31133 -7.41578 
15 1 29.1256 0.775427 7.5 6.04919 12749.6 174.492 10163.2 5176.28 -18114.1 -33306 -7.41565 
57 1 20.6451 3.36757 7.5 6.0492 13125.8 7862.79 -17532.5 8836.99 -9790.86 -1072.14 -7.41423 
58 1 21.3358 2.12689 7.5 6.0492 7084.62 6722.13 6830.41 -9638.16 22782.4 -6586.7 -7.41548 
59 1 22.7556 2.10473 7.5 6.0492 12359.3 7242.93 -11453.6 8161.69 -12420.9 -8559.36 -7.41452 
60 1 23.4847 3.32326 7.5 6.0492 5893.62 5483.64 15719.4 -8640.56 30155.2 -16415.7 -7.41595 
61 1 24.9045 3.30111 7.5 6.0492 14242.5 5776.5 -12233.8 7077.78 -7703.43 -18548.3 -7.41448 
62 1 25.5953 2.06042 7.5 6.0492 8218.59 3718.29 13143.8 -7110.57 30309.7 -23659.5 -7.41581 
63 1 27.0151 2.03827 7.5 6.0492 13564.2 3145.56 -2177.09 6234.84 -11963.6 -27190.5 -7.415 
64 1 27.7442 3.2568 7.5 6.0492 7051.93 963.153 26540 -5696.28 37273.1 -33286.7 -7.41652 
65 1 29.164 3.23464 7.5 6.0492 15026.5 468.953 1090.01 5522.04 -6740.37 -32302.1 -7.41519 
131 1 20.6834 5.82678 7.5 6.0492 15316.2 8272.92 -24719.7 8264.06 -4894.16 -2990.18 -7.41387 
132 1 21.3742 4.5861 7.5 6.0492 3910.59 6669.54 19277.6 -9867.94 26918.8 -11776.2 -7.41614 
133 1 22.794 4.56394 7.5 6.0492 14828.2 7571.96 -19731.6 7726.74 -5544.42 -9796.41 -7.4141 
134 1 23.5231 5.78247 7.5 6.0492 2697.15 5113.23 29417.5 -8696.27 34291.2 -22278.9 -7.41668 
135 1 24.9429 5.76032 7.5 6.0492 16025.1 5958.71 -18747.6 7120 72.4095 -20252.8 -7.41414 
136 1 25.6336 4.51963 7.5 6.0492 4705.39 3221.76 27542.8 -7251.1 37399.8 -27669.3 -7.41658 
137 1 27.0535 4.49748 7.5 6.0492 15569.4 3395.51 -9873.45 6452.7 -2214.64 -27353.2 -7.41461 
138 1 27.7826 5.71601 7.5 6.0492 3491.79 538.318 42409.7 -5603.28 42693 -36139.2 -7.41738 
139 1 29.2024 5.69385 7.5 6.0492 16060.5 714.494 -5406.73 6264.25 2152.68 -31680.9 -7.41486 
205 1 20.7218 8.286 7.5 6.0492 16689.3 8594.39 -29125 7892.31 -787.711 -6633.07 -7.41363 
206 1 21.4125 7.04531 7.5 6.0492 1132.56 6624.35 31155.4 -9748.83 28293.2 -18724.2 -7.41677 
207 1 22.8324 7.02316 7.5 6.0492 16410 7766.19 -25196 7566.34 285.427 -12874.7 -7.41382 
208 1 23.5615 8.24169 7.5 6.0492 35.5176 4683.85 42660.3 -8352.53 34854.2 -29417.8 -7.41741 
209 1 24.9813 8.21953 7.5 6.0492 16780.1 5873.43 -22613.7 7596.67 5781 -22772.9 -7.41395 
210 1 25.672 6.97885 7.5 6.0492 1545.51 2719.82 42680.4 -7067.71 40238.5 -32774.7 -7.4174 
211 1 27.0918 6.95669 7.5 6.0492 16440.4 3446.15 -14997.3 7110.96 5012.63 -28149.5 -7.41435 
212 1 27.8209 8.17522 7.5 6.0492 471.554 147.982 58980.2 -5220.32 42818.4 -39102.8 -7.41828 
213 1 29.2408 8.15307 7.5 6.0492 15992.7 828.486 -10265.8 7442.5 7244.26 -30561.5 -7.41462 
280 1 21.4509 9.50452 7.5 6.0492 -1032.19 6441.11 41518.4 -9230.96 27074.1 -26994.1 -7.41734 
281 1 22.8707 9.48237 7.5 6.0492 17048.5 7683.13 -27918.2 7800.24 4770.34 -16869.3 -7.41368 
284 1 25.7104 9.43806 7.5 6.0492 -933.687 2175.74 57419.1 -6507.78 38730.5 -38217.2 -7.41822 
285 1 27.1302 9.4159 7.5 6.0492 16347.7 3235.93 -18255.4 8201.04 9163.28 -28526.1 -7.41419 
16 1 31.9653 0.731117 7.5 6.04919 11823.3 -3713.47 28084.4 -3110.21 29338.9 -36923.6 -7.4166 
17 1 33.3851 0.708962 7.5 6.04919 13543.6 -4775.12 26401.1 3148.66 -20207.5 -29662.2 -7.41653 
18 1 36.2248 0.664652 7.5 6.04919 12489.1 -6930.01 41046.7 -1043.3 29271 -22422.4 -7.4173 
19 1 37.6446 0.642497 7.5 6.04919 13861.3 -7294.85 37081.1 1156.93 -22273.5 -8148.76 -7.4171 
66 1 29.8547 1.99396 7.5 6.0492 9535.26 -1453.53 26823.3 -4278.95 34287.2 -37000.4 -7.41653 
67 1 31.2746 1.9718 7.5 6.0492 14375.9 -2394.09 13488.8 4380.6 -13036.3 -33387.4 -7.41584 
68 1 32.0037 3.19033 7.5 6.0492 8243.99 -3892.03 42463.3 -2942.9 39413.1 -36844.9 -7.41736 
69 1 33.4235 3.16817 7.5 6.0492 15245.3 -4392.42 16935.1 3727.16 -8706.99 -28025.6 -7.41605 
70 1 34.1142 1.92749 7.5 6.0492 10561 -5699.13 42292 -1931.08 34857 -31652.3 -7.41735 
71 1 35.5341 1.90534 7.5 6.0492 14688.5 -6217.1 27761.5 2368.68 -15469.9 -19777.8 -7.41662 
72 1 36.2632 3.12386 7.5 6.0492 9056.76 -6815.73 55479.7 -910.619 38685.1 -21117.3 -7.41804 
73 1 37.683 3.10171 7.5 6.0492 15208.1 -6810.71 27015.3 1393.7 -11495.1 -6977.95 -7.41661 
74 1 38.3737 1.86103 7.5 6.0492 11043.7 -7524.52 50775 -111.477 34006.1 -9040.43 -7.4178 
140 1 29.8931 4.45317 7.5 6.0492 5804.47 -1730.8 42340 -4178.74 42257.2 -38010.3 -7.41736 
141 1 31.3129 4.43101 7.5 6.0492 15676.8 -2004.24 5536.17 5088.68 -2604.55 -31961.5 -7.41545 
142 1 32.042 5.64954 7.5 6.0492 4477.84 -3840.86 59440.1 -2746.68 44207.6 -36232.3 -7.41826 
143 1 33.4619 5.62739 7.5 6.0492 15498.8 -3747.53 9244.14 4610.41 -692.399 -26057.3 -7.41567 
144 1 34.1526 4.3867 7.5 6.0492 6808.51 -5532.42 58208.6 -1754.14 42149.2 -30412.3 -7.41818 
145 1 35.5724 4.36455 7.5 6.0492 15387.1 -5557.26 18877.2 2928.58 -5892.32 -18181.8 -7.41619 
146 1 36.3015 5.58308 7.5 6.0492 5242.39 -6301.28 72759.6 -806.432 42592.4 -19143.5 -7.41894 
147 1 37.7214 5.56092 7.5 6.0492 15017.4 -5815.86 18108.6 1692.89 -4530.39 -6007.13 -7.41617 
148 1 38.4121 4.32024 7.5 6.0492 7342.21 -7103.66 66663.9 -102.954 40977.1 -7361.39 -7.41862 
214 1 29.9315 6.91238 7.5 6.0492 2314.39 -1892.87 59621.7 -3921.12 44554.2 -38821.2 -7.41829 
215 1 31.3513 6.89023 7.5 6.0492 15695 -1563.89 -824.608 6196.83 3825.41 -30058.6 -7.41513 
216 1 32.0804 8.10876 7.5 6.0492 1212.59 -3605.76 77868.5 -2429.65 42520.5 -34879 -7.41926 
217 1 33.5002 8.0866 7.5 6.0492 14693.6 -2886.28 1735.41 5775.51 2272.96 -23187.4 -7.4153 
218 1 34.191 6.84592 7.5 6.0492 3152.4 -5085.07 76416.1 -1556.55 43028.8 -28420.9 -7.41915 
219 1 35.6108 6.82376 7.5 6.0492 14752.7 -4508.47 10499.3 3690.7 -1152.18 -16207.9 -7.41577 
220 1 36.3399 8.04229 7.5 6.0492 1866.97 -5482.7 91830.4 -680.885 39605.1 -16704.1 -7.41996 
221 1 37.7597 8.02013 7.5 6.0492 13826.1 -4342.65 8426.82 2046.72 -3096.74 -5012.59 -7.41569 
222 1 38.4505 6.77945 7.5 6.0492 3638.17 -6306.6 85013.5 -106.908 41510.7 -5530.23 -7.41959 
288 1 29.9699 9.37159 7.5 6.0492 -420.982 -1958.73 77363.2 -3443.78 41030.7 -38967.6 -7.41927 
289 1 31.3897 9.34944 7.5 6.0492 14900.3 -1100.47 -6943.42 7602.5 5693.86 -26902.6 -7.41483 
292 1 34.2293 9.30513 7.5 6.0492 275.203 -4417.85 95560 -1280.37 37372.1 -25680.8 -7.42019 
293 1 35.6492 9.28297 7.5 6.0492 13489.7 -3097.23 852.612 4568.61 -1729.93 -13436 -7.41529 
296 1 38.4888 9.23866 7.5 6.0492 701.139 -5232.72 104486 -99.2984 35404.5 -3900.62 -7.42063 
20 1 40.4843 0.598187 7.5 6.04919 12631.1 -7516.73 43800.9 790.196 28253.8 4249.88 -7.41744 
21 1 41.9041 0.576032 7.5 6.04919 13837 -7138.44 36302.3 -854.545 -23426.9 18848.3 -7.41706 
22 1 44.7437 0.531722 7.5 6.04919 12281.4 -5476.13 34591 2653.59 26650.2 27870.2 -7.41695 
23 1 46.1636 0.509567 7.5 6.04919 13425.1 -4299.69 24641.3 -2922.62 -23329.3 35802.7 -7.41643 
24 1 49.0032 0.465256 7.5 6.04919 11403.9 -908.575 18542.2 4754.02 24433.8 34979.4 -7.41609 
75 1 39.7935 1.83887 7.5 6.0492 14762.4 -7375.51 32900.6 140.989 -17371.3 6064.99 -7.4169 
76 1 40.5226 3.0574 7.5 6.0492 9266 -7338.6 58061.3 657.473 37841.5 5707.88 -7.41817 
77 1 41.9425 3.03524 7.5 6.0492 15287.9 -6673.78 26114.7 -1174.14 -12415.8 18923.3 -7.41656 
78 1 42.6332 1.79456 7.5 6.0492 10931.1 -6833.04 47178.6 1561.78 32999.4 18151.7 -7.41761 
79 1 44.053 1.77241 7.5 6.0492 14714.5 -5900.33 26197.1 -2081.05 -17553.2 29388 -7.41654 
80 1 44.7821 2.99093 7.5 6.0492 8824.12 -5469.86 48522.2 2345.26 37274.5 29318.3 -7.41767 
81 1 46.2019 2.96878 7.5 6.0492 15374.2 -3913.83 14758.7 -3448.46 -11163.7 35125.4 -7.41594 
82 1 46.8927 1.7281 7.5 6.0492 10227.6 -3561.04 33386.9 3510.28 31447.4 34862.6 -7.41688 
83 1 48.3125 1.70594 7.5 6.0492 14301.4 -1777.56 11451.6 -4173.59 -16433.8 36580.7 -7.41574 
84 1 49.0416 2.92447 7.5 6.0492 7827.32 -1189.16 32088.1 4600.21 35159.9 37059.4 -7.41681 
149 1 39.8319 4.29808 7.5 6.0492 15300.1 -6610.44 23490.7 44.5953 -8148.04 6353.32 -7.41644 
150 1 40.561 5.51661 7.5 6.0492 5452.82 -6720.7 75204.9 538.991 42242.3 7061.74 -7.41907 
151 1 41.9808 5.49446 7.5 6.0492 15223.6 -5741.71 17241.2 -1710.12 -4910 17884.5 -7.41612 
152 1 42.6716 4.25377 7.5 6.0492 7221.92 -6499.46 62798.4 1343.54 40965.9 19397.9 -7.41842 
153 1 44.0914 4.23162 7.5 6.0492 15632 -5296.42 17170.5 -2737.41 -7207.61 28399.1 -7.41609 
154 1 44.8205 5.45015 7.5 6.0492 5016.19 -5152.67 65248.8 2075.78 43354.3 30189.1 -7.41856 
155 1 46.2403 5.42799 7.5 6.0492 15943.2 -3357.32 6976.29 -4371.21 -1762.61 33382.3 -7.41555 
156 1 46.931 4.18731 7.5 6.0492 6482.1 -3578.4 48555.7 3267.61 40589 36428.8 -7.41768 
157 1 48.3509 4.16515 7.5 6.0492 15922.1 -1377.77 3040.85 -4780.22 -4740.7 35617.2 -7.41531 
158 1 49.08 5.38368 7.5 6.0492 4110.17 -1358.83 48009.4 4399.32 42176.4 39283.6 -7.41767 
223 1 39.8703 6.7573 7.5 6.0492 14500.5 -5337.62 14247 -123.821 -3845.07 5956.08 -7.41599 
224 1 40.5994 7.97582 7.5 6.0492 2045.98 -5778.37 94220 412.435 39930.3 7823.58 -7.42008 
225 1 42.0192 7.95367 7.5 6.0492 14147.1 -4387.02 7819.43 -2428.05 -2772.51 15628.1 -7.41565 
226 1 42.7099 6.71299 7.5 6.0492 3519.11 -5833.25 80856.6 1118.62 42979.1 19895 -7.41938 
227 1 44.1298 6.69083 7.5 6.0492 15234.5 -4394.19 8996.69 -3713.26 -1261.68 25999 -7.41569 
228 1 44.8589 7.90936 7.5 6.0492 1638.27 -4606.4 83706.8 1748.56 43348.1 29785.7 -7.41955 
229 1 46.2787 7.8872 7.5 6.0492 15440.6 -2702.52 -108.227 -5667.77 2957.07 30145.4 -7.4152 
230 1 46.9694 6.64652 7.5 6.0492 2850.48 -3423.07 65880.4 2954.56 44638 37244 -7.41861 
231 1 48.3892 6.62437 7.5 6.0492 16313.9 -1026.55 -3358.5 -5833.69 3530.32 33874.5 -7.41499 
232 1 49.1183 7.84289 7.5 6.0492 876.129 -1456.19 65154.5 4011.71 44185.5 40771.8 -7.4186 
297 1 39.9087 9.21651 7.5 6.0492 13132.7 -3588.69 3284.21 -346.207 -5004.78 4984.15 -7.41543 
300 1 42.7483 9.1722 7.5 6.0492 568.848 -4924.89 100024 861.974 38635.6 19058.3 -7.42041 
301 1 44.1681 9.15004 7.5 6.0492 14155.4 -3227.28 10.8496 -4906.25 -497.03 21973.8 -7.41523 
304 1 47.0078 9.10573 7.5 6.0492 -42.3169 -3139.11 84039 2510.84 43040.8 36492.3 -7.41961 
305 1 48.4276 9.08358 7.5 6.0492 15841.1 -771.924 -8902.64 -7258.13 7388.91 30775.6 -7.41471 
25 1 50.4231 0.443101 7.5 6.04919 12481.3 761.511 8898.07 -5181.84 -21946.1 32805 -7.41559 
26 1 53.2627 0.398791 7.5 6.04919 10115.9 4528.44 4440.31 7124.48 21601 22667.8 -7.41534 
27 1 54.6825 0.376636 7.5 6.04919 11152.6 5580.52 -2233.8 -7635.97 -19162.4 14454.3 -7.415 
28 1 57.5222 0.332326 7.5 6.04919 8874.94 7445.64 -1958.13 9385.88 18132.7 4402.38 -7.41503 
29 1 58.942 0.310171 7.5 6.04919 9977.58 6821.16 -5418.86 -9786.16 -15035.9 832.206 -7.41486 
85 1 50.4614 2.90231 7.5 6.0492 15005.7 1151.24 -888.297 -5340.52 -9616.5 32064 -7.41508 
86 1 51.1522 1.66163 7.5 6.0492 9043.3 1691.59 17080.1 5926.89 28318.7 31959.2 -7.41601 
87 1 52.572 1.63948 7.5 6.0492 13315.9 3640.62 -2988.35 -6295.72 -14981 24033.4 -7.41496 
88 1 53.3011 2.858 7.5 6.0492 6582.78 4105.15 17471.9 7337.39 29942.7 25874.9 -7.41604 
89 1 54.7209 2.83585 7.5 6.0492 14021.3 5997.46 -12348.2 -7205.35 -9279.98 13697.9 -7.41448 
90 1 55.4116 1.59516 7.5 6.0492 7745.78 6318.41 6377.55 8499.37 23389.6 14409.7 -7.41545 
91 1 56.8315 1.57301 7.5 6.0492 12029.7 6935.32 -10035.2 -8495.94 -13335 4747.91 -7.41461 
92 1 57.5606 2.79154 7.5 6.0492 5576.61 7328.72 10095.4 9734.15 22556.1 8239.61 -7.41565 
93 1 58.9804 2.76938 7.5 6.0492 12853.2 7032.45 -15510.5 -9180.02 -9219.12 -795.221 -7.41435 
159 1 50.4998 5.36153 7.5 6.0492 16400.7 1436.87 -7890.2 -5899 923.261 31621.4 -7.41473 
160 1 51.1905 4.12084 7.5 6.0492 5377.58 1332.27 31513.2 5922.97 36757.3 35118.8 -7.41678 
161 1 52.6104 4.09869 7.5 6.0492 15593.4 4008.23 -11461.5 -6295.26 -3928.83 23982.2 -7.41452 
162 1 53.3395 5.31722 7.5 6.0492 3126.38 3699.9 31922.6 7350.23 35475 30674.3 -7.41682 
163 1 54.7593 5.29506 7.5 6.0492 16078.3 6321.85 -19697.3 -7003.66 -207.413 14722.8 -7.4141 
164 1 55.45 4.05438 7.5 6.0492 4341.35 6025 19547.1 8737.79 28684.2 19196.9 -7.41615 
165 1 56.8698 4.03222 7.5 6.0492 14643.7 7340.18 -19066 -7919.22 -5536.37 4719.67 -7.41414 
166 1 57.5989 5.25075 7.5 6.0492 2470.62 7356.72 22324.5 9809.11 24802.2 14267.8 -7.4163 
167 1 59.0188 5.2286 7.5 6.0492 15177.8 7475.85 -23385 -8521.49 -3623.3 -832.126 -7.41395 
233 1 50.5382 7.82074 7.5 6.0492 16722 1509.78 -12805.8 -6919.16 7971.87 30811.2 -7.41448 
234 1 51.2289 6.58006 7.5 6.0492 1964.15 986.542 47350.5 5700.77 41259.8 38711.1 -7.41765 
235 1 52.6487 6.5579 7.5 6.0492 16833.6 4155.47 -17174 -6697.98 4978.1 24763.4 -7.41423 
236 1 53.3778 7.77643 7.5 6.0492 185.467 3253.67 46607.1 7028.06 37402.6 36146.5 -7.41762 
237 1 54.7977 7.75427 7.5 6.0492 17190 6399.99 -24265.7 -7182.57 6866.84 16943.4 -7.41387 
238 1 55.4884 6.51359 7.5 6.0492 1282.34 5725.97 32913 8645.42 31185 25721.7 -7.41687 
239 1 56.9082 6.49144 7.5 6.0492 16483.2 7692.87 -25391.7 -7523.9 1296.75 6523.91 -7.41382 
240 1 57.6373 7.70996 7.5 6.0492 -131.702 7361.55 33544.8 9537.42 24548.4 21905.1 -7.41691 
241 1 59.0571 7.68781 7.5 6.0492 16780.3 7950.86 -28590.2 -7953.52 1076.99 753.901 -7.41368 
308 1 51.2673 9.03927 7.5 6.0492 -747.051 630.676 63336.7 5190.75 41372.6 41716.3 -7.41853 
309 1 52.6871 9.01711 7.5 6.0492 17119.4 3990.93 -20612.3 -7545.65 10820.3 25602.7 -7.41406 
312 1 55.5268 8.9728 7.5 6.0492 -1137.14 5331.23 45351.3 8166.04 30784.2 33049.6 -7.41756 
313 1 56.9466 8.95065 7.5 6.0492 17455.4 7828.62 -28910.6 -7451.98 6611.6 9710.74 -7.41363 
30 1 61.7817 0.265861 7.5 6.04919 8256.44 6133.74 -3872.06 10733.6 13928.2 2073.32 -7.41497 
31 1 63.2015 0.243706 7.5 6.04919 9486.24 4336.45 -7007.87 -10736.6 -10201.2 10829.4 -7.41483 
32 1 66.0412 0.199396 7.5 6.04919 8515.72 3553.82 -11530.3 10395.2 9154.08 23165.5 -7.41462 
33 1 67.461 0.17724 7.5 6.04919 9762.39 2456.64 -17571.8 -9815.93 -5661.02 38640.6 -7.41432 
94 1 59.6711 1.5287 7.5 6.0492 6881.31 7311.9 2702.43 10350.1 17821.1 1748.8 -7.41528 
95 1 61.0909 1.50654 7.5 6.0492 11066.4 5755.63 -10694.5 -10288.6 -10539.1 1190.64 -7.41462 
96 1 61.82 2.72507 7.5 6.0492 5212.34 6819.34 6464.31 10603 16444.7 5173.15 -7.41549 
97 1 63.2399 2.70292 7.5 6.0492 12115.6 3955.61 -15528 -10706 -6422.33 7369.73 -7.41441 
98 1 63.9306 1.46223 7.5 6.0492 6817.17 5172.63 -1772.03 10526.3 13585.6 11615.4 -7.41509 
99 1 65.3504 1.44008 7.5 6.0492 10848.6 2483.65 -14434.4 -10794.9 -5441.65 22299.7 -7.41448 
100 1 66.0795 2.65861 7.5 6.0492 5536.57 5183.31 -3482.61 9321.79 15169 24380.6 -7.41501 
101 1 67.4994 2.63645 7.5 6.0492 12037.6 1215.92 -22518.3 -10735.7 1541.97 33476.8 -7.4141 
102 1 68.1901 1.39577 7.5 6.0492 7474.03 4290.16 -16705.9 8742.47 12096.4 37309.1 -7.41436 
168 1 59.7095 3.98791 7.5 6.0492 3777.96 7717.77 13997.7 10431.4 19796.9 6294.49 -7.41586 
169 1 61.1293 3.96576 7.5 6.0492 13620.2 5964.07 -19334.1 -9775.92 -6267.37 -1037.95 -7.41419 
170 1 61.8584 5.18429 7.5 6.0492 2291.02 7909.43 16252.8 10315.8 16608.9 8992.37 -7.41598 
171 1 63.2782 5.16213 7.5 6.0492 14245.7 4191 -22022.7 -10320.2 -3198.54 3002.17 -7.41409 
172 1 63.969 3.92145 7.5 6.0492 3795.55 6641.88 7437.19 9911.06 15815.8 13441.9 -7.41554 
173 1 65.3888 3.89929 7.5 6.0492 13012.3 2071.48 -20269.6 -11031.1 -1116.65 16403.7 -7.4142 
174 1 66.1179 5.11782 7.5 6.0492 2390.73 7343.62 4664.36 8344.85 17485.6 23362 -7.4154 
175 1 67.5377 5.09567 7.5 6.0492 13581.2 689.039 -24477.3 -11091.6 6626.41 24128.5 -7.41401 
176 1 68.2285 3.85498 7.5 6.0492 4172.55 6574.44 -9100.54 7315.01 20016.2 35639.4 -7.41472 
242 1 59.7479 6.44712 7.5 6.0492 1012.34 8272.78 24345 10255.9 19407.7 12465.4 -7.4164 
243 1 61.1677 6.42497 7.5 6.0492 15607.5 6508.42 -25666.3 -9083.72 -2618.07 -2433.93 -7.41386 
244 1 61.8968 7.6435 7.5 6.0492 -178.429 9102.36 24183.9 9916.67 14058.5 13738.5 -7.41639 
245 1 63.3166 7.62134 7.5 6.0492 15847.3 4822.27 -26130.9 -9581.53 -1203.37 -1165.63 -7.41387 
246 1 64.0073 6.38066 7.5 6.0492 975.014 8438.61 15463.8 9325.81 14630.5 14877.3 -7.41594 
247 1 65.4272 6.3585 7.5 6.0492 14630.2 2281.58 -23643 -10710.2 1351.19 8633.64 -7.41404 
248 1 66.1563 7.57703 7.5 6.0492 -386.084 9679.34 11177.7 7648.76 14858.9 21229.7 -7.41573 
249 1 67.5761 7.55488 7.5 6.0492 14654.8 704.682 -23769.4 -10704.5 8061.93 12709.4 -7.41404 
250 1 68.2668 6.31419 7.5 6.0492 813.874 9158.36 -1502.74 6242.13 21876.5 31037.4 -7.4151 
316 1 59.7862 8.90634 7.5 6.0492 -1159.77 8748.3 32668.6 9808.56 16857.1 19969.2 -7.41685 
317 1 61.2061 8.88418 7.5 6.0492 16946.1 7150.23 -29405.4 -8347 216.217 -2428.77 -7.41366 
320 1 64.0457 8.83987 7.5 6.0492 -1232.58 10220.6 20959.6 8826.83 10130.5 16720.2 -7.41622 
321 1 65.4655 8.81772 7.5 6.0492 15837.3 2864.49 -24729.6 -9857.83 1710.39 916.093 -7.41397 
324 1 68.3052 8.77341 7.5 6.0492 -1846.26 11711.1 4037.56 5648.94 17112.1 25208.6 -7.41537 
34 1 70.3006 0.13293 7.5 6.04919 9398.14 4360.33 -30926.8 8162.29 4581.26 46392.4 -7.41365 
35 1 71.7205 0.110775 7.5 6.04919 10409 4931.45 -39260.2 -7044.72 -2212.2 53222.5 -7.41322 
36 1 74.5601 0.0664651 7.5 6.04919 10350 8544.06 -54217.8 4461.38 1294.42 40238.1 -7.41244 
37 1 75.9799 0.04431 7.5 6.04916 10869 9530.06 -59932.9 -3015.6 -282.636 30591.5 -7.41215 
103 1 69.6099 1.37361 7.5 6.0492 11258.4 2202.85 -29324.3 -9309.95 1933.82 47768.5 -7.41374 
104 1 70.339 2.59214 7.5 6.0492 6242.93 6621.3 -25152.9 6420.74 19180.2 45883.6 -7.41392 
105 1 71.7588 2.56999 7.5 6.0492 12346.5 2846.85 -39638.5 -8409.22 13482.9 48037 -7.41322 
106 1 72.4496 1.3293 7.5 6.0492 8413.31 7466.68 -41237.9 5571.1 12922.6 48412 -7.41311 
107 1 73.8694 1.30715 7.5 6.0492 11798.2 6093.66 -50826.9 -5762.84 9497.82 45245.2 -7.41263 
108 1 74.5985 2.52568 7.5 6.0492 6932.56 11010.5 -50063.4 3053.99 24641.5 39418.5 -7.41265 
109 1 76.0183 2.50352 7.5 6.04916 12587.2 6894.49 -56831 -3747.81 23963.5 27707.7 -7.41231 
110 1 76.709 1.26284 7.5 6.04915 9103.84 11563.1 -60992.7 1847.22 13888 23016.7 -7.41209 
111 1 78.1289 1.24068 7.5 6.04912 11818.3 9203.02 -63582.4 -820.908 13733 7702.41 -7.41196 
177 1 69.6483 3.83283 7.5 6.0492 12853.5 835.08 -30006.9 -10322.2 11769.7 39467.1 -7.41373 
178 1 70.3774 5.05136 7.5 6.0492 2476.81 9209.79 -17214.9 4972.77 27868.5 41065.6 -7.41431 
179 1 71.7972 5.0292 7.5 6.0492 13135 1178.98 -35073.8 -9222.91 24651.4 37349.1 -7.41346 
180 1 72.4879 3.78852 7.5 6.0492 4601.41 9971.99 -34379.6 3969.47 29446.5 45288.9 -7.41345 
181 1 73.9078 3.76636 7.5 6.0492 12862.2 3785.18 -46087.2 -6768.21 27717.3 38336.5 -7.41288 
182 1 74.6369 4.98489 7.5 6.0492 2484.26 13406.5 -41383.8 1910.57 40051.7 35282.2 -7.4131 
183 1 76.0567 4.96274 7.5 6.04916 12800.8 4277.19 -47034.9 -4210.69 41552.6 21462.2 -7.41282 
184 1 76.7474 3.72205 7.5 6.04915 4889.81 13955.1 -54267.7 1070.49 36260.4 21786.4 -7.41244 
185 1 78.1672 3.6999 7.5 6.04912 12622.3 6416.01 -56062.8 -898.743 37527.9 5840.19 -7.41235 
251 1 69.6867 6.29204 7.5 6.0492 13708.5 19.4995 -27078.3 -10587.5 16895.6 26966.8 -7.41388 
252 1 70.4158 7.51057 7.5 6.0492 -1025.44 11842.2 -9544.99 4076.7 27879.2 33449.1 -7.4147 
253 1 71.8356 7.48841 7.5 6.0492 13381 -119.563 -26898.5 -9232.64 28261.8 23498.7 -7.41388 
254 1 72.5263 6.24773 7.5 6.0492 427.862 12490.7 -25433.4 2820.23 36693.4 38490 -7.41391 
255 1 73.9461 6.22557 7.5 6.0492 12907 1683.78 -36140.6 -7194.48 37864.9 27473.1 -7.41339 
256 1 74.6752 7.4441 7.5 6.0492 -1800.3 15583.3 -31297.6 1217.4 43359.3 28738.9 -7.41363 
257 1 76.0951 7.42195 7.5 6.04916 12372.7 1756.33 -32689.1 -4258.59 48088 13325.9 -7.41355 
258 1 76.7858 6.18126 7.5 6.04915 99.8648 16063.7 -43789.2 505.891 47307.9 19041.2 -7.41299 
259 1 78.2056 6.15911 7.5 6.04912 12253.3 3596.36 -42444.4 -890.419 51181.9 2976.2 -7.41304 
325 1 69.725 8.75125 7.5 6.0492 14321.2 -391.805 -21749.1 -10013.9 16423.3 13057.1 -7.41414 
328 1 72.5647 8.70694 7.5 6.0492 -2943.11 14827.1 -17367.5 2260.24 33164.2 29658.6 -7.41432 
329 1 73.9845 8.68479 7.5 6.0492 12792.6 -186.194 -23335.4 -6929.95 38144.8 15077.4 -7.41403 
332 1 76.8242 8.64048 7.5 6.04915 -3825.25 17831.8 -33190.2 218.341 44919.4 15161.3 -7.41355 
333 1 78.244 8.61832 7.5 6.04912 11751.8 871.694 -25671.8 -778.109 52315.6 -6.31139 -7.41389 
260 1 0.153495 9.83685 7.5 6.04912 -5282.62 18711 -30845.1 -415.604 39935.9 2065.02 -7.41369 
261 1 1.57332 9.8147 7.5 6.04915 11824.1 -142.455 -17295.5 2643.31 49178.1 -8070.88 -7.41431 
262 1 2.30242 11.0332 7.5 6.04916 -5532.12 19031.3 -25243.8 -1046.78 29223.7 -7192.88 -7.41397 
263 1 3.72225 11.0111 7.5 6.0492 12433.5 -1354 -10220.4 5377.13 39640.8 -8931.96 -7.41467 
264 1 4.41298 9.77039 7.5 6.0492 -4345 17050.5 -22441.9 -1803.57 29730 -18590.9 -7.41409 
266 1 6.5619 10.9668 7.5 6.0492 -4215.96 16249.3 -11530.3 -3030.54 15484.9 -19510.5 -7.41462 
267 1 7.98173 10.9446 7.5 6.0492 13922.9 -592.147 -14434.5 9018.25 22032.9 -6437.2 -7.41448 
334 1 0.191869 12.2961 7.5 6.04912 -5896.29 19845.5 -25091 -459.044 24065.9 1660.83 -7.41399 
335 1 1.6117 12.2739 7.5 6.04915 12484 -2425.91 -1956.24 2394.29 37508.9 -4445.58 -7.41507 
336 1 2.3408 13.4924 7.5 6.04916 -4928.3 20098.8 -22218.9 -1163.7 13056.8 -4216.31 -7.41412 
337 1 3.76062 13.4703 7.5 6.0492 13485.8 -3094.13 2269.89 4568.32 27823.1 -1305.68 -7.41529 
338 1 4.45135 12.2296 7.5 6.0492 -5003.34 18546.1 -18029.7 -1955.72 15651.5 -11563.8 -7.41432 
339 1 5.87118 12.2074 7.5 6.0492 13560.1 -1830.06 -6550.18 7033.78 26744.5 -3862.07 -7.41486 
340 1 6.60028 13.426 7.5 6.0492 -3880.91 17819.1 -10678.3 -3164.53 3066.57 -12519.8 -7.41466 
341 1 8.0201 13.4038 7.5 6.0492 14896.3 -1097.4 -7007.96 7602.53 14479.1 3419.81 -7.41483 
342 1 8.71083 12.1631 7.5 6.0492 -3530.78 15519.2 -1772.09 -4551.55 3266.36 -17573.2 -7.41509 
408 1 0.230242 14.7553 7.5 6.04912 -4104.64 20667.3 -24073.1 -464.419 7993.97 591.876 -7.41402 
409 1 1.65007 14.7331 7.5 6.04915 13792.2 -4336.75 10430.7 2047.16 25531.7 -610.476 -7.41569 
410 1 2.37917 15.9516 7.5 6.04916 -2364.61 20854 -23396.3 -1177.7 368.455 -2918.04 -7.41403 
411 1 3.799 15.9295 7.5 6.0492 14749.6 -4505.77 12133.7 3690.97 19164 5100.88 -7.41577 
412 1 4.48972 14.6888 7.5 6.0492 -3483.67 19656.7 -18099.6 -2063.02 2186.91 -7066.47 -7.4143 
413 1 5.90955 14.6667 7.5 6.0492 14697.2 -2889.14 2652.07 5775.35 17774.4 4937.65 -7.4153 
414 1 6.63865 15.8852 7.5 6.0492 -1932.26 18935.1 -13439.2 -3038.98 -5434.21 -8743.35 -7.4145 
415 1 8.05848 15.863 7.5 6.0492 15691.8 -1561.2 -448.448 6197.11 10590.4 10674.7 -7.41513 
416 1 8.74921 14.6223 7.5 6.0492 -2632.31 16995.6 -3872.1 -4429.12 -5168.56 -13098.9 -7.41497 
482 1 0.268616 17.2145 7.5 6.04912 -897.935 21220.1 -26436 -430.848 -1779.47 -799.441 -7.41386 
483 1 1.68844 17.1923 7.5 6.04915 14984.4 -5810.32 20011.8 1693.52 19294.1 2971.84 -7.41617 
484 1 2.41754 18.4109 7.5 6.04916 877.004 21341.2 -26690.5 -998.276 -4065.12 -2867.49 -7.41382 
485 1 3.83737 18.3887 7.5 6.0492 15383.2 -5554.19 20260.4 2928.65 18017.1 9843.56 -7.41619 