(written by TR)

8216	atoms
1	atom types
0	78.8195898	xlo xhi
0	136.519534	ylo yhi
0	18.3999996	zlo zhi


Masses

1	12

Atoms

1 1 1 0 0.00000000 0.00000000 7.50000000 0 0 0
2 1 1 0 2.14892769 1.19637371 7.50000000 0 0 0
3 1 1 0 3.56875474 1.17421864 7.50000000 0 0 0
4 1 1 0 6.40840935 1.12990849 7.50000000 0 0 0
5 1 1 0 7.82823641 1.10775343 7.50000000 0 0 0
6 1 1 0 10.66789102 1.06344328 7.50000000 0 0 0
7 1 1 0 12.08771808 1.04128821 7.50000000 0 0 0
8 1 1 0 14.92737269 0.99697807 7.50000000 0 0 0
9 1 1 0 16.34719975 0.97482300 7.50000000 0 0 0
10 1 1 0 19.18685436 0.93051286 7.50000000 0 0 0
11 1 1 0 20.60668141 0.90835779 7.50000000 0 0 0
12 1 1 0 23.44633603 0.86404764 7.50000000 0 0 0
13 1 1 0 24.86616308 0.84189257 7.50000000 0 0 0
14 1 1 0 27.70581769 0.79758243 7.50000000 0 0 0
15 1 1 0 29.12564475 0.77542736 7.50000000 0 0 0
16 1 1 0 31.96529936 0.73111722 7.50000000 0 0 0
17 1 1 0 33.38512642 0.70896215 7.50000000 0 0 0
18 1 1 0 36.22478103 0.66465200 7.50000000 0 0 0
19 1 1 0 37.64460809 0.64249694 7.50000000 0 0 0
20 1 1 0 40.48426270 0.59818679 7.50000000 0 0 0
21 1 1 0 41.90408975 0.57603172 7.50000000 0 0 0
22 1 1 0 44.74374437 0.53172158 7.50000000 0 0 0
23 1 1 0 46.16357142 0.50956651 7.50000000 0 0 0
24 1 1 0 49.00322603 0.46525637 7.50000000 0 0 0
25 1 1 0 50.42305309 0.44310130 7.50000000 0 0 0
26 1 1 0 53.26270770 0.39879115 7.50000000 0 0 0
27 1 1 0 54.68253476 0.37663608 7.50000000 0 0 0
28 1 1 0 57.52218937 0.33232594 7.50000000 0 0 0
29 1 1 0 58.94201643 0.31017087 7.50000000 0 0 0
30 1 1 0 61.78167104 0.26586073 7.50000000 0 0 0
31 1 1 0 63.20149809 0.24370566 7.50000000 0 0 0
32 1 1 0 66.04115271 0.19939551 7.50000000 0 0 0
33 1 1 0 67.46097976 0.17724045 7.50000000 0 0 0
34 1 1 0 70.30063437 0.13293030 7.50000000 0 0 0
35 1 1 0 71.72046143 0.11077523 7.50000000 0 0 0
36 1 1 0 74.56011604 0.06646509 7.50000000 0 0 0
37 1 1 0 75.97994310 0.04431002 7.50000000 0 0 0
38 1 1 0 0.03837370 2.45921263 7.50000000 0 0 0
39 1 1 0 1.45820086 2.43705756 7.50000000 0 0 0
40 1 1 0 2.18730139 3.65558633 7.50000000 0 0 0
41 1 1 0 3.60712845 3.63343126 7.50000000 0 0 0
42 1 1 0 4.29785537 2.39274741 7.50000000 0 0 0
43 1 1 0 5.71768253 2.37059234 7.50000000 0 0 0
44 1 1 0 6.44678306 3.58912112 7.50000000 0 0 0
45 1 1 0 7.86661011 3.56696605 7.50000000 0 0 0
46 1 1 0 8.55733704 2.32628220 7.50000000 0 0 0
47 1 1 0 9.97716420 2.30412713 7.50000000 0 0 0
48 1 1 0 10.70626473 3.52265591 7.50000000 0 0 0
49 1 1 0 12.12609178 3.50050084 7.50000000 0 0 0
50 1 1 0 12.81681871 2.25981699 7.50000000 0 0 0
51 1 1 0 14.23664586 2.23766192 7.50000000 0 0 0
52 1 1 0 14.96574639 3.45619069 7.50000000 0 0 0
53 1 1 0 16.38557345 3.43403563 7.50000000 0 0 0
54 1 1 0 17.07630038 2.19335177 7.50000000 0 0 0
55 1 1 0 18.49612753 2.17119670 7.50000000 0 0 0
56 1 1 0 19.22522806 3.38972548 7.50000000 0 0 0
57 1 1 0 20.64505512 3.36757041 7.50000000 0 0 0
58 1 1 0 21.33578204 2.12688656 7.50000000 0 0 0
59 1 1 0 22.75560920 2.10473149 7.50000000 0 0 0
60 1 1 0 23.48470973 3.32326027 7.50000000 0 0 0
61 1 1 0 24.90453679 3.30110520 7.50000000 0 0 0
62 1 1 0 25.59526371 2.06042135 7.50000000 0 0 0
63 1 1 0 27.01509087 2.03826628 7.50000000 0 0 0
64 1 1 0 27.74419140 3.25679505 7.50000000 0 0 0
65 1 1 0 29.16401845 3.23463999 7.50000000 0 0 0
66 1 1 0 29.85474538 1.99395614 7.50000000 0 0 0
67 1 1 0 31.27457254 1.97180107 7.50000000 0 0 0
68 1 1 0 32.00367307 3.19032984 7.50000000 0 0 0
69 1 1 0 33.42350012 3.16817477 7.50000000 0 0 0
70 1 1 0 34.11422705 1.92749092 7.50000000 0 0 0
71 1 1 0 35.53405420 1.90533585 7.50000000 0 0 0
72 1 1 0 36.26315473 3.12386463 7.50000000 0 0 0
73 1 1 0 37.68298179 3.10170956 7.50000000 0 0 0
74 1 1 0 38.37370872 1.86102571 7.50000000 0 0 0
75 1 1 0 39.79353587 1.83887064 7.50000000 0 0 0
76 1 1 0 40.52263640 3.05739942 7.50000000 0 0 0
77 1 1 0 41.94246346 3.03524435 7.50000000 0 0 0
78 1 1 0 42.63319038 1.79456050 7.50000000 0 0 0
79 1 1 0 44.05301754 1.77240543 7.50000000 0 0 0
80 1 1 0 44.78211807 2.99093420 7.50000000 0 0 0
81 1 1 0 46.20194513 2.96877914 7.50000000 0 0 0
82 1 1 0 46.89267205 1.72809528 7.50000000 0 0 0
83 1 1 0 48.31249921 1.70594021 7.50000000 0 0 0
84 1 1 0 49.04159974 2.92446899 7.50000000 0 0 0
85 1 1 0 50.46142679 2.90231392 7.50000000 0 0 0
86 1 1 0 51.15215372 1.66163007 7.50000000 0 0 0
87 1 1 0 52.57198088 1.63947500 7.50000000 0 0 0
88 1 1 0 53.30108141 2.85800378 7.50000000 0 0 0
89 1 1 0 54.72090846 2.83584871 7.50000000 0 0 0
90 1 1 0 55.41163539 1.59516486 7.50000000 0 0 0
91 1 1 0 56.83146254 1.57300979 7.50000000 0 0 0
92 1 1 0 57.56056307 2.79153857 7.50000000 0 0 0
93 1 1 0 58.98039013 2.76938350 7.50000000 0 0 0
94 1 1 0 59.67111706 1.52869965 7.50000000 0 0 0
95 1 1 0 61.09094421 1.50654458 7.50000000 0 0 0
96 1 1 0 61.82004474 2.72507335 7.50000000 0 0 0
97 1 1 0 63.23987180 2.70291828 7.50000000 0 0 0
98 1 1 0 63.93059872 1.46223443 7.50000000 0 0 0
99 1 1 0 65.35042588 1.44007936 7.50000000 0 0 0
100 1 1 0 66.07952641 2.65860814 7.50000000 0 0 0
101 1 1 0 67.49935347 2.63645307 7.50000000 0 0 0
102 1 1 0 68.19008039 1.39576922 7.50000000 0 0 0
103 1 1 0 69.60990755 1.37361415 7.50000000 0 0 0
104 1 1 0 70.33900808 2.59214293 7.50000000 0 0 0
105 1 1 0 71.75883513 2.56998786 7.50000000 0 0 0
106 1 1 0 72.44956206 1.32930401 7.50000000 0 0 0
107 1 1 0 73.86938922 1.30714894 7.50000000 0 0 0
108 1 1 0 74.59848975 2.52567771 7.50000000 0 0 0
109 1 1 0 76.01831680 2.50352265 7.50000000 0 0 0
110 1 1 0 76.70904373 1.26283880 7.50000000 0 0 0
111 1 1 0 78.12887088 1.24068373 7.50000000 0 0 0
112 1 1 0 0.07674741 4.91842525 7.50000000 0 0 0
113 1 1 0 1.49657456 4.89627018 7.50000000 0 0 0
114 1 1 0 2.22567509 6.11479896 7.50000000 0 0 0
115 1 1 0 3.64550215 6.09264389 7.50000000 0 0 0
116 1 1 0 4.33622908 4.85196004 7.50000000 0 0 0
117 1 1 0 5.75605623 4.82980497 7.50000000 0 0 0
118 1 1 0 6.48515676 6.04833374 7.50000000 0 0 0
119 1 1 0 7.90498382 6.02617868 7.50000000 0 0 0
120 1 1 0 8.59571074 4.78549483 7.50000000 0 0 0
121 1 1 0 10.01553790 4.76333976 7.50000000 0 0 0
122 1 1 0 10.74463843 5.98186853 7.50000000 0 0 0
123 1 1 0 12.16446549 5.95971346 7.50000000 0 0 0
124 1 1 0 12.85519241 4.71902961 7.50000000 0 0 0
125 1 1 0 14.27501957 4.69687454 7.50000000 0 0 0
126 1 1 0 15.00412010 5.91540332 7.50000000 0 0 0
127 1 1 0 16.42394715 5.89324825 7.50000000 0 0 0
128 1 1 0 17.11467408 4.65256440 7.50000000 0 0 0
129 1 1 0 18.53450124 4.63040933 7.50000000 0 0 0
130 1 1 0 19.26360177 5.84893811 7.50000000 0 0 0
131 1 1 0 20.68342882 5.82678304 7.50000000 0 0 0
132 1 1 0 21.37415575 4.58609919 7.50000000 0 0 0
133 1 1 0 22.79398290 4.56394412 7.50000000 0 0 0
134 1 1 0 23.52308343 5.78247289 7.50000000 0 0 0
135 1 1 0 24.94291049 5.76031782 7.50000000 0 0 0
136 1 1 0 25.63363742 4.51963397 7.50000000 0 0 0
137 1 1 0 27.05346457 4.49747890 7.50000000 0 0 0
138 1 1 0 27.78256510 5.71600768 7.50000000 0 0 0
139 1 1 0 29.20239216 5.69385261 7.50000000 0 0 0
140 1 1 0 29.89311908 4.45316876 7.50000000 0 0 0
141 1 1 0 31.31294624 4.43101369 7.50000000 0 0 0
142 1 1 0 32.04204677 5.64954247 7.50000000 0 0 0
143 1 1 0 33.46187383 5.62738740 7.50000000 0 0 0
144 1 1 0 34.15260075 4.38670355 7.50000000 0 0 0
145 1 1 0 35.57242791 4.36454848 7.50000000 0 0 0
146 1 1 0 36.30152844 5.58307725 7.50000000 0 0 0
147 1 1 0 37.72135549 5.56092219 7.50000000 0 0 0
148 1 1 0 38.41208242 4.32023834 7.50000000 0 0 0
149 1 1 0 39.83190958 4.29808327 7.50000000 0 0 0
150 1 1 0 40.56101011 5.51661204 7.50000000 0 0 0
151 1 1 0 41.98083716 5.49445697 7.50000000 0 0 0
152 1 1 0 42.67156409 4.25377312 7.50000000 0 0 0
153 1 1 0 44.09139124 4.23161805 7.50000000 0 0 0
154 1 1 0 44.82049177 5.45014683 7.50000000 0 0 0
155 1 1 0 46.24031883 5.42799176 7.50000000 0 0 0
156 1 1 0 46.93104576 4.18730791 7.50000000 0 0 0
157 1 1 0 48.35087291 4.16515284 7.50000000 0 0 0
158 1 1 0 49.07997344 5.38368162 7.50000000 0 0 0
159 1 1 0 50.49980050 5.36152655 7.50000000 0 0 0
160 1 1 0 51.19052742 4.12084270 7.50000000 0 0 0
161 1 1 0 52.61035458 4.09868763 7.50000000 0 0 0
162 1 1 0 53.33945511 5.31721640 7.50000000 0 0 0
163 1 1 0 54.75928217 5.29506134 7.50000000 0 0 0
164 1 1 0 55.45000909 4.05437748 7.50000000 0 0 0
165 1 1 0 56.86983625 4.03222241 7.50000000 0 0 0
166 1 1 0 57.59893678 5.25075119 7.50000000 0 0 0
167 1 1 0 59.01876383 5.22859612 7.50000000 0 0 0
168 1 1 0 59.70949076 3.98791227 7.50000000 0 0 0
169 1 1 0 61.12931792 3.96575720 7.50000000 0 0 0
170 1 1 0 61.85841845 5.18428598 7.50000000 0 0 0
171 1 1 0 63.27824550 5.16213091 7.50000000 0 0 0
172 1 1 0 63.96897243 3.92144706 7.50000000 0 0 0
173 1 1 0 65.38879958 3.89929199 7.50000000 0 0 0
174 1 1 0 66.11790011 5.11782077 7.50000000 0 0 0
175 1 1 0 67.53772717 5.09566570 7.50000000 0 0 0
176 1 1 0 68.22845410 3.85498185 7.50000000 0 0 0
177 1 1 0 69.64828125 3.83282678 7.50000000 0 0 0
178 1 1 0 70.37738178 5.05135555 7.50000000 0 0 0
179 1 1 0 71.79720884 5.02920048 7.50000000 0 0 0
180 1 1 0 72.48793576 3.78851663 7.50000000 0 0 0
181 1 1 0 73.90776292 3.76636156 7.50000000 0 0 0
182 1 1 0 74.63686345 4.98489034 7.50000000 0 0 0
183 1 1 0 76.05669051 4.96273527 7.50000000 0 0 0
184 1 1 0 76.74741743 3.72205142 7.50000000 0 0 0
185 1 1 0 78.16724459 3.69989635 7.50000000 0 0 0
186 1 1 0 0.11512111 7.37763788 7.50000000 0 0 0
187 1 1 0 1.53494827 7.35548281 7.50000000 0 0 0
188 1 1 0 2.26404880 8.57401158 7.50000000 0 0 0
189 1 1 0 3.68387586 8.55185651 7.50000000 0 0 0
190 1 1 0 4.37460278 7.31117266 7.50000000 0 0 0
191 1 1 0 5.79442994 7.28901759 7.50000000 0 0 0
192 1 1 0 6.52353047 8.50754637 7.50000000 0 0 0
193 1 1 0 7.94335752 8.48539130 7.50000000 0 0 0
194 1 1 0 8.63408445 7.24470745 7.50000000 0 0 0
195 1 1 0 10.05391161 7.22255238 7.50000000 0 0 0
196 1 1 0 10.78301214 8.44108116 7.50000000 0 0 0
197 1 1 0 12.20283919 8.41892609 7.50000000 0 0 0
198 1 1 0 12.89356612 7.17824224 7.50000000 0 0 0
199 1 1 0 14.31339327 7.15608717 7.50000000 0 0 0
200 1 1 0 15.04249380 8.37461594 7.50000000 0 0 0
201 1 1 0 16.46232086 8.35246088 7.50000000 0 0 0
202 1 1 0 17.15304778 7.11177703 7.50000000 0 0 0
203 1 1 0 18.57287494 7.08962196 7.50000000 0 0 0
204 1 1 0 19.30197547 8.30815073 7.50000000 0 0 0
205 1 1 0 20.72180253 8.28599566 7.50000000 0 0 0
206 1 1 0 21.41252945 7.04531181 7.50000000 0 0 0
207 1 1 0 22.83235661 7.02315674 7.50000000 0 0 0
208 1 1 0 23.56145714 8.24168552 7.50000000 0 0 0
209 1 1 0 24.98128420 8.21953045 7.50000000 0 0 0
210 1 1 0 25.67201112 6.97884660 7.50000000 0 0 0
211 1 1 0 27.09183828 6.95669153 7.50000000 0 0 0
212 1 1 0 27.82093881 8.17522031 7.50000000 0 0 0
213 1 1 0 29.24076586 8.15306524 7.50000000 0 0 0
214 1 1 0 29.93149279 6.91238139 7.50000000 0 0 0
215 1 1 0 31.35131994 6.89022632 7.50000000 0 0 0
216 1 1 0 32.08042047 8.10875509 7.50000000 0 0 0
217 1 1 0 33.50024753 8.08660002 7.50000000 0 0 0
218 1 1 0 34.19097446 6.84591617 7.50000000 0 0 0
219 1 1 0 35.61080161 6.82376110 7.50000000 0 0 0
220 1 1 0 36.33990214 8.04228988 7.50000000 0 0 0
221 1 1 0 37.75972920 8.02013481 7.50000000 0 0 0
222 1 1 0 38.45045612 6.77945096 7.50000000 0 0 0
223 1 1 0 39.87028328 6.75729589 7.50000000 0 0 0
224 1 1 0 40.59938381 7.97582467 7.50000000 0 0 0
225 1 1 0 42.01921087 7.95366960 7.50000000 0 0 0
226 1 1 0 42.70993779 6.71298575 7.50000000 0 0 0
227 1 1 0 44.12976495 6.69083068 7.50000000 0 0 0
228 1 1 0 44.85886548 7.90935945 7.50000000 0 0 0
229 1 1 0 46.27869253 7.88720439 7.50000000 0 0 0
230 1 1 0 46.96941946 6.64652054 7.50000000 0 0 0
231 1 1 0 48.38924662 6.62436547 7.50000000 0 0 0
232 1 1 0 49.11834715 7.84289424 7.50000000 0 0 0
233 1 1 0 50.53817420 7.82073917 7.50000000 0 0 0
234 1 1 0 51.22890113 6.58005532 7.50000000 0 0 0
235 1 1 0 52.64872828 6.55790025 7.50000000 0 0 0
236 1 1 0 53.37782881 7.77642903 7.50000000 0 0 0
237 1 1 0 54.79765587 7.75427396 7.50000000 0 0 0
238 1 1 0 55.48838280 6.51359011 7.50000000 0 0 0
239 1 1 0 56.90820995 6.49143504 7.50000000 0 0 0
240 1 1 0 57.63731048 7.70996382 7.50000000 0 0 0
241 1 1 0 59.05713754 7.68780875 7.50000000 0 0 0
242 1 1 0 59.74786446 6.44712490 7.50000000 0 0 0
243 1 1 0 61.16769162 6.42496983 7.50000000 0 0 0
244 1 1 0 61.89679215 7.64349860 7.50000000 0 0 0
245 1 1 0 63.31661921 7.62134354 7.50000000 0 0 0
246 1 1 0 64.00734613 6.38065968 7.50000000 0 0 0
247 1 1 0 65.42717329 6.35850461 7.50000000 0 0 0
248 1 1 0 66.15627382 7.57703339 7.50000000 0 0 0
249 1 1 0 67.57610087 7.55487832 7.50000000 0 0 0
250 1 1 0 68.26682780 6.31419447 7.50000000 0 0 0
251 1 1 0 69.68665496 6.29203940 7.50000000 0 0 0
252 1 1 0 70.41575549 7.51056818 7.50000000 0 0 0
253 1 1 0 71.83558254 7.48841311 7.50000000 0 0 0
254 1 1 0 72.52630947 6.24772926 7.50000000 0 0 0
255 1 1 0 73.94613662 6.22557419 7.50000000 0 0 0
256 1 1 0 74.67523715 7.44410297 7.50000000 0 0 0
257 1 1 0 76.09506421 7.42194790 7.50000000 0 0 0
258 1 1 0 76.78579114 6.18126405 7.50000000 0 0 0
259 1 1 0 78.20561829 6.15910898 7.50000000 0 0 0
260 1 1 0 0.15349482 9.83685050 7.50000000 0 0 0
261 1 1 0 1.57332197 9.81469543 7.50000000 0 0 0
262 1 1 0 2.30242250 11.03322421 7.50000000 0 0 0
263 1 1 0 3.72224956 11.01106914 7.50000000 0 0 0
264 1 1 0 4.41297649 9.77038529 7.50000000 0 0 0
265 1 1 0 5.83280364 9.74823022 7.50000000 0 0 0
266 1 1 0 6.56190417 10.96675900 7.50000000 0 0 0
267 1 1 0 7.98173123 10.94460393 7.50000000 0 0 0
268 1 1 0 8.67245815 9.70392008 7.50000000 0 0 0
269 1 1 0 10.09228531 9.68176501 7.50000000 0 0 0
270 1 1 0 10.82138584 10.90029378 7.50000000 0 0 0
271 1 1 0 12.24121290 10.87813871 7.50000000 0 0 0
272 1 1 0 12.93193982 9.63745486 7.50000000 0 0 0
273 1 1 0 14.35176698 9.61529979 7.50000000 0 0 0
274 1 1 0 15.08086751 10.83382857 7.50000000 0 0 0
275 1 1 0 16.50069456 10.81167350 7.50000000 0 0 0
276 1 1 0 17.19142149 9.57098965 7.50000000 0 0 0
277 1 1 0 18.61124865 9.54883458 7.50000000 0 0 0
278 1 1 0 19.34034918 10.76736336 7.50000000 0 0 0
279 1 1 0 20.76017623 10.74520829 7.50000000 0 0 0
280 1 1 0 21.45090316 9.50452444 7.50000000 0 0 0
281 1 1 0 22.87073031 9.48236937 7.50000000 0 0 0
282 1 1 0 23.59983084 10.70089814 7.50000000 0 0 0
283 1 1 0 25.01965790 10.67874308 7.50000000 0 0 0
284 1 1 0 25.71038483 9.43805922 7.50000000 0 0 0
285 1 1 0 27.13021198 9.41590415 7.50000000 0 0 0
286 1 1 0 27.85931251 10.63443293 7.50000000 0 0 0
287 1 1 0 29.27913957 10.61227786 7.50000000 0 0 0
288 1 1 0 29.96986649 9.37159401 7.50000000 0 0 0
289 1 1 0 31.38969365 9.34943894 7.50000000 0 0 0
290 1 1 0 32.11879418 10.56796772 7.50000000 0 0 0
291 1 1 0 33.53862124 10.54581265 7.50000000 0 0 0
292 1 1 0 34.22934816 9.30512880 7.50000000 0 0 0
293 1 1 0 35.64917532 9.28297373 7.50000000 0 0 0
294 1 1 0 36.37827585 10.50150251 7.50000000 0 0 0
295 1 1 0 37.79810290 10.47934744 7.50000000 0 0 0
296 1 1 0 38.48882983 9.23866359 7.50000000 0 0 0
297 1 1 0 39.90865699 9.21650852 7.50000000 0 0 0
298 1 1 0 40.63775752 10.43503729 7.50000000 0 0 0
299 1 1 0 42.05758457 10.41288222 7.50000000 0 0 0
300 1 1 0 42.74831150 9.17219837 7.50000000 0 0 0
301 1 1 0 44.16813865 9.15004330 7.50000000 0 0 0
302 1 1 0 44.89723918 10.36857208 7.50000000 0 0 0
303 1 1 0 46.31706624 10.34641701 7.50000000 0 0 0
304 1 1 0 47.00779316 9.10573316 7.50000000 0 0 0
305 1 1 0 48.42762032 9.08357809 7.50000000 0 0 0
306 1 1 0 49.15672085 10.30210687 7.50000000 0 0 0
307 1 1 0 50.57654791 10.27995180 7.50000000 0 0 0
308 1 1 0 51.26727483 9.03926795 7.50000000 0 0 0
309 1 1 0 52.68710199 9.01711288 7.50000000 0 0 0
310 1 1 0 53.41620252 10.23564165 7.50000000 0 0 0
311 1 1 0 54.83602958 10.21348659 7.50000000 0 0 0
312 1 1 0 55.52675650 8.97280274 7.50000000 0 0 0
313 1 1 0 56.94658366 8.95064767 7.50000000 0 0 0
314 1 1 0 57.67568419 10.16917644 7.50000000 0 0 0
315 1 1 0 59.09551124 10.14702137 7.50000000 0 0 0
316 1 1 0 59.78623817 8.90633752 7.50000000 0 0 0
317 1 1 0 61.20606532 8.88418245 7.50000000 0 0 0
318 1 1 0 61.93516585 10.10271123 7.50000000 0 0 0
319 1 1 0 63.35499291 10.08055616 7.50000000 0 0 0
320 1 1 0 64.04571984 8.83987231 7.50000000 0 0 0
321 1 1 0 65.46554699 8.81771724 7.50000000 0 0 0
322 1 1 0 66.19464752 10.03624602 7.50000000 0 0 0
323 1 1 0 67.61447458 10.01409095 7.50000000 0 0 0
324 1 1 0 68.30520150 8.77340710 7.50000000 0 0 0
325 1 1 0 69.72502866 8.75125203 7.50000000 0 0 0
326 1 1 0 70.45412919 9.96978080 7.50000000 0 0 0
327 1 1 0 71.87395625 9.94762573 7.50000000 0 0 0
328 1 1 0 72.56468317 8.70694188 7.50000000 0 0 0
329 1 1 0 73.98451033 8.68478681 7.50000000 0 0 0
330 1 1 0 74.71361086 9.90331559 7.50000000 0 0 0
331 1 1 0 76.13343791 9.88116052 7.50000000 0 0 0
332 1 1 0 76.82416484 8.64047667 7.50000000 0 0 0
333 1 1 0 78.24399200 8.61832160 7.50000000 0 0 0
334 1 1 0 0.19186852 12.29606313 7.50000000 0 0 0
335 1 1 0 1.61169568 12.27390806 7.50000000 0 0 0
336 1 1 0 2.34079621 13.49243683 7.50000000 0 0 0
337 1 1 0 3.76062326 13.47028177 7.50000000 0 0 0
338 1 1 0 4.45135019 12.22959791 7.50000000 0 0 0
339 1 1 0 5.87117735 12.20744284 7.50000000 0 0 0
340 1 1 0 6.60027788 13.42597162 7.50000000 0 0 0
341 1 1 0 8.02010493 13.40381655 7.50000000 0 0 0
342 1 1 0 8.71083186 12.16313270 7.50000000 0 0 0
343 1 1 0 10.13065901 12.14097763 7.50000000 0 0 0
344 1 1 0 10.85975954 13.35950641 7.50000000 0 0 0
345 1 1 0 12.27958660 13.33735134 7.50000000 0 0 0
346 1 1 0 12.97031353 12.09666749 7.50000000 0 0 0
347 1 1 0 14.39014068 12.07451242 7.50000000 0 0 0
348 1 1 0 15.11924121 13.29304119 7.50000000 0 0 0
349 1 1 0 16.53906827 13.27088613 7.50000000 0 0 0
350 1 1 0 17.22979519 12.03020228 7.50000000 0 0 0
351 1 1 0 18.64962235 12.00804721 7.50000000 0 0 0
352 1 1 0 19.37872288 13.22657598 7.50000000 0 0 0
353 1 1 0 20.79854994 13.20442091 7.50000000 0 0 0
354 1 1 0 21.48927686 11.96373706 7.50000000 0 0 0
355 1 1 0 22.90910402 11.94158199 7.50000000 0 0 0
356 1 1 0 23.63820455 13.16011077 7.50000000 0 0 0
357 1 1 0 25.05803160 13.13795570 7.50000000 0 0 0
358 1 1 0 25.74875853 11.89727185 7.50000000 0 0 0
359 1 1 0 27.16858569 11.87511678 7.50000000 0 0 0
360 1 1 0 27.89768622 13.09364556 7.50000000 0 0 0
361 1 1 0 29.31751327 13.07149049 7.50000000 0 0 0
362 1 1 0 30.00824020 11.83080664 7.50000000 0 0 0
363 1 1 0 31.42806735 11.80865157 7.50000000 0 0 0
364 1 1 0 32.15716788 13.02718034 7.50000000 0 0 0
365 1 1 0 33.57699494 13.00502528 7.50000000 0 0 0
366 1 1 0 34.26772187 11.76434142 7.50000000 0 0 0
367 1 1 0 35.68754902 11.74218635 7.50000000 0 0 0
368 1 1 0 36.41664955 12.96071513 7.50000000 0 0 0
369 1 1 0 37.83647661 12.93856006 7.50000000 0 0 0
370 1 1 0 38.52720353 11.69787621 7.50000000 0 0 0
371 1 1 0 39.94703069 11.67572114 7.50000000 0 0 0
372 1 1 0 40.67613122 12.89424992 7.50000000 0 0 0
373 1 1 0 42.09595828 12.87209485 7.50000000 0 0 0
374 1 1 0 42.78668520 11.63141100 7.50000000 0 0 0
375 1 1 0 44.20651236 11.60925593 7.50000000 0 0 0
376 1 1 0 44.93561289 12.82778471 7.50000000 0 0 0
377 1 1 0 46.35543994 12.80562964 7.50000000 0 0 0
378 1 1 0 47.04616687 11.56494579 7.50000000 0 0 0
379 1 1 0 48.46599403 11.54279072 7.50000000 0 0 0
380 1 1 0 49.19509456 12.76131949 7.50000000 0 0 0
381 1 1 0 50.61492161 12.73916442 7.50000000 0 0 0
382 1 1 0 51.30564854 11.49848057 7.50000000 0 0 0
383 1 1 0 52.72547569 11.47632550 7.50000000 0 0 0
384 1 1 0 53.45457622 12.69485428 7.50000000 0 0 0
385 1 1 0 54.87440328 12.67269921 7.50000000 0 0 0
386 1 1 0 55.56513021 11.43201536 7.50000000 0 0 0
387 1 1 0 56.98495736 11.40986029 7.50000000 0 0 0
388 1 1 0 57.71405789 12.62838907 7.50000000 0 0 0
389 1 1 0 59.13388495 12.60623400 7.50000000 0 0 0
390 1 1 0 59.82461187 11.36555015 7.50000000 0 0 0
391 1 1 0 61.24443903 11.34339508 7.50000000 0 0 0
392 1 1 0 61.97353956 12.56192385 7.50000000 0 0 0
393 1 1 0 63.39336662 12.53976879 7.50000000 0 0 0
394 1 1 0 64.08409354 11.29908494 7.50000000 0 0 0
395 1 1 0 65.50392070 11.27692987 7.50000000 0 0 0
396 1 1 0 66.23302123 12.49545864 7.50000000 0 0 0
397 1 1 0 67.65284828 12.47330357 7.50000000 0 0 0
398 1 1 0 68.34357521 11.23261972 7.50000000 0 0 0
399 1 1 0 69.76340237 11.21046465 7.50000000 0 0 0
400 1 1 0 70.49250290 12.42899343 7.50000000 0 0 0
401 1 1 0 71.91232995 12.40683836 7.50000000 0 0 0
402 1 1 0 72.60305688 11.16615451 7.50000000 0 0 0
403 1 1 0 74.02288403 11.14399944 7.50000000 0 0 0
404 1 1 0 74.75198456 12.36252822 7.50000000 0 0 0
405 1 1 0 76.17181162 12.34037315 7.50000000 0 0 0
406 1 1 0 76.86253854 11.09968930 7.50000000 0 0 0
407 1 1 0 78.28236570 11.07753423 7.50000000 0 0 0
408 1 1 0 0.23024223 14.75527575 7.50000000 0 0 0
409 1 1 0 1.65006938 14.73312068 7.50000000 0 0 0
410 1 1 0 2.37916991 15.95164946 7.50000000 0 0 0
411 1 1 0 3.79899697 15.92949439 7.50000000 0 0 0
412 1 1 0 4.48972389 14.68881054 7.50000000 0 0 0
413 1 1 0 5.90955105 14.66665547 7.50000000 0 0 0
414 1 1 0 6.63865158 15.88518425 7.50000000 0 0 0
415 1 1 0 8.05847864 15.86302918 7.50000000 0 0 0
416 1 1 0 8.74920556 14.62234533 7.50000000 0 0 0
417 1 1 0 10.16903272 14.60019026 7.50000000 0 0 0
418 1 1 0 10.89813325 15.81871903 7.50000000 0 0 0
419 1 1 0 12.31796030 15.79656396 7.50000000 0 0 0
420 1 1 0 13.00868723 14.55588011 7.50000000 0 0 0
421 1 1 0 14.42851439 14.53372504 7.50000000 0 0 0
422 1 1 0 15.15761492 15.75225382 7.50000000 0 0 0
423 1 1 0 16.57744197 15.73009875 7.50000000 0 0 0
424 1 1 0 17.26816890 14.48941490 7.50000000 0 0 0
425 1 1 0 18.68799605 14.46725983 7.50000000 0 0 0
426 1 1 0 19.41709658 15.68578861 7.50000000 0 0 0
427 1 1 0 20.83692364 15.66363354 7.50000000 0 0 0
428 1 1 0 21.52765057 14.42294969 7.50000000 0 0 0
429 1 1 0 22.94747772 14.40079462 7.50000000 0 0 0
430 1 1 0 23.67657825 15.61932339 7.50000000 0 0 0
431 1 1 0 25.09640531 15.59716833 7.50000000 0 0 0
432 1 1 0 25.78713223 14.35648448 7.50000000 0 0 0
433 1 1 0 27.20695939 14.33432941 7.50000000 0 0 0
434 1 1 0 27.93605992 15.55285818 7.50000000 0 0 0
435 1 1 0 29.35588698 15.53070311 7.50000000 0 0 0
436 1 1 0 30.04661390 14.29001926 7.50000000 0 0 0
437 1 1 0 31.46644106 14.26786419 7.50000000 0 0 0
438 1 1 0 32.19554159 15.48639297 7.50000000 0 0 0
439 1 1 0 33.61536864 15.46423790 7.50000000 0 0 0
440 1 1 0 34.30609557 14.22355405 7.50000000 0 0 0
441 1 1 0 35.72592273 14.20139898 7.50000000 0 0 0
442 1 1 0 36.45502326 15.41992776 7.50000000 0 0 0
443 1 1 0 37.87485031 15.39777269 7.50000000 0 0 0
444 1 1 0 38.56557724 14.15708884 7.50000000 0 0 0
445 1 1 0 39.98540439 14.13493377 7.50000000 0 0 0
446 1 1 0 40.71450492 15.35346254 7.50000000 0 0 0
447 1 1 0 42.13433198 15.33130748 7.50000000 0 0 0
448 1 1 0 42.82505891 14.09062362 7.50000000 0 0 0
449 1 1 0 44.24488606 14.06846855 7.50000000 0 0 0
450 1 1 0 44.97398659 15.28699733 7.50000000 0 0 0
451 1 1 0 46.39381365 15.26484226 7.50000000 0 0 0
452 1 1 0 47.08454057 14.02415841 7.50000000 0 0 0
453 1 1 0 48.50436773 14.00200334 7.50000000 0 0 0
454 1 1 0 49.23346826 15.22053212 7.50000000 0 0 0
455 1 1 0 50.65329532 15.19837705 7.50000000 0 0 0
456 1 1 0 51.34402224 13.95769320 7.50000000 0 0 0
457 1 1 0 52.76384940 13.93553813 7.50000000 0 0 0
458 1 1 0 53.49294993 15.15406691 7.50000000 0 0 0
459 1 1 0 54.91277698 15.13191184 7.50000000 0 0 0
460 1 1 0 55.60350391 13.89122799 7.50000000 0 0 0
461 1 1 0 57.02333107 13.86907292 7.50000000 0 0 0
462 1 1 0 57.75243160 15.08760169 7.50000000 0 0 0
463 1 1 0 59.17225865 15.06544662 7.50000000 0 0 0
464 1 1 0 59.86298558 13.82476277 7.50000000 0 0 0
465 1 1 0 61.28281273 13.80260770 7.50000000 0 0 0
466 1 1 0 62.01191326 15.02113648 7.50000000 0 0 0
467 1 1 0 63.43174032 14.99898141 7.50000000 0 0 0
468 1 1 0 64.12246725 13.75829756 7.50000000 0 0 0
469 1 1 0 65.54229440 13.73614249 7.50000000 0 0 0
470 1 1 0 66.27139493 14.95467127 7.50000000 0 0 0
471 1 1 0 67.69122199 14.93251620 7.50000000 0 0 0
472 1 1 0 68.38194891 13.69183235 7.50000000 0 0 0
473 1 1 0 69.80177607 13.66967728 7.50000000 0 0 0
474 1 1 0 70.53087660 14.88820605 7.50000000 0 0 0
475 1 1 0 71.95070366 14.86605099 7.50000000 0 0 0
476 1 1 0 72.64143058 13.62536713 7.50000000 0 0 0
477 1 1 0 74.06125774 13.60321207 7.50000000 0 0 0
478 1 1 0 74.79035827 14.82174084 7.50000000 0 0 0
479 1 1 0 76.21018532 14.79958577 7.50000000 0 0 0
480 1 1 0 76.90091225 13.55890192 7.50000000 0 0 0
481 1 1 0 78.32073941 13.53674685 7.50000000 0 0 0
482 1 1 0 0.26861593 17.21448838 7.50000000 0 0 0
483 1 1 0 1.68844309 17.19233331 7.50000000 0 0 0
484 1 1 0 2.41754362 18.41086208 7.50000000 0 0 0
485 1 1 0 3.83737067 18.38870702 7.50000000 0 0 0
486 1 1 0 4.52809760 17.14802317 7.50000000 0 0 0
487 1 1 0 5.94792475 17.12586810 7.50000000 0 0 0
488 1 1 0 6.67702528 18.34439687 7.50000000 0 0 0
489 1 1 0 8.09685234 18.32224180 7.50000000 0 0 0
490 1 1 0 8.78757927 17.08155795 7.50000000 0 0 0
491 1 1 0 10.20740642 17.05940288 7.50000000 0 0 0
492 1 1 0 10.93650695 18.27793166 7.50000000 0 0 0
493 1 1 0 12.35633401 18.25577659 7.50000000 0 0 0
494 1 1 0 13.04706093 17.01509274 7.50000000 0 0 0
495 1 1 0 14.46688809 16.99293767 7.50000000 0 0 0
496 1 1 0 15.19598862 18.21146645 7.50000000 0 0 0
497 1 1 0 16.61581568 18.18931138 7.50000000 0 0 0
498 1 1 0 17.30654260 16.94862753 7.50000000 0 0 0
499 1 1 0 18.72636976 16.92647246 7.50000000 0 0 0
500 1 1 0 19.45547029 18.14500123 7.50000000 0 0 0
501 1 1 0 20.87529734 18.12284616 7.50000000 0 0 0
502 1 1 0 21.56602427 16.88216231 7.50000000 0 0 0
503 1 1 0 22.98585143 16.86000724 7.50000000 0 0 0
504 1 1 0 23.71495196 18.07853602 7.50000000 0 0 0
505 1 1 0 25.13477901 18.05638095 7.50000000 0 0 0
506 1 1 0 25.82550594 16.81569710 7.50000000 0 0 0
507 1 1 0 27.24533309 16.79354203 7.50000000 0 0 0
508 1 1 0 27.97443362 18.01207081 7.50000000 0 0 0
509 1 1 0 29.39426068 17.98991574 7.50000000 0 0 0
510 1 1 0 30.08498761 16.74923189 7.50000000 0 0 0
511 1 1 0 31.50481476 16.72707682 7.50000000 0 0 0
512 1 1 0 32.23391529 17.94560559 7.50000000 0 0 0
513 1 1 0 33.65374235 17.92345053 7.50000000 0 0 0
514 1 1 0 34.34446927 16.68276668 7.50000000 0 0 0
515 1 1 0 35.76429643 16.66061161 7.50000000 0 0 0
516 1 1 0 36.49339696 17.87914038 7.50000000 0 0 0
517 1 1 0 37.91322402 17.85698531 7.50000000 0 0 0
518 1 1 0 38.60395094 16.61630146 7.50000000 0 0 0
519 1 1 0 40.02377810 16.59414639 7.50000000 0 0 0
520 1 1 0 40.75287863 17.81267517 7.50000000 0 0 0
521 1 1 0 42.17270568 17.79052010 7.50000000 0 0 0
522 1 1 0 42.86343261 16.54983625 7.50000000 0 0 0
523 1 1 0 44.28325977 16.52768118 7.50000000 0 0 0
524 1 1 0 45.01236030 17.74620996 7.50000000 0 0 0
525 1 1 0 46.43218735 17.72405489 7.50000000 0 0 0
526 1 1 0 47.12291428 16.48337104 7.50000000 0 0 0
527 1 1 0 48.54274143 16.46121597 7.50000000 0 0 0
528 1 1 0 49.27184196 17.67974474 7.50000000 0 0 0
529 1 1 0 50.69166902 17.65758968 7.50000000 0 0 0
530 1 1 0 51.38239595 16.41690582 7.50000000 0 0 0
531 1 1 0 52.80222310 16.39475075 7.50000000 0 0 0
532 1 1 0 53.53132363 17.61327953 7.50000000 0 0 0
533 1 1 0 54.95115069 17.59112446 7.50000000 0 0 0
534 1 1 0 55.64187761 16.35044061 7.50000000 0 0 0
535 1 1 0 57.06170477 16.32828554 7.50000000 0 0 0
536 1 1 0 57.79080530 17.54681432 7.50000000 0 0 0
537 1 1 0 59.21063236 17.52465925 7.50000000 0 0 0
538 1 1 0 59.90135928 16.28397540 7.50000000 0 0 0
539 1 1 0 61.32118644 16.26182033 7.50000000 0 0 0
540 1 1 0 62.05028697 17.48034911 7.50000000 0 0 0
541 1 1 0 63.47011402 17.45819404 7.50000000 0 0 0
542 1 1 0 64.16084095 16.21751019 7.50000000 0 0 0
543 1 1 0 65.58066811 16.19535512 7.50000000 0 0 0
544 1 1 0 66.30976864 17.41388389 7.50000000 0 0 0
545 1 1 0 67.72959569 17.39172882 7.50000000 0 0 0
546 1 1 0 68.42032262 16.15104497 7.50000000 0 0 0
547 1 1 0 69.84014977 16.12888990 7.50000000 0 0 0
548 1 1 0 70.56925030 17.34741868 7.50000000 0 0 0
549 1 1 0 71.98907736 17.32526361 7.50000000 0 0 0
550 1 1 0 72.67980429 16.08457976 7.50000000 0 0 0
551 1 1 0 74.09963144 16.06242469 7.50000000 0 0 0
552 1 1 0 74.82873197 17.28095347 7.50000000 0 0 0
553 1 1 0 76.24855903 17.25879840 7.50000000 0 0 0
554 1 1 0 76.93928595 16.01811455 7.50000000 0 0 0
555 1 1 0 78.35911311 15.99595948 7.50000000 0 0 0
556 1 1 0 0.30698964 19.67370100 7.50000000 0 0 0
557 1 1 0 1.72681679 19.65154593 7.50000000 0 0 0
558 1 1 0 2.45591732 20.87007471 7.50000000 0 0 0
559 1 1 0 3.87574438 20.84791964 7.50000000 0 0 0
560 1 1 0 4.56647130 19.60723579 7.50000000 0 0 0
561 1 1 0 5.98629846 19.58508072 7.50000000 0 0 0
562 1 1 0 6.71539899 20.80360950 7.50000000 0 0 0
563 1 1 0 8.13522605 20.78145443 7.50000000 0 0 0
564 1 1 0 8.82595297 19.54077058 7.50000000 0 0 0
565 1 1 0 10.24578013 19.51861551 7.50000000 0 0 0
566 1 1 0 10.97488066 20.73714428 7.50000000 0 0 0
567 1 1 0 12.39470771 20.71498922 7.50000000 0 0 0
568 1 1 0 13.08543464 19.47430536 7.50000000 0 0 0
569 1 1 0 14.50526180 19.45215029 7.50000000 0 0 0
570 1 1 0 15.23436233 20.67067907 7.50000000 0 0 0
571 1 1 0 16.65418938 20.64852400 7.50000000 0 0 0
572 1 1 0 17.34491631 19.40784015 7.50000000 0 0 0
573 1 1 0 18.76474346 19.38568508 7.50000000 0 0 0
574 1 1 0 19.49384399 20.60421386 7.50000000 0 0 0
575 1 1 0 20.91367105 20.58205879 7.50000000 0 0 0
576 1 1 0 21.60439797 19.34137494 7.50000000 0 0 0
577 1 1 0 23.02422513 19.31921987 7.50000000 0 0 0
578 1 1 0 23.75332566 20.53774865 7.50000000 0 0 0
579 1 1 0 25.17315272 20.51559358 7.50000000 0 0 0
580 1 1 0 25.86387964 19.27490973 7.50000000 0 0 0
581 1 1 0 27.28370680 19.25275466 7.50000000 0 0 0
582 1 1 0 28.01280733 20.47128343 7.50000000 0 0 0
583 1 1 0 29.43263439 20.44912836 7.50000000 0 0 0
584 1 1 0 30.12336131 19.20844451 7.50000000 0 0 0
585 1 1 0 31.54318847 19.18628944 7.50000000 0 0 0
586 1 1 0 32.27228900 20.40481822 7.50000000 0 0 0
587 1 1 0 33.69211605 20.38266315 7.50000000 0 0 0
588 1 1 0 34.38284298 19.14197930 7.50000000 0 0 0
589 1 1 0 35.80267013 19.11982423 7.50000000 0 0 0
590 1 1 0 36.53177066 20.33835301 7.50000000 0 0 0
591 1 1 0 37.95159772 20.31619794 7.50000000 0 0 0
592 1 1 0 38.64232465 19.07551409 7.50000000 0 0 0
593 1 1 0 40.06215180 19.05335902 7.50000000 0 0 0
594 1 1 0 40.79125233 20.27188779 7.50000000 0 0 0
595 1 1 0 42.21107939 20.24973273 7.50000000 0 0 0