ITEM: TIMESTEP
82
ITEM: NUMBER OF ATOMS
6536
ITEM: BOX BOUNDS pp pp pp
0.0000000000000000e+00 7.0200368299999994e+01
0.0000000000000000e+00 1.2159060500000000e+02
0.0000000000000000e+00 1.8399999999999999e+01
ITEM: ATOMS id type x y z c_csym c_2[1] c_2[2] c_2[3] c_2[4] c_2[5] c_2[6] c_3 
109 1 0.223758 9.82013 2.92033 6.01535 -141081 -160087 7136.64 -34239.5 30514.5 -2169.45 -7.41636 
110 1 0.905917 8.57703 2.91503 6.01249 -166270 -133961 -4603.9 -27986.3 16753.1 -4115.48 -7.41534 
111 1 0.17031 7.3651 2.91004 6.02078 -142669 -158605 3168.74 -20497.4 23390.4 -1722.1 -7.41569 
112 1 0.851411 6.12148 2.90571 6.01774 -162209 -138666 -1665.73 -15367.8 13924.9 -3694.92 -7.41519 
113 1 0.114795 4.91009 2.90177 6.02393 -144870 -156446 979.818 -9526.82 15627.5 -1165.66 -7.41522 
114 1 0.795109 3.66609 2.89882 6.02237 -157724 -143509 -330.431 -6182.27 9433.32 -3158.2 -7.41502 
115 1 0.0577905 2.45507 2.89639 6.02726 -147544 -153706 116.331 -2442.07 7649.84 -569.13 -7.41496 
116 1 0.737653 1.21085 2.89514 6.02777 -153042 -148269 -13.4953 -1341.28 3383.99 -2489.94 -7.41491 
117 1 9.08682e-06 -5.14911e-07 2.89452 6.03039 -150641 -150677 -20.7275 27.209 0.201286 -0.0793613 -7.41488 
209 1 3.05774 9.75661 2.92199 6.01202 -183934 -116210 -4860.06 -34748.6 17088.5 -12399.5 -7.41558 
210 1 2.32339 8.54394 2.91606 6.01438 -156038 -145342 3798.04 -22699.8 26291 -4535.9 -7.41598 
211 1 3.0045 7.30023 2.91205 6.01511 -176350 -124613 -1450.27 -20680.3 15173.8 -11776.1 -7.41544 
212 1 2.26886 6.08826 2.90682 6.01828 -154086 -147325 1109.53 -9908.66 18775.9 -5210.97 -7.41543 
213 1 2.9492 4.84422 2.90405 6.01934 -168140 -133133 129.506 -9623.5 11659 -10899.6 -7.41524 
214 1 2.21255 3.6328 2.90001 6.02193 -152479 -148860 -15.1905 -667.497 10827.5 -5712.33 -7.41509 
215 1 2.89244 2.38856 2.89882 6.02431 -159444 -141958 386.925 -2626.76 6524.81 -9752.27 -7.41507 
216 1 2.15509 1.17753 2.89639 6.02526 -151151 -150078 -124.56 4084.87 2933.52 -6077.47 -7.41494 
308 1 4.47515 9.7241 2.92421 6.00516 -172465 -128627 2613.58 -22923.5 28055 -5998.35 -7.41623 
309 1 5.1563 8.4803 2.92068 6.01171 -192673 -107954 481.568 -23588.4 16128.6 -19645.7 -7.41589 
310 1 4.4219 7.26757 2.91456 6.0102 -166580 -134550 -207.832 -8112.04 20896.6 -7886.88 -7.41565 
311 1 5.10231 6.02348 2.91208 6.01635 -181362 -119911 1975.73 -10615.9 13700.7 -18555.2 -7.41567 
312 1 4.3666 4.81147 2.9068 6.01578 -161065 -140257 -1218.93 3414.51 13143.8 -9517.79 -7.41527 
313 1 5.04656 3.56723 2.90573 6.02122 -169398 -132237 1839.73 -1362.61 9653.2 -17077.6 -7.41543 
314 1 4.30986 2.35577 2.90176 6.0199 -155733 -145595 -915.498 10571.7 5234.2 -10895.3 -7.41509 
315 1 4.98972 1.11155 2.90235 6.02183 -156753 -144788 696.57 3224.4 4077.93 -15191.8 -7.41523 
407 1 7.30661 9.66214 2.93076 6.00462 -210135 -90140.3 4503.05 -24422.9 16705.9 -26888.3 -7.41655 
408 1 6.57364 8.44853 2.92417 6.00187 -181221 -119048 -3458.31 -4848.34 22004.2 -9221.3 -7.41581 
409 1 7.25417 7.20442 2.92209 6.01055 -196317 -104466 5663.71 -9394.65 15444.2 -25692.9 -7.41631 
410 1 6.51966 5.99164 2.916 6.00847 -172203 -128198 -4070.71 9214.55 14547.6 -11893.3 -7.41543 
411 1 7.19974 4.74741 2.91511 6.01712 -181569 -119825 4878.4 2095.02 12602.5 -24005.1 -7.416 
412 1 6.46394 3.53535 2.90999 6.01453 -163475 -137482 -3046.3 18905.4 6771.04 -14245.9 -7.41526 
413 1 7.1439 2.29116 2.91055 6.01852 -166007 -135479 2713.96 9168.14 8152.1 -21827.8 -7.41568 
414 1 6.40714 1.07965 2.9068 6.01737 -154638 -146530 -1003.59 23692.6 -819.966 -16274.9 -7.41527 
506 1 8.72389 9.63152 2.93482 5.99408 -196926 -102098 -8889.91 -539.754 22196.5 -9404.57 -7.41586 
507 1 9.40462 8.38742 2.93321 6.00294 -211821 -88528 11444 -6592.74 16799.1 -31957.6 -7.41714 
508 1 8.67147 7.17376 2.92672 6.00114 -185222 -114189 -8940.38 16022.9 15103.2 -12952.9 -7.41552 
509 1 9.35175 5.92958 2.92606 6.01058 -195405 -105787 9859.73 7422.93 15247.3 -30171.5 -7.41677 
510 1 8.61708 4.71676 2.92021 6.00907 -173493 -126526 -7003.68 28583 7548.28 -16150.3 -7.41539 
511 1 9.2972 3.47263 2.92077 6.01528 -177757 -123987 6505.45 17070.2 12047.3 -27830.2 -7.41634 
512 1 8.56128 2.26052 2.916 6.01375 -161755 -138908 -3665.51 35987.5 6.18111 -18983.8 -7.41544 
513 1 9.24159 1.0166 2.91794 6.00982 -158984 -142394 2083.8 21541.8 7271.2 -24954.4 -7.41594 
3282 2 0.51151 8.60887 6.48489 6.01711 -137007 -164169 4878.38 27828.7 27089.9 1087.61 -7.416 
3283 2 0.566027 6.15407 6.49427 6.02114 -140218 -161158 1840.34 15330 19616.6 178.255 -7.41543 
3284 2 0.62234 3.69921 6.50118 6.02434 -144066 -157365 386.769 6222.03 11708.1 -774.307 -7.41507 
3285 2 0.679799 1.24425 6.50486 6.02772 -148469 -153050 -13.6917 1312.9 3848.56 -1685.85 -7.41491 
3286 2 6.06806e-06 3.32854e-06 6.50548 6.03037 -150725 -150781 -20.9374 -33.2843 0.208008 -0.140537 -7.41488 
3377 2 2.61213 9.8845 6.47791 6.01058 -119412 -181456 5663.69 34929.2 29973.5 -528.868 -7.41631 
3378 2 1.92909 8.64201 6.484 6.00849 -147200 -153238 -4070.48 23628.9 17573.8 -6652.01 -7.41543 
3379 2 2.66534 7.43047 6.48792 6.01637 -125981 -175089 1976.18 21310.8 22919.7 -2587.76 -7.41567 
3380 2 1.98355 6.18732 6.4932 6.01578 -148302 -152820 -1218.68 10741.5 14814.6 -6624 -7.41527 
3381 2 2.72061 4.97619 6.49595 6.01929 -133585 -167709 129.654 10307.6 15269.3 -4647.13 -7.41524 
3382 2 2.03982 3.73252 6.49999 6.022 -149216 -152120 -15.3974 1211.35 10360.9 -6520.08 -7.41509 
3383 2 2.77737 2.52162 6.50118 6.02241 -141749 -159546 -330.46 3030.13 7452.25 -6590.16 -7.41502 
3384 2 2.09725 1.27758 6.50361 6.02725 -150150 -151227 116.306 -3989.59 4318.13 -6339.93 -7.41496 
3385 2 2.83491 0.0667162 6.503 6.02509 -150382 -150719 -10.1159 356.176 -1.5703 -8312.7 -7.41497 
3476 2 4.02982 9.9172 6.47583 6.00197 -130565 -169828 -3458.62 24468.2 18988.3 -14445.8 -7.41581 
3477 2 4.76601 8.70563 6.47932 6.01176 -108691 -191862 481.456 24898.5 25077.7 -4144.98 -7.41589 
3478 2 4.08296 7.46326 6.48544 6.01023 -135460 -165521 -207.826 9828.91 17278.2 -14154 -7.41565 
3479 2 4.81994 6.25208 6.48795 6.01515 -119569 -181212 -1450.22 12104.4 17785.2 -7252.94 -7.41544 
3480 2 4.13816 5.00902 6.49318 6.01829 -140454 -160927 1109.45 -1968.72 13900.5 -13654.8 -7.41543 
3481 2 4.87565 3.79808 6.49429 6.01774 -131382 -169682 -1665.99 2541 10163 -10211.7 -7.41519 
3482 2 4.19486 2.55445 6.49823 6.02395 -145318 -156033 979.648 -9799.38 8823.52 -12950.5 -7.41522 
3483 2 4.93249 1.34355 6.49766 6.01921 -143884 -157328 -721.7 -2793.86 2694.18 -12890.2 -7.41513 
3484 2 4.25236 0.0995313 6.49999 6.02191 -150364 -150807 59.3716 -12772.2 2284.42 -12034.6 -7.41509 
3575 2 6.86826 9.97911 6.46932 6.00809 -89417.2 -210311 -3064.65 26505.4 26151.1 -4595.4 -7.41603 
3576 2 6.18375 8.73764 6.47579 6.00523 -119735 -181342 2613.54 7507.59 19222.4 -21297.4 -7.41622 
3577 2 6.9206 7.52638 6.47801 6.01205 -103116 -196993 -4860.1 12004.3 19282.5 -8599.55 -7.41558 
3578 2 6.23758 6.28408 6.48394 6.01439 -128319 -173037 3798.18 -6613.37 17073.1 -20501.4 -7.41598 
3579 2 6.97496 5.07306 6.48497 6.01249 -117894 -182488 -4603.91 105.967 11940.6 -12450.9 -7.41534 
3580 2 6.2932 3.83004 6.48996 6.02074 -136952 -164391 3168.94 -17142.8 13186.9 -19395.8 -7.41569 
3581 2 7.03077 2.61906 6.48949 6.0131 -133569 -167143 -2798.1 -7920.66 4578.52 -16008.5 -7.4153 
3582 2 6.34997 1.37548 6.49318 6.01881 -145766 -155493 1325.19 -23063.9 7651.3 -17988.6 -7.41543 
3583 2 7.08733 0.164328 6.49105 6.01464 -149824 -151243 -105.806 -11121.7 -2290.11 -19156.2 -7.41543 
3674 2 8.28614 10.0101 6.46508 6.00086 -102181 -199050 7537.45 4390.38 20486.9 -27741 -7.41699 
3675 2 9.0228 8.7987 6.46702 6.00884 -85385 -213775 -10371 10467.5 19853.2 -8854.86 -7.41563 
3676 2 8.33836 7.55728 6.47316 6.01097 -113934 -187434 8425.47 -12092.1 19671.8 -26745.1 -7.41672 
3677 2 9.07556 6.34612 6.47411 6.00778 -102388 -196918 -9524.5 -3777.59 12852.1 -13411.5 -7.41543 
3678 2 8.3926 5.10385 6.47967 6.01536 -125749 -175567 7137.56 -25377.4 17136.7 -25342.1 -7.41636 
3679 2 9.13006 3.89275 6.47933 6.00607 -120707 -179132 -6722.15 -14485.9 5665.88 -17686.5 -7.41543 
3680 2 8.44831 2.64976 6.48393 6.01488 -137692 -163356 4206.13 -34243.2 12833.7 -23574.1 -7.41598 
3681 2 9.18563 1.43852 6.4821 6.00672 -139803 -160684 -2598.65 -20619.8 -1213.69 -21560.4 -7.41561 
3682 2 8.50478 0.194977 6.48544 6.01474 -149749 -150978 339.104 -37927.8 6972.99 -21455.3 -7.41565 
605 1 11.5536 9.57276 2.94463 5.99557 -226652 -72976.6 19328.5 -2611.91 17669.8 -37031.7 -7.41814 
606 1 10.8219 8.35816 2.93809 5.99459 -198526 -99077.2 -15942 23278.7 14938 -12912.5 -7.4155 
607 1 11.5024 7.11407 2.9377 6.00389 -209241 -91414.1 16919.8 13868.4 17471.5 -35275.8 -7.41772 
608 1 10.769 5.9004 2.93152 6.00283 -184971 -113756 -13039.3 38696.8 7666.9 -16780.1 -7.41542 
609 1 11.4494 4.65636 2.93209 6.01092 -190384 -111044 12333.4 26291.6 15616.3 -32894.1 -7.41719 
610 1 10.7145 3.44352 2.9267 6.00969 -171078 -128675 -8315.47 49128.7 246.755 -20268.3 -7.41553 
611 1 11.395 2.19968 2.92842 6.00549 -170227 -131171 6239.79 33669.9 12059.2 -29950.9 -7.41664 
612 1 10.659 0.987505 2.92417 6.01098 -156677 -143547 -2498.12 53845.4 -6792.8 -23378.6 -7.41582 
704 1 12.9708 9.54499 2.94939 5.9891 -211334 -84292.6 -24927.3 30182.5 14184.2 -12005.8 -7.41534 
705 1 13.6518 8.30105 2.9493 5.99762 -221943 -77986.6 25944.7 20788.9 19145.4 -39041.9 -7.41881 
706 1 12.9197 7.08649 2.9431 5.9975 -196426 -100494 -21138.9 48514.3 7268.06 -16356.8 -7.41532 
707 1 13.6004 5.8426 2.94371 6.00484 -203016 -98059.2 20219 36094.8 18702.2 -36755.5 -7.41821 
708 1 12.8667 4.62894 2.93805 6.00614 -181220 -117151 -15086 62137.5 32.9905 -20326.6 -7.41552 
709 1 13.5475 3.38524 2.93956 6.00181 -182215 -119054 12525.8 46638.3 16473.2 -33876.1 -7.41751 
710 1 12.8124 2.17235 2.93479 6.00806 -165476 -133841 -7475.6 70072.3 -7007.94 -23915.8 -7.41589 
711 1 13.4935 0.928974 2.93732 5.99578 -160167 -140496 3678.29 51238.2 12524.6 -30476.5 -7.41682 
803 1 15.7998 9.49055 2.96029 5.99224 -232372 -66257.1 36574.7 27404.2 20143.5 -41235.5 -7.42 
804 1 15.069 8.2751 2.95429 5.99329 -206798 -87988.2 -31037.8 57336.8 6486.08 -15095.5 -7.41511 
805 1 15.7502 7.03144 2.95498 5.99931 -214160 -86405.3 29931.2 45741.4 21143.5 -39176.5 -7.41934 
806 1 15.0177 5.81694 2.9493 6.00219 -191277 -105595 -23847.2 74203.8 -488.889 -19372 -7.41537 
807 1 15.6988 4.57342 2.95064 5.99747 -193836 -107247 20847.3 59563 20320.9 -36492.7 -7.41854 
808 1 14.9648 3.35976 2.94565 6.00616 -174880 -123167 -14613.7 85537.2 -7464.61 -23271.1 -7.41583 
809 1 15.6462 2.11653 2.94778 5.99148 -171900 -128758 10126.8 67500.7 17623.5 -33287.8 -7.41768 
810 1 14.9109 0.903581 2.94377 5.99982 -157870 -141023 -4183.24 90411.1 -13891.3 -26813.4 -7.41646 
902 1 17.2169 9.4662 2.96462 5.9906 -215052 -77031 -42268 64347.8 5437.78 -13206.6 -7.41477 
903 1 17.8987 8.22283 2.96541 5.99468 -222757 -76695.8 41015.3 54359.3 22798.1 -39984.4 -7.42055 
904 1 17.1674 7.0075 2.95991 5.99906 -199912 -94998.7 -34233.2 84465.3 -1185.94 -17611.1 -7.4151 
905 1 17.849 5.76424 2.96112 5.99294 -203834 -96935.2 30872.7 71521.5 23417.1 -37612 -7.41966 
906 1 17.1161 4.54981 2.95611 6.00528 -183850 -113029 -23675.7 99360.4 -8013.06 -21654.3 -7.41564 
907 1 17.7978 3.30678 2.9579 5.98809 -183023 -117832 18597.2 83097.5 22064.6 -34715.6 -7.41867 
908 1 17.0635 2.0931 2.9537 5.99628 -166993 -130949 -11419.6 107746 -14510.4 -25348 -7.41635 
909 1 17.7457 0.85043 2.95616 5.98215 -160713 -139145 5108.81 87905.8 18827.9 -31378.8 -7.41767 
1001 1 20.0462 9.4166 2.97469 5.99135 -228070 -69886.2 52877.3 61187.8 23579 -39125 -7.42178 
1002 1 19.3159 8.20052 2.96949 5.99746 -206141 -86397.3 -45710 92183.7 -1950.94 -15259.3 -7.41473 
1003 1 19.9982 6.95759 2.97061 5.98941 -211141 -88812.3 42077.1 81766.8 25617 -37139.4 -7.42083 
1004 1 19.2663 5.7424 2.96574 6.00202 -191157 -103969 -34219.3 110644 -8529.92 -19279.9 -7.41532 
1005 1 19.9485 4.49963 2.96723 5.98446 -192243 -108344 28673.4 97011.8 25656.5 -34640.1 -7.41975 
1006 1 19.2151 3.28525 2.96301 5.99355 -175272 -121507 -20535.9 122840 -15007.1 -22968.1 -7.4161 
1007 1 19.8976 2.04276 2.96499 5.97856 -171573 -128364 13558.4 105640 23660.3 -31719.4 -7.4186 
1008 1 19.1631 0.829045 2.96167 5.98572 -158560 -139086 -5591.93 127843 -20820.7 -26348.3 -7.41705 
3773 2 11.1266 10.0688 6.45578 6.006 -67704.3 -230158 -17987.5 8028.67 19604.9 -8250 -7.41556 
3774 2 10.4407 8.82831 6.4617 6.00654 -98322 -202978 15142.8 -17663.2 21537.7 -32109.9 -7.41764 
3775 2 11.1776 7.61695 6.4626 6.00215 -86206.7 -211696 -16549.8 -8438.97 13009.2 -13308.3 -7.4154 
3776 2 10.4933 6.37552 6.46826 6.00901 -112646 -188305 13141.1 -33699.1 20459.7 -30521.8 -7.41722 
3777 2 11.2306 5.16424 6.4681 5.99937 -106297 -192142 -12739.6 -21961.7 6056.6 -18101.9 -7.41546 
3778 2 10.5477 3.92198 6.47313 6.0079 -127371 -173481 9060.93 -45637.2 17555.2 -28510.3 -7.41673 
3779 2 11.2849 2.7106 6.47167 5.99886 -127528 -171999 -7151.82 -31159.4 -779.094 -22519.8 -7.41572 
3780 2 10.6031 1.46765 6.47577 6.00933 -142104 -158374 3579.46 -52626.3 12893.4 -26124 -7.41624 
3781 2 11.34 0.255961 6.47289 6.00091 -149038 -151488 -544.403 -35314.1 -6984.29 -26483.5 -7.41613 
3872 2 12.5446 10.097 6.45029 6.00189 -82829.5 -218230 23848.9 -22652.1 22542.6 -36324 -7.4187 
3873 2 13.2812 8.8854 6.45117 5.99745 -70605.5 -225532 -25539.7 -13314.2 12528.6 -12372.7 -7.41525 
3874 2 12.5955 7.64484 6.45654 6.00272 -98990.9 -201437 21193.8 -41427.3 22981.7 -34680 -7.41825 
3875 2 13.3325 6.43333 6.45658 5.9935 -91547.6 -204845 -20831.6 -29611 5879.07 -17487.8 -7.41537 
3876 2 12.6483 5.19186 6.46164 6.00062 -115632 -184412 16024 -56513.7 21585 -32550.4 -7.41766 
3877 2 13.3853 3.98027 6.4606 5.99169 -114161 -183629 -13879.9 -42098.2 -851.613 -22251.7 -7.4157 
3878 2 12.7025 2.73802 6.46503 6.00108 -132483 -167444 8973.7 -66897.3 18292.2 -30023.3 -7.41702 
3879 2 13.4392 1.52618 6.46272 5.99241 -137285 -162090 -5424.83 -49576.3 -7161.56 -26594 -7.4162 
3880 2 12.7574 0.283293 6.46627 6.00422 -149173 -150642 845.312 -71567.9 13295.8 -27143.1 -7.41641 
3971 2 15.3864 10.1514 6.4404 5.99408 -56932.2 -237184 -36121 -17944 11529.2 -10819.5 -7.41498 
3972 2 14.6992 8.91175 6.44517 5.99702 -85965.7 -213840 31056.9 -47915.4 24555.5 -37567 -7.4194 
3973 2 15.4358 7.69992 6.44545 5.98886 -77974 -216271 -30732.2 -36858.2 5263.09 -16065.9 -7.41515 
3974 2 14.7503 6.45926 6.45018 5.99379 -103759 -195342 24975.1 -66096.5 24724.5 -35452.8 -7.41875 
3975 2 15.487 5.24741 6.44959 5.98566 -101006 -194701 -22637.5 -52635.3 -1284.05 -20989 -7.41555 
3976 2 14.803 4.00589 6.45398 5.99303 -122100 -177045 16532.3 -80006.7 22920.2 -32913.5 -7.41798 
3977 2 15.5396 2.79386 6.45231 5.98488 -124852 -172782 -12548.7 -63667.7 -7633.82 -25518.3 -7.41613 
3978 2 14.8568 1.55163 6.45609 5.99501 -140246 -159005 6513.13 -88332 19205.4 -30024.9 -7.41719 
3979 2 15.5929 0.339229 6.45324 5.98675 -148811 -150776 -1318.99 -68777.7 -13255.3 -29622.8 -7.41686 
4070 2 16.8045 10.1763 6.43465 5.99238 -74670.3 -224023 42269.6 -52610 25079.3 -38985.4 -7.42063 
4071 2 17.5405 8.96407 6.43518 5.98589 -66293 -225122 -41973.1 -43100.7 4333.88 -14045.2 -7.41481 
4072 2 16.8537 7.72419 6.43933 5.98791 -92913.5 -204954 35555.3 -73782.4 26812.6 -37005.1 -7.41993 
4073 2 17.59 6.51201 6.4392 5.98118 -88914.2 -203888 -33054.6 -62048.6 -1939.87 -18951 -7.41525 
4074 2 16.9048 5.27123 6.44325 5.98575 -111867 -185886 26011.6 -91168.1 26562.3 -34577.9 -7.41907 
4075 2 17.6411 4.05893 6.44224 5.97879 -112904 -182301 -21659.7 -76786.7 -8238.4 -23492.6 -7.41591 
4076 2 16.9572 2.81739 6.44594 5.98632 -130800 -167349 14391.8 -103268 24261.6 -31799.9 -7.41814 
4077 2 17.6932 1.6048 6.44387 5.97904 -137234 -160696 -8628.98 -85698.3 -14050.6 -27636.8 -7.41673 
4078 2 17.0103 0.362624 6.44701 5.98984 -149380 -149059 1593.7 -109001 20106.6 -28721.6 -7.41721 
4170 2 18.9585 8.98678 6.42947 5.98342 -83799.2 -211950 47220.8 -78918.4 27752.1 -37077 -7.42117 
4171 2 19.6943 7.7742 6.42981 5.97865 -79327.3 -210189 -44597.7 -69753.5 -2690 -16354.6 -7.41485 
4172 2 19.0079 6.53411 6.43331 5.97979 -102758 -193080 36954.7 -99670.5 29058.2 -34860.9 -7.42025 
4173 2 19.7438 5.32148 6.43295 5.97463 -102554 -189831 -32307.5 -88091.7 -8836.08 -20748.1 -7.41555 
4174 2 19.0588 4.08061 6.43632 5.97878 -122011 -174753 24129 -115642 28251.6 -32297.4 -7.4192 
4175 2 19.7946 2.86777 6.43506 5.97311 -126315 -169268 -17897.7 -100918 -14742.8 -24774.7 -7.41644 
4176 2 19.1107 1.62623 6.43809 5.98073 -140847 -156734 9625 -125331 25400.1 -29452.7 -7.41811 
4177 2 19.8461 0.413034 6.4358 5.97441 -149613 -148744 -2290.4 -107002 -19868.7 -28428.5 -7.41747 
1100 1 21.4634 9.39577 2.97783 5.99764 -209148 -80250.2 -57662.9 96745.1 -2694.72 -12543.8 -7.41428 
1101 1 22.1464 8.15322 2.97891 5.987 -214863 -83559.3 53852 89386.4 26846 -35109.7 -7.42202 
1102 1 21.4154 6.93736 2.97427 5.99933 -195865 -97045.3 -45671.8 118654 -8926.94 -16379.6 -7.4149 
1103 1 22.0983 5.69491 2.97551 5.98087 -198654 -101188 39793.5 108355 28266.2 -33055.7 -7.42086 
1104 1 21.3658 4.47986 2.97138 5.99166 -181759 -113698 -31032.1 134815 -15279 -19911.5 -7.41573 
1105 1 22.0487 3.23762 2.97294 5.97593 -180497 -119533 23548.5 121066 27572.5 -30606.8 -7.4196 
1106 1 21.3149 2.02326 2.96959 5.98254 -166560 -130033 -14638.5 143687 -21217.3 -23156.4 -7.41674 
1107 1 21.9982 0.781324 2.97157 5.97079 -160666 -137976 6079.2 126209 24884.7 -27823.7 -7.41832 
1199 1 24.2938 9.3508 2.98593 5.98584 -214003 -81674.4 65595.9 93818.4 27105.3 -31670.4 -7.42317 
1200 1 23.5636 8.13438 2.98156 5.99768 -197156 -92938.2 -57426.2 122954 -9142.08 -13195 -7.41442 
1201 1 24.2472 6.89232 2.98262 5.97861 -201266 -97163.9 51356.4 116460 29839.8 -30073.7 -7.42198 
1202 1 23.5155 5.67668 2.97864 5.99017 -185429 -108037 -42321.5 142794 -15265.9 -16431.8 -7.41528 
1203 1 24.199 4.43473 2.97985 5.97341 -186356 -113180 34500.1 133014 30457.3 -28118.4 -7.42064 
1204 1 23.466 3.21979 2.97654 5.98038 -172645 -123091 -25003.5 155785 -21223.8 -19411.9 -7.41632 
1205 1 24.1496 1.97806 2.97803 5.96833 -169617 -129388 15946.6 142515 28950.1 -25866.4 -7.41925 
1206 1 23.4156 0.763686 2.97558 5.97291 -158728 -137757 -6427.48 161153 -26458.7 -22160.6 -7.41753 
1298 1 25.7111 9.33308 2.98761 5.99716 -194104 -92238.7 -68917.4 122789 -9129.76 -9960.18 -7.41392 
1299 1 26.3955 8.09147 2.98856 5.97777 -199361 -96645.4 62801.2 120491 30393 -25884.9 -7.42305 
1300 1 25.6645 6.87536 2.98475 5.98845 -185346 -105408 -53820.3 146293 -14938.6 -12778.9 -7.41476 
1301 1 26.3486 5.63376 2.98568 5.97136 -188321 -109698 45834.9 141032 32282.7 -24417.8 -7.42168 
1302 1 25.6163 4.41832 2.98243 5.97927 -175541 -118272 -36101.2 163460 -20812 -15380.1 -7.41581 
1303 1 26.3003 3.17684 2.98351 5.96558 -175191 -123414 26734 154658 31989 -22694.2 -7.42021 
1304 1 25.5669 1.96197 2.98104 5.97074 -164730 -131125 -16664.5 173052 -26231.9 -17783.3 -7.41704 
1305 1 26.2512 0.720702 2.98235 5.96264 -160372 -137348 6440.59 160505 29664.7 -20747.4 -7.41873 
1397 1 28.5433 9.29189 2.99334 5.97853 -192912 -99938.6 73633.9 120254 29994.3 -20705.4 -7.42406 
1398 1 27.8128 8.07544 2.98972 5.98812 -181049 -106213 -65004.2 144954 -14281.6 -9179.73 -7.41424 
1399 1 28.4977 6.83426 2.99045 5.97014 -185820 -110033 57031.7 144361 33078 -19708.1 -7.42268 
1400 1 27.7659 5.61844 2.98727 5.97908 -174755 -116726 -47374.7 165990 -19981.4 -11306.2 -7.41526 
1401 1 28.4505 4.37726 2.98802 5.96372 -176865 -120614 37887.8 162070 33990.7 -18493.1 -7.42117 
1402 1 27.7176 3.16199 2.98553 5.96977 -167289 -126999 -27607 179793 -25483.2 -13274.3 -7.41648 
1403 1 28.4022 1.9209 2.98641 5.96008 -166091 -131454 17111.5 172304 32755.3 -17097.6 -7.41962 
1404 1 27.6685 0.706059 2.9848 5.96322 -158546 -137018 -6625.13 185580 -30242.1 -15107.2 -7.41786 
1496 1 29.9607 9.27646 2.99363 5.98914 -172343 -110524 -75418.4 138694 -13281.4 -5831.27 -7.41373 
1498 1 29.915 6.81967 2.99112 5.97904 -169606 -118495 -58335.3 163229 -18738.3 -7400.03 -7.4147 
1500 1 29.8678 4.36328 2.98911 5.96982 -165974 -126096 -38724.3 181215 -24230.6 -8857.01 -7.41589 
1502 1 29.8195 1.90727 2.98793 5.96255 -161266 -133308 -17470.2 191408 -29254.6 -10220 -7.41724 
4269 2 21.7997 9.03422 6.42163 5.97833 -72957.2 -212876 -56656 -75190.3 -3419.24 -13424.7 -7.41438 
4270 2 21.1122 7.79476 6.42446 5.97557 -96001 -197713 48771.2 -105072 30333.2 -33710.9 -7.42147 
4271 2 21.8476 6.58172 6.42471 5.97261 -94619.3 -194359 -43922.2 -96872 -9315.73 -17524 -7.4151 
4272 2 21.1616 5.34146 6.4276 5.97286 -114718 -180200 35202 -124646 31035.7 -31436.9 -7.42034 
4273 2 21.8971 4.12831 6.42711 5.96925 -117217 -175537 -28615.5 -113547 -15206.3 -21294.6 -7.41602 
4274 2 21.2122 2.88737 6.42984 5.97302 -133086 -163083 19468.1 -138351 29580.1 -28903.8 -7.41912 
4275 2 21.9475 1.67397 6.42843 5.96862 -139547 -156651 -11631.7 -123696 -20583.5 -24723.3 -7.41711 
4276 2 21.2635 0.432473 6.43083 5.97624 -150487 -146430 2526.03 -144941 26166.9 -26145 -7.41789 
4368 2 23.2177 9.05346 6.41684 5.9734 -92156.4 -198757 60836.6 -106878 30405 -31190.7 -7.42267 
4369 2 23.9525 7.83995 6.41767 5.97296 -89893.4 -195145 -55900.2 -102580 -9588.44 -14064.4 -7.41458 
4370 2 23.2654 6.60022 6.41996 5.96896 -109718 -182857 47000.2 -129836 32566.9 -29245.2 -7.4215 
4371 2 24.0005 5.3867 6.42021 5.96779 -110661 -178836 -40195.3 -122970 -15357.4 -17457.9 -7.4155 
4372 2 23.3147 4.14629 6.42251 5.96723 -127151 -167317 30554.9 -147496 32542 -27072.1 -7.4202 
4373 2 24.0497 2.93263 6.42196 5.96517 -131410 -162212 -22363.4 -137205 -20871.9 -20548.7 -7.41662 
4374 2 23.3649 1.69166 6.42408 5.96849 -143655 -152314 12420.8 -158234 30398.5 -24708.5 -7.41884 
4375 2 24.0996 0.477714 6.4226 5.9653 -151311 -145786 -3331.65 -143971 -25592.4 -23345.1 -7.41788 
4467 2 26.0582 9.09659 6.41184 5.97514 -88972.5 -191857 -67672.3 -104983 -9588.21 -10600.6 -7.41404 
4468 2 25.3703 7.85727 6.41351 5.96738 -107735 -182176 58924.4 -130996 32885 -25838.8 -7.42265 
4469 2 26.1047 6.6433 6.41442 5.96881 -107294 -178481 -52054.4 -128659 -15144.1 -13516 -7.41494 
4470 2 25.4181 5.40334 6.41622 5.9637 -123651 -168752 42279.8 -152261 34266.3 -24046 -7.4213 
4471 2 26.1528 4.18934 6.41646 5.96422 -125875 -164792 -33893.9 -146770 -20685.1 -16176.4 -7.41604 
4472 2 25.4672 2.94883 6.41822 5.9629 -138711 -155889 23499 -167089 33446.5 -22101.6 -7.41986 
4473 2 26.2018 1.73468 6.41762 5.96194 -143791 -151040 -14085.8 -157759 -25713.6 -18580.5 -7.41732 
4474 2 25.517 0.49373 6.41919 5.96523 -152532 -143427 3526.56 -174260 30627.4 -20016.5 -7.41841 
4566 2 27.4761 9.11305 6.40822 5.96825 -109254 -177878 70435.5 -128049 32090.4 -21385 -7.42373 
4567 2 28.2096 7.89857 6.40971 5.97021 -107636 -174365 -63656.3 -130394 -14537.4 -9694.53 -7.41436 
4568 2 27.5224 6.65893 6.41099 5.96268 -123124 -166945 54073.1 -152563 34804.7 -19970.8 -7.42238 
4569 2 28.2565 5.44454 6.41195 5.96429 -123444 -163874 -45662.6 -152095 -20007.4 -11846.2 -7.41543 
4570 2 27.5703 4.20438 6.4133 5.95976 -136314 -156634 35165.4 -171184 35314.3 -18448 -7.42089 
4571 2 28.3046 2.98997 6.41352 5.96033 -138907 -153329 -25597.1 -167117 -25229.5 -13788.7 -7.41668 
4572 2 27.6192 1.74939 6.41479 5.95989 -148181 -146688 14618.3 -182661 33686.5 -16827.6 -7.41935 
4573 2 28.3533 0.534834 6.41411 5.95884 -153216 -142363 -4364.46 -174120 -29669.4 -15533.2 -7.4181 
4666 2 29.6274 7.91354 6.40679 5.96425 -126098 -161845 65425.7 -148230 34249.9 -15012.1 -7.4234 
4668 2 29.6741 5.45877 6.40932 5.95929 -136892 -154275 46879.1 -170377 36053 -13899.2 -7.4219 
4670 2 29.722 3.00373 6.41122 5.95716 -146503 -147258 26267.1 -185788 35652 -12730.5 -7.42032 
4672 2 29.7707 0.548386 6.41219 5.95821 -154675 -140346 4506.29 -192994 33245.2 -11506.7 -7.41874 
1497 1 30.6464 8.03573 2.99421 5.97016 -178822 -113956 67625.1 142778 32913.9 -14187.8 -7.42362 
1499 1 30.6003 5.57883 2.9916 5.96275 -174156 -121270 48919.2 164381 34991.7 -13455.6 -7.42211 
1501 1 30.5528 3.12242 2.98962 5.95849 -167746 -128947 28151.4 178893 34870 -12580 -7.42051 
1503 1 30.5045 0.666485 2.98859 5.9572 -159288 -136825 6241.62 185245 32723.4 -11579.1 -7.41892 
1595 1 32.795 9.23765 2.99701 5.9712 -167633 -121750 77196.3 136515 31879.2 -8032.49 -7.42446 
1596 1 32.0639 8.02149 2.99404 5.97928 -160212 -123908 -68543.9 155236 -17083.3 -3839.11 -7.41417 
1597 1 32.7499 6.78104 2.99431 5.96307 -167132 -125649 59377.2 161464 35055.9 -7753.61 -7.42299 
1598 1 32.0176 5.56534 2.99182 5.96983 -160461 -128594 -49551.9 177020 -22490.8 -4718.24 -7.41529 
1599 1 32.7032 4.32475 2.99203 5.95783 -164983 -129947 39094.1 180019 36043.5 -7365.77 -7.42139 
1600 1 31.9701 3.10943 2.99026 5.96286 -159782 -132936 -28500.8 191555 -27685.2 -5549.04 -7.41659 
1601 1 32.6554 1.86879 2.99053 5.95589 -161187 -134513 17224.6 190849 34889.3 -6889.5 -7.41975 
1602 1 31.9218 0.653707 2.98963 5.95791 -157572 -136946 -6290.93 197786 -32130.5 -6344.48 -7.41806 
1694 1 34.2126 9.22338 2.99606 5.98036 -146825 -132770 -77588.6 142369 -15000.6 -779.577 -7.41368 
1695 1 34.8994 7.98336 2.99616 5.96454 -155978 -133626 68833 153449 34257.9 -1538.24 -7.42378 
1696 1 34.1673 6.76765 2.99372 5.97051 -150785 -134648 -59655.9 167416 -20267.4 -1015.85 -7.41471 
1697 1 34.8534 5.52737 2.99366 5.95853 -158197 -134588 49491.2 175596 36325.6 -1603.95 -7.42222 
1698 1 34.1205 4.31199 2.99183 5.96308 -154143 -136117 -39267.2 186003 -25550.7 -1255.98 -7.41595 
1699 1 34.8061 3.07154 2.99176 5.95559 -158798 -135889 28128.8 190799 36193.3 -1614.01 -7.42057 
1700 1 34.0727 1.85638 2.99074 5.95847 -156391 -137130 -17284.6 196748 -30356.3 -1507.19 -7.41736 
1701 1 34.7581 0.615843 2.99077 5.95604 -157592 -137349 5645.79 197612 34050 -1580.11 -7.41894 
1793 1 37.0491 9.18525 2.99716 5.96729 -141136 -145404 76829 140719 32680.4 5049.42 -7.42443 
1794 1 36.3169 7.96967 2.9948 5.97221 -137269 -144428 -68602.6 152660 -17545.5 2104.53 -7.4142 
1795 1 37.0037 6.72974 2.99451 5.96046 -147229 -142894 58896.8 165958 35771.5 4570.55 -7.42295 
1796 1 36.2709 5.51444 2.99266 5.96426 -144477 -142841 -49328.2 174819 -22850.8 2515.4 -7.41533 
1797 1 36.9569 4.27421 2.99228 5.95663 -152188 -140880 38507.4 184939 36666.2 4112.01 -7.42135 
1798 1 36.2235 3.05911 2.99115 5.95897 -150948 -140818 -28030.8 189862 -27929.3 2862.52 -7.41666 
1799 1 36.909 1.81866 2.99082 5.95573 -155543 -139017 16540.2 196288 35424.3 3663.89 -7.4197 
1800 1 36.1754 0.603627 2.99057 5.95669 -156012 -138419 -5596.24 196504 -32248.7 3145.53 -7.41815 
1892 1 38.4667 9.17087 2.99508 5.9749 -120262 -157754 -75914.9 133487 -14295.6 4501.71 -7.41376 
1893 1 39.1543 7.93133 2.99456 5.96364 -133051 -154779 66816.6 151472 34443.2 11013.6 -7.42356 
1894 1 38.4213 6.71624 2.99274 5.96654 -130911 -153138 -58227.2 158467 -19569.6 5623.46 -7.41478 
1895 1 39.1079 5.47627 2.99206 5.95894 -141810 -149303 47890.3 173766 36340.7 10153 -7.42203 
1896 1 38.3744 4.26134 2.99087 5.96064 -141375 -148049 -38080.5 177316 -24843 6627.34 -7.416 
1897 1 39.0602 3.02103 2.99017 5.95637 -149361 -144249 26918.2 189177 36035.3 9266.23 -7.42042 
1898 1 38.3264 1.80615 2.98979 5.95737 -150824 -142525 -16344.8 188431 -29624.3 7513.11 -7.4174 
1899 1 39.0117 0.565601 2.98919 5.95696 -155263 -139337 4812.95 196352 33723.9 8349.84 -7.41882 
4665 2 30.3151 9.15298 6.40603 5.97415 -111883 -166427 -74518.1 -127987 -13521.2 -6186.11 -7.41381 
4667 2 30.3607 6.6987 6.40839 5.96629 -124573 -159519 -57159.1 -152820 -18839.4 -7762.65 -7.41481 
4669 2 30.4078 4.24404 6.41028 5.96089 -137297 -152290 -37324.4 -171649 -24151.9 -9184.38 -7.41602 
4671 2 30.456 1.78899 6.41137 5.95765 -149005 -144672 -15889.1 -182820 -28967.3 -10452.2 -7.4174 
4764 2 31.7328 9.16767 6.40357 5.96699 -132592 -153380 75876.6 -139505 32709.9 -9331.07 -7.42433 
4765 2 32.4653 7.95233 6.40572 5.97091 -129416 -151661 -67909.1 -149074 -17183.4 -4095.44 -7.41422 
4766 2 31.7783 6.71252 6.40622 5.96063 -140804 -148915 58149.7 -164616 35737.2 -8603.98 -7.42287 
4767 2 32.5115 5.49741 6.40786 5.96344 -138981 -148012 -48775.5 -171167 -22499 -4940.97 -7.41536 
4768 2 31.8253 4.25724 6.40846 5.95719 -148025 -144800 37953.2 -183644 36565.3 -7867.43 -7.42128 
4769 2 32.5589 3.04227 6.40937 5.95865 -147803 -143897 -27613.2 -186308 -27582.6 -5685.34 -7.41668 
4770 2 31.8733 1.80184 6.40992 5.95592 -153644 -140883 16167 -195137 35257.5 -7115.58 -7.41965 
4771 2 32.6071 0.586884 6.40995 5.95644 -155315 -139319 -5312.87 -193108 -31902.6 -6331.63 -7.41816 
4863 2 34.57 9.20596 6.40389 5.97805 -137935 -140749 -77445.8 -140748 -15034.5 -991.437 -7.41369 
4864 2 33.8829 7.96612 6.40398 5.96374 -148171 -140462 68512.1 -154169 34446.9 -2704.09 -7.42374 
4865 2 34.6152 6.75059 6.40622 5.96867 -144200 -140659 -59473.6 -165879 -20281.5 -1205.8 -7.41473 
4866 2 33.9289 5.51045 6.40647 5.95808 -152649 -139501 49194.5 -176466 36474.9 -2369.26 -7.42219 
4867 2 34.662 4.29519 6.40809 5.96171 -149809 -140062 -39053.1 -184604 -25539.3 -1378.14 -7.41597 
4868 2 33.9763 3.05481 6.40835 5.95566 -155599 -138679 27852.9 -191772 36303.5 -2062.49 -7.42055 
4869 2 34.7098 1.83973 6.40917 5.95762 -154514 -138880 -17046.7 -195493 -30315.7 -1502.55 -7.41738 
4870 2 34.0244 0.599212 6.40934 5.95599 -156866 -137919 5389.29 -198758 34123.6 -1775.3 -7.41891 
4962 2 35.9876 9.22012 6.40255 5.96941 -158747 -129341 77490.4 -139270 32266.4 3664.39 -7.4245 
4963 2 36.719 8.00412 6.40532 5.97643 -152473 -130382 -68927.5 -155791 -17495.4 1888.59 -7.41417 
4964 2 36.0327 6.76387 6.40523 5.96163 -160515 -131261 59514.1 -164308 35431.4 3637.92 -7.42301 
4965 2 36.7651 5.54828 6.4075 5.96746 -155057 -133173 -49722.5 -177714 -22846.8 2340.47 -7.4153 
4966 2 36.0794 4.30784 6.40748 5.95687 -160633 -133480 39082.9 -183106 36406 3533.28 -7.4214 
4967 2 36.8125 3.09256 6.40904 5.96113 -156778 -135520 -28478.7 -192506 -27980.6 2781.83 -7.41662 
4968 2 36.1272 1.85202 6.40896 5.95541 -159271 -136019 17075.6 -194183 35240.6 3367.93 -7.41976 
4969 2 36.8607 0.636925 6.40964 5.95717 -157024 -137323 -6089.36 -198852 -32362.5 3221.7 -7.41811 
5061 2 38.8226 9.25851 6.40518 5.98654 -164010 -117650 -76593.3 -141211 -14124.7 4216.12 -7.4137 
5062 2 38.1365 8.01803 6.40474 5.96779 -171153 -120369 68402.1 -147634 33492.9 10018 -7.42372 