ITEM: TIMESTEP
0
ITEM: NUMBER OF ATOMS
6536
ITEM: BOX BOUNDS pp pp pp
0.0000000000000000e+00 7.0200368299999994e+01
0.0000000000000000e+00 1.2159060500000000e+02
0.0000000000000000e+00 1.8399999999999999e+01
ITEM: ATOMS id type x y z c_csym c_2[1] c_2[2] c_2[3] c_2[4] c_2[5] c_2[6] c_3 
109 1 0.172 9.822 3 6.02026 -102157 -149599 -84696.3 14029.1 39333.8 -797.551 -7.41438 
110 1 0.859 8.582 3 6.0272 -150982 -158110 -97783.3 -6745.75 25393.6 -3990.7 -7.41366 
111 1 0.129 7.367 3 6.02457 -111972 -179320 -95883 -5426.36 30640.7 -709.922 -7.41381 
112 1 0.816 6.127 3 6.02091 -137611 -127229 -102864 11755.2 20571.6 -3664.98 -7.41343 
113 1 0.086 4.911 3 6.02214 -151076 -141851 -103754 14748.9 20815.9 -431.444 -7.41376 
114 1 0.773 3.671 3 6.02542 -144041 -159917 -107058 -4636.47 13639.7 -3506.12 -7.41351 
115 1 0.043 2.456 3 6.02189 -157223 -137652 -108464 -16870.4 10396.3 -252.155 -7.41313 
116 1 0.73 1.215 3 6.02027 -132444 -131119 -109540 -20046.7 4848.33 -3116.89 -7.41301 
117 1 0 0 3 6.02658 -161848 -146368 -109968 -12473.2 25.611 -11.4921 -7.41335 
209 1 3.007 9.773 3 6.02402 -142124 -122126 -92297.8 9216.83 26762.7 -13900.5 -7.41437 
210 1 2.277 8.557 3 6.02234 -121037 -146792 -90535.2 17928.7 34496.7 -5710.47 -7.41414 
211 1 2.964 7.317 3 6.0247 -144744 -160827 -97912.1 -8833.82 23097.8 -13634.5 -7.41409 
212 1 2.234 6.102 3 6.02677 -131949 -176817 -99958.8 -1803.6 25113.2 -6681.94 -7.41355 
213 1 2.921 4.862 3 6.0199 -130579 -130729 -102812 10390.3 17248.1 -13185.5 -7.41385 
214 1 2.191 3.646 3 6.02402 -123551 -140563 -105917 17463.8 14962.2 -7630.94 -7.41326 
215 1 2.878 2.406 3 6.0247 -135808 -166904 -106613 -7859.25 9481.03 -12386.5 -7.41369 
216 1 2.148 1.191 3 6.02242 -122660 -136603 -108672 -21191.9 4512.95 -8276.16 -7.41277 
308 1 4.425 9.748 3 6.02721 -122289 -164216 -84563.6 -8703.64 36875.5 -9197.52 -7.41462 
309 1 5.113 8.508 3 6.02107 -169532 -96773.7 -89319.6 10470.1 25154 -22982.1 -7.41441 
310 1 4.382 7.292 3 6.02225 -102789 -117329 -94647.4 21851.1 28216.1 -11417.6 -7.41352 
311 1 5.07 6.052 3 6.02406 -175644 -134266 -95185.9 -9354.24 20667.1 -22577 -7.41382 
312 1 4.339 4.837 3 6.02611 -114223 -147282 -101589 2038.88 18508 -13556.8 -7.41309 
313 1 5.027 3.597 3 6.02137 -161454 -104220 -100337 9547.83 14108.1 -21556.8 -7.41357 
314 1 4.296 2.381 3 6.02369 -107288 -109710 -105190 20971.3 8315.37 -15257.8 -7.41299 
315 1 4.984 1.141 3 6.02466 -163255 -118215 -103594 424.985 5863.17 -20245.1 -7.41341 
407 1 7.261 9.698 3 6.01959 -175747 -98241 -77477.2 -22712.8 26485.3 -31470.9 -7.41452 
408 1 6.53 8.483 3 6.02433 -160542 -147386 -89330.3 8281.77 29898.5 -14475.5 -7.41452 
409 1 7.218 7.243 3 6.0238 -168660 -100760 -84192.9 8735.46 23426.6 -30983 -7.4145 
410 1 6.487 6.027 3 6.02137 -151517 -114849 -96313.6 25447.5 20940.2 -17727.6 -7.41379 
411 1 7.175 4.787 3 6.02406 -174734 -136263 -90692 -11676.9 18345.4 -30000.2 -7.41409 
412 1 6.444 3.572 3 6.02406 -163511 -145002 -100515 5451.62 11178.9 -20499.1 -7.4135 
413 1 7.132 2.332 3 6.02137 -160000 -107104 -95801.7 6912.56 11297 -28468.4 -7.41379 
414 1 6.401 1.116 3 6.02195 -160254 -122033 -101493 30705.2 1389.24 -22876.1 -7.41352 
506 1 8.678 9.674 3 6.01959 -153890 -118182 -84076.4 -4153.93 30401.3 -15852.7 -7.41412 
507 1 9.366 8.433 3 6.02088 -126375 -102593 -70079.8 -24308.2 25525 -38175.3 -7.41458 
508 1 8.635 7.218 3 6.02406 -159719 -147609 -91189.4 10756 22022.5 -20104.5 -7.41441 
509 1 9.323 5.978 3 6.02545 -118551 -105631 -77828.6 5863.47 21892.9 -37225.1 -7.4145 
510 1 8.592 4.762 3 6.02137 -151255 -115293 -95275.3 27738.5 12844.6 -23861.4 -7.41384 
511 1 9.28 3.522 3 6.02611 -124583 -141029 -84627.1 -14702.1 16343.8 -35685.7 -7.41407 
512 1 8.549 2.307 3 6.02152 -163286 -144796 -96308.2 7254.43 3423.99 -27199.1 -7.41391 
513 1 9.237 1.067 3 6.0246 -123940 -138840 -90379.9 -17220.7 9120 -33269.8 -7.41388 
3282 2 0.559 8.607 6.4 6.02028 -162990 -150072 -90761 15836.6 35060.3 -874.19 -7.4147 
3283 2 0.601 6.151 6.4 6.02005 -110736 -135831 -100231 -13003.9 25807.6 -1436.54 -7.41366 
3284 2 0.644 3.696 6.4 6.02462 -122761 -163613 -106542 6229.27 15498.8 -2100.35 -7.41346 
3285 2 0.687 1.24 6.4 6.02167 -119961 -131065 -109468 -18428.9 5112.49 -2706.28 -7.41338 
3286 2 0 0 6.4 6.02711 -161634 -147379 -109953 -8930.91 -22.8589 40.5813 -7.41336 
3377 2 2.664 9.872 6.4 6.02385 -152348 -117037 -84429.7 -11570.3 38497.8 -4811.16 -7.41449 
3378 2 1.976 8.632 6.4 6.02211 -173085 -92673.7 -96424.1 -14867.7 25742.7 -9338.08 -7.41386 
3379 2 2.707 7.416 6.4 6.02137 -149916 -116977 -95245.6 -10429.9 29790 -6688.18 -7.41385 
3380 2 2.019 6.176 6.4 6.02672 -127383 -132818 -101539 3089.27 21012.8 -9253.62 -7.41324 
3381 2 2.75 4.961 6.4 6.02406 -160622 -147415 -102933 8058.34 20018.6 -8404.97 -7.41338 
3382 2 2.062 3.721 6.4 6.02175 -113206 -102967 -105838 -16900.7 14060.2 -9213.18 -7.41304 
3383 2 2.793 2.505 6.4 6.0238 -152755 -111262 -107033 -11481.2 9737.84 -10035.2 -7.41317 
3384 2 2.105 1.265 6.4 6.02715 -119519 -137041 -108497 -507.565 5415.43 -8783.44 -7.41308 
3385 2 2.836 0.05 6.4 6.01807 -160788 -119122 -108072 14643.5 -271.416 -11417.4 -7.41324 
3476 2 4.081 9.897 6.4 6.02385 -173834 -94192.5 -89128.7 -18132.9 27511.9 -18709.4 -7.4142 
3477 2 4.812 8.681 6.4 6.02217 -102570 -119760 -89251 -7271.78 32555.8 -10245.7 -7.41372 
3478 2 4.124 7.441 6.4 6.02406 -178787 -131124 -94776 1604.6 24010.7 -18777.5 -7.41385 
3479 2 4.855 6.226 6.4 6.02433 -160944 -148270 -97651.1 11250.4 23390.8 -13244.6 -7.41367 
3480 2 4.167 4.986 6.4 6.02137 -165253 -100477 -99871.7 -19736.7 18362.6 -18426.8 -7.41359 
3481 2 4.898 3.77 6.4 6.0238 -152601 -112349 -102812 -8370.78 13612.2 -15906.4 -7.41342 
3482 2 4.21 2.53 6.4 6.02406 -171174 -133549 -103911 -3096.59 10761.7 -17787.1 -7.41369 
3483 2 4.941 1.315 6.4 6.01959 -158629 -109466 -104628 22760.9 3554.33 -18316 -7.41289 
3484 2 4.253 0.074 6.4 6.01902 -164228 -116767 -105873 15776.4 1610.07 -16719.4 -7.41327 
3575 2 6.917 9.947 6.4 6.02009 -122767 -147461 -83089.2 29405 33813.4 -12328.3 -7.41444 
3576 2 6.23 8.706 6.4 6.02137 -140235 -129373 -84793.7 18377.3 26306.9 -27375.8 -7.4143 
3577 2 6.96 7.491 6.4 6.02676 -123541 -163118 -92174 27913.6 25413.5 -16257.3 -7.41394 
3578 2 6.272 6.251 6.4 6.01864 -166405 -99777.5 -90592.1 -20964.7 22073.3 -27130.4 -7.41434 
3579 2 7.003 5.035 6.4 6.02545 -103379 -115917 -97560.9 -4693.9 16147.6 -20066.1 -7.41335 
3580 2 6.315 3.795 6.4 6.02406 -172233 -134474 -95937.1 -4974.75 15853.5 -26184.6 -7.41414 
3581 2 7.046 2.58 6.4 6.02088 -109574 -112339 -99876.5 26357 6497.48 -23399.8 -7.41285 
3582 2 6.358 1.339 6.4 6.0189 -163182 -105099 -99740.6 7892.02 7789.96 -24819.6 -7.4133 
3583 2 7.089 0.124 6.4 6.02504 -114265 -120876 -99220 21419.4 -2911.93 -26177.7 -7.41329 
3674 2 8.335 9.971 6.4 6.02186 -147599 -127546 -71743.4 11973.8 27819.4 -34873.6 -7.41487 
3675 2 9.065 8.756 6.4 6.02615 -130151 -178108 -86651 16111.5 26253.2 -17680.3 -7.41468 
3676 2 8.378 7.516 6.4 6.02265 -137838 -131078 -78188.6 -19058.9 25095.6 -34577.3 -7.41507 
3677 2 9.108 6.3 6.4 6.02402 -121050 -145887 -92388 -1428.51 17682.2 -22307.6 -7.41403 
3678 2 8.421 5.06 6.4 6.0247 -141471 -164272 -84707.7 -4631.71 20319.6 -33713 -7.41523 
3679 2 9.151 3.845 6.4 6.02186 -126853 -142804 -94535.3 29642.9 8452.92 -26599.8 -7.41353 
3680 2 8.464 2.604 6.4 6.02106 -131493 -135917 -90452.1 8085.52 13648.2 -32116.6 -7.4142 
3681 2 9.194 1.389 6.4 6.02623 -135050 -172306 -93877.2 15058.8 -614.073 -30268.3 -7.41422 
3682 2 8.507 0.149 6.4 6.02226 -127246 -155449 -94405.8 -16178.1 5599.62 -29978.7 -7.41403 
605 1 11.514 9.624 3 6.02676 -144110 -149527 -53567.6 -23967.9 26744.2 -43790.8 -7.41644 
606 1 10.784 8.409 3 6.0196 -120287 -149127 -86354.7 -3116.44 22198.8 -20736.6 -7.41421 
607 1 11.471 7.168 3 6.02186 -143114 -134412 -62090.6 -26880.3 24700.9 -43047.8 -7.41544 
608 1 10.741 5.953 3 6.0247 -127476 -176370 -90180.7 10956.5 13624.5 -25327.5 -7.41489 
609 1 11.428 4.713 3 6.02402 -135139 -137324 -70560.9 3193.51 20619.5 -41562.2 -7.41531 
610 1 10.698 3.497 3 6.0199 -119521 -144232 -90760.1 27769.9 4696.35 -29502.8 -7.41454 
611 1 11.385 2.257 3 6.02721 -142109 -171041 -78345.1 -17350.6 14866.9 -39247.4 -7.41487 
612 1 10.655 1.042 3 6.02298 -128941 -154449 -88509 -5798.15 -4076.23 -33163.6 -7.41438 
704 1 12.932 9.599 3 6.02265 -118692 -148133 -82697.1 28677.8 21276.5 -19999 -7.41479 
705 1 13.619 8.359 3 6.02615 -151053 -167429 -44055.2 -13019 26626.5 -47252.3 -7.41719 
706 1 12.889 7.144 3 6.02186 -125537 -145632 -85909.2 -1152.08 13468.1 -25226 -7.41402 
707 1 13.576 5.903 3 6.02186 -141127 -138209 -53637.7 -28473.9 24216.2 -45952.1 -7.41594 
708 1 12.846 4.688 3 6.02615 -133138 -175148 -85892.7 12252.3 5049.02 -30065.3 -7.41471 
709 1 13.533 3.448 3 6.02265 -133125 -140800 -63527.4 1540.12 19883.4 -43794.2 -7.41572 
710 1 12.803 2.232 3 6.02402 -126566 -141877 -82881.9 28761 -3356.62 -34389.9 -7.41466 
711 1 13.49 0.992 3 6.02516 -134225 -154164 -72264.4 -7254.03 13879.9 -40856.9 -7.41524 
803 1 15.767 9.55 3 6.02127 -142910 -139761 -24176.4 4834.13 27652 -49782.7 -7.41805 
804 1 15.037 8.334 3 6.02265 -121183 -147338 -82909.2 31353.3 12455.4 -23803.3 -7.41456 
805 1 15.724 7.094 3 6.02615 -149158 -171262 -34892.4 -14280.1 26854.8 -48666.3 -7.41773 
806 1 14.994 5.879 3 6.02186 -126302 -145653 -81912.8 -432.173 4666.8 -29108.3 -7.41425 
807 1 15.681 4.638 3 6.02186 -139146 -141713 -46167.7 -29728.1 24150.3 -46802.6 -7.41637 
808 1 14.951 3.423 3 6.02615 -134436 -175529 -78231.8 12769.1 -3292 -33892.5 -7.41516 
809 1 15.638 2.183 3 6.02265 -130593 -144917 -57262.7 205.375 19523.6 -44101.6 -7.41604 
810 1 14.908 0.967 3 6.0255 -132096 -156455 -72114.8 36694.4 -10976.8 -38082 -7.41523 
902 1 17.185 9.525 3 6.02616 -131146 -180737 -81514.5 12306 10904.6 -21449.4 -7.41459 
903 1 17.872 8.285 3 6.02127 -141114 -143566 -14474.3 3886.64 28488.4 -49759.9 -7.41862 
904 1 17.142 7.069 3 6.02265 -121732 -147465 -79514.1 31571.7 3660.94 -26941.2 -7.41476 
905 1 17.829 5.829 3 6.02615 -147194 -174758 -27201.4 -15162.7 27305.9 -48150.2 -7.41818 
906 1 17.099 4.614 3 6.02186 -127387 -146117 -75042.2 -409.893 -3769.6 -31995.6 -7.41466 
907 1 17.786 3.373 3 6.02106 -134856 -145363 -39935.5 -32299.5 24352.6 -45774.5 -7.41695 
908 1 17.056 2.158 3 6.02623 -135437 -177330 -67779.2 12684.9 -11142.6 -36543.1 -7.41572 
909 1 17.743 0.918 3 6.02225 -128153 -161872 -52175.3 -8327.2 19609.2 -42626.6 -7.41671 
1001 1 20.02 9.475 3 6.0247 -148428 -180348 7048.43 -14592.3 29220.2 -48976.4 -7.42028 
1002 1 19.29 8.26 3 6.02677 -131465 -181005 -78885.4 12006 2314.55 -23796.4 -7.41475 
1003 1 19.977 7.02 3 6.0199 -134588 -148062 -6689.17 3286.3 29596.4 -47826.4 -7.4195 
1004 1 19.247 5.804 3 6.02402 -122635 -148032 -73364.2 31081.4 -4762.88 -28978.1 -7.41512 
1005 1 19.934 4.564 3 6.0247 -140441 -180900 -20895.4 -16054.8 28059.3 -45828.3 -7.41876 
1006 1 19.204 3.349 3 6.02194 -120042 -133189 -65024.7 -13545.2 -11676.8 -33773.1 -7.41506 
1007 1 19.892 2.108 3 6.01607 -164502 -116086 -35127.8 -29436.9 24815.3 -43169.6 -7.41729 
1008 1 19.161 0.893 3 6.02504 -114701 -129994 -54168.4 3090.21 -18177.6 -37976.4 -7.41591 
3773 2 11.17 10.021 6.4 6.02615 -129935 -179088 -82247 18060.8 25953.8 -17440.8 -7.41492 
3774 2 10.483 8.781 6.4 6.02265 -142151 -132035 -62785.2 -21368.5 27324 -40791.2 -7.41576 
3775 2 11.213 7.565 6.4 6.02265 -120352 -147476 -87394.3 597.843 18147.8 -22855.1 -7.41431 
3776 2 10.526 6.325 6.4 6.02615 -148377 -164264 -70420.3 -5483.21 24164.4 -39873.3 -7.41563 
3777 2 11.256 5.11 6.4 6.02186 -125711 -144876 -89570.9 31723.1 9515.12 -27846.4 -7.41381 
3778 2 10.569 3.869 6.4 6.02186 -138373 -135561 -77756.9 6973.1 18985.3 -38357.9 -7.41452 
3779 2 11.299 2.654 6.4 6.02615 -134094 -173907 -88442 17240 772.732 -32347 -7.41457 
3780 2 10.612 1.414 6.4 6.02265 -129983 -139670 -84067.9 -25662.8 12207 -36078.4 -7.41447 
3781 2 11.342 0.198 6.4 6.0255 -131966 -154042 -84487.8 -8510.4 -7490.74 -36200.8 -7.41452 
3872 2 12.588 10.046 6.4 6.02265 -144023 -134088 -44966.4 -21415.4 28474.3 -45476.5 -7.41682 
3873 2 13.318 8.83 6.4 6.02127 -119913 -148486 -83829.7 2074.19 17661.7 -21917.7 -7.41451 
3874 2 12.631 7.59 6.4 6.02615 -152116 -166364 -53456.5 -3956.61 26995.3 -44687.8 -7.41638 
3875 2 13.361 6.375 6.4 6.02368 -124118 -146385 -85147.9 38385.4 9696.53 -27515.1 -7.41406 
3876 2 12.674 5.134 6.4 6.02009 -139079 -136306 -62278.6 8427.7 23445.8 -43184.7 -7.41567 
3877 2 13.404 3.919 6.4 6.02615 -132770 -176040 -83744.2 18854.7 1435.76 -32616.7 -7.41484 
3878 2 12.717 2.679 6.4 6.02265 -132688 -139659 -70426.9 -26385.8 18118.6 -41001.4 -7.41532 
3879 2 13.447 1.463 6.4 6.02402 -126529 -142790 -79149.8 747.75 -6614.54 -37113.7 -7.41487 
3880 2 12.76 0.223 6.4 6.02516 -133994 -153146 -77632.6 -20140.9 11286.4 -38044.6 -7.41492 
3971 2 15.423 10.095 6.4 6.0199 -115077 -150045 -81663.6 3039.35 16513.1 -19877 -7.41506 
3972 2 14.736 8.855 6.4 6.02677 -152670 -170985 -34244.9 -3430.3 28747.5 -47929.1 -7.4174 
3973 2 15.466 7.64 6.4 6.0247 -125706 -182483 -82400.9 22466.3 9091.84 -25822.7 -7.41497 
3974 2 14.779 6.4 6.4 6.02234 -139439 -139879 -44148.7 -24541.3 26953.7 -46583 -7.41674 
3975 2 15.509 5.184 6.4 6.02465 -121587 -145918 -79877.2 4204.04 1408.35 -31371.7 -7.41496 
3976 2 14.822 3.944 6.4 6.02402 -136345 -138549 -54326.9 -26262.5 23200.3 -44477 -7.41639 
3977 2 15.552 2.728 6.4 6.02127 -124167 -146525 -74828.8 1773.9 -6301.89 -36324.9 -7.41504 
3978 2 14.865 1.488 6.4 6.02615 -142000 -174179 -63778.1 -8557.55 17716.6 -41647.5 -7.41573 
3979 2 15.595 0.273 6.4 6.02383 -131585 -158277 -66999.3 31801.5 -13507.2 -40579.9 -7.41541 
4070 2 16.841 10.12 6.4 6.02611 -135862 -145427 -13546.4 -3567.04 29516.6 -49504.4 -7.41825 
4071 2 17.572 8.905 6.4 6.02406 -158237 -153717 -81177.1 21135.7 7970.78 -23198.1 -7.41461 
4072 2 16.884 7.665 6.4 6.02225 -122254 -113701 -24107.9 -24930.6 29294.9 -48364.7 -7.41767 
4073 2 17.615 6.449 6.4 6.02102 -150761 -116124 -77919.1 1855.65 714.525 -28932.1 -7.41518 
4074 2 16.927 5.209 6.4 6.02721 -130464 -126825 -35831.4 -13470 27226.4 -46496.6 -7.41717 
4075 2 17.657 3.993 6.4 6.0199 -118740 -151639 -71686.8 3068.98 -6502.94 -34109.6 -7.41531 
4076 2 16.97 2.753 6.4 6.02677 -143267 -177134 -47548.7 -7983.28 23291.3 -43853.7 -7.41661 
4077 2 17.7 1.538 6.4 6.0247 -130682 -182650 -63065.2 21015.3 -13517 -38723.8 -7.41606 
4078 2 17.013 0.298 6.4 6.0246 -132875 -159365 -58301.8 -21062.3 17788.6 -40516.9 -7.41593 
4170 2 18.989 8.93 6.4 6.02137 -172303 -114942 -3113.7 -24737 30579.3 -48426.4 -7.41929 
4171 2 19.72 7.714 6.4 6.0238 -149790 -119979 -77667.2 1215.3 -201.803 -25547.2 -7.41486 
4172 2 19.032 6.474 6.4 6.02433 -178546 -145839 -15700.7 -9097.83 30064.2 -46836.4 -7.41886 
4173 2 19.763 5.259 6.4 6.01959 -153223 -119305 -70518.8 35027.6 -7241.07 -30853.9 -7.41515 
4174 2 19.075 4.018 6.4 6.02371 -119833 -117033 -29116.1 9090.58 27793.8 -44583.5 -7.41699 
4175 2 19.806 2.803 6.4 6.02406 -164226 -151618 -60603.6 19171 -13838.4 -35595.2 -7.41594 
4176 2 19.118 1.563 6.4 6.02225 -112179 -119725 -42107.1 -28674.6 23708.1 -41618.1 -7.41655 
4177 2 19.849 0.347 6.4 6.02195 -160530 -133113 -48695.4 -8471.78 -19857.3 -39765.3 -7.4166 
1100 1 21.438 9.45 3 6.02225 -102431 -120030 -80115.1 31560.8 725.7 -19948.5 -7.41435 
1101 1 22.126 8.21 3 6.02406 -179582 -154271 14625.7 -13067.2 30786.9 -45610.1 -7.42031 
1102 1 21.395 6.995 3 6.02611 -113441 -153557 -73559.6 11793.4 -5837.56 -25108.6 -7.41469 
1103 1 22.083 5.755 3 6.02137 -165614 -121808 -838.888 4949.54 30785.8 -44162.1 -7.41942 
1104 1 21.352 4.539 3 6.0246 -105145 -121027 -64107.4 30682.9 -12507.9 -29804.3 -7.41528 
1105 1 22.04 3.299 3 6.02406 -172229 -151572 -16956.9 -14806 28979 -42003.4 -7.41878 
1106 1 21.309 2.084 3 6.02097 -159226 -120032 -52238.1 -741.078 -18683.7 -34092.4 -7.41594 
1107 1 21.997 0.843 3 6.01792 -165636 -131285 -32800.2 -34562.9 25391.4 -39171 -7.41754 
1199 1 24.274 9.401 3 6.0238 -172481 -122656 35262.8 8045.91 30930.9 -41589.5 -7.42158 
1200 1 23.543 8.185 3 6.02137 -150933 -119534 -75704.5 30838.8 -7030.67 -20610.4 -7.41498 
1201 1 24.231 6.945 3 6.02433 -178905 -155846 19302.6 -12791.2 32437.7 -40565 -7.42059 
1202 1 23.5 5.73 3 6.02406 -161918 -153960 -65309.8 9924.78 -13295.4 -25119.5 -7.41554 
1203 1 24.188 4.49 3 6.02217 -116752 -124353 1869.88 4663.44 32090.5 -39044.3 -7.41921 
1204 1 23.457 3.274 3 6.0238 -153415 -122312 -52378.5 29756.4 -19389.3 -29191.9 -7.41635 
1205 1 24.145 2.034 3 6.0261 -122216 -155377 -15622.4 -13992.1 29763.6 -36834.5 -7.41844 
1206 1 23.414 0.819 3 6.02085 -161268 -135722 -37827.3 3000.16 -24751.1 -32944.1 -7.41713 
1298 1 25.691 9.376 3 6.02406 -159383 -150461 -79331.5 11640.5 -7991.13 -15814 -7.41509 
1299 1 26.379 8.136 3 6.02545 -122578 -126427 38879.4 7821.73 32956.5 -35312.9 -7.42143 
1300 1 25.648 6.92 3 6.01864 -150557 -120033 -68325.3 28440 -14000.8 -19848.6 -7.41562 
1301 1 26.336 5.68 3 6.02677 -138808 -173511 20828.6 -26013 34022 -34283.8 -7.4205 
1302 1 25.606 4.465 3 6.02385 -129369 -187252 -54699 6722.19 -19791.8 -23555.4 -7.41639 
1303 1 26.293 3.225 3 6.02234 -133460 -154306 1814.73 4947.86 33063.8 -32774.3 -7.41958 
1304 1 25.563 2.009 3 6.02265 -122883 -151595 -39172.5 25843.2 -25259.9 -27029.8 -7.41765 
1305 1 26.25 0.769 3 6.02768 -134745 -165545 -16918.2 -3579.2 30350.3 -30580.2 -7.4185 
1397 1 28.527 9.326 3 6.02186 -146933 -155601 56997.8 -22337.9 32440.1 -28300.9 -7.42253 
1398 1 27.797 8.111 3 6.0247 -126888 -181052 -72943.3 7474.44 -14267.2 -14358.8 -7.41589 
1399 1 28.484 6.871 3 6.02402 -139321 -156297 38788.9 8140.71 34839.1 -27937.5 -7.4218 
1400 1 27.754 5.655 3 6.02127 -120785 -151970 -58810.8 22926 -19999.2 -17494.6 -7.4162 
1401 1 28.441 4.415 3 6.02615 -145617 -189101 19237.8 -12220.3 35197.7 -26963.3 -7.42058 
1402 1 27.711 3.2 3 6.02616 -135520 -185803 -42524.2 4675.54 -25350.5 -20616.1 -7.4169 
1403 1 28.398 1.96 3 6.02127 -131054 -156563 -872.819 6383.72 33704.5 -25586.7 -7.41938 
1404 1 27.668 0.744 3 6.0255 -132978 -166147 -24452.8 31026.5 -30002.5 -23286.5 -7.41805 
1496 1 29.945 9.302 3 6.02186 -125169 -148346 -78705.8 -9118.63 -14149.3 -9083.45 -7.41445 
1498 1 29.902 6.846 3 6.02615 -132235 -181412 -64384.7 4667.88 -19662.9 -11471.8 -7.41598 
1500 1 29.859 4.39 3 6.02127 -124208 -153056 -47919.8 21797.9 -25048.3 -13819.1 -7.41663 
1502 1 29.816 1.935 3 6.02615 -136427 -188423 -29138.9 1935.03 -29785.5 -15950.9 -7.41764 
4269 2 21.825 8.979 6.4 6.02545 -101397 -121347 -79026.8 1240.88 -1391.62 -21484.8 -7.41441 
4270 2 21.137 7.739 6.4 6.02406 -179345 -149499 5353.83 -7790.58 31791 -45539.9 -7.42012 
4271 2 21.868 6.524 6.4 6.02088 -106424 -121223 -71218 32219.8 -7935.09 -26691.4 -7.4145 
4272 2 21.18 5.283 6.4 6.01959 -169497 -119245 -9191.08 4620.13 30974.9 -43627.8 -7.41856 
4273 2 21.911 4.068 6.4 6.02549 -114499 -152447 -60575.2 17640.5 -14429.9 -31466.8 -7.41582 
4274 2 21.223 2.828 6.4 6.0238 -162378 -119934 -24178.4 -27216.2 28437 -41061.1 -7.41802 
4275 2 21.954 1.612 6.4 6.02284 -156416 -119777 -47446.1 -1295.1 -20330.1 -35612.3 -7.41672 
4276 2 21.266 0.372 6.4 6.02466 -164251 -131184 -38924.3 -21940.2 24236.6 -37906.4 -7.41718 
4368 2 23.243 9.004 6.4 6.0247 -148218 -181437 26491.5 -4557.45 32316.1 -42367.6 -7.42181 
4369 2 23.973 7.789 6.4 6.02186 -124583 -149338 -73696.9 31708.4 -8782.49 -22024.5 -7.41474 
4370 2 23.286 6.548 6.4 6.02106 -138578 -150820 11039.6 7887.59 33100.8 -40935.6 -7.42019 
4371 2 24.016 5.333 6.4 6.02721 -132172 -181278 -62468.2 17270.9 -14902.2 -26535.3 -7.41608 
4372 2 23.329 4.093 6.4 6.02128 -130649 -153826 -5162.18 -24482 31995 -38744.6 -7.41938 
4373 2 24.059 2.877 6.4 6.02407 -115926 -137865 -48630.2 11592.5 -20825.4 -30575.9 -7.41641 
4374 2 23.371 1.637 6.4 6.02153 -169413 -151866 -21694 -9913.5 29118.6 -36164 -7.41865 
4375 2 24.102 0.422 6.4 6.02144 -114038 -137293 -32620.5 23301.7 -25934.9 -33957.6 -7.41707 
4467 2 26.078 9.054 6.4 6.02186 -124319 -148933 -77934 29855.4 -9411.9 -17068.3 -7.41449 
4468 2 25.391 7.813 6.4 6.02186 -145130 -152087 31367.7 9627.97 33922.4 -36469.1 -7.42099 
4469 2 26.121 6.598 6.4 6.02615 -131463 -181372 -66033.8 15538.9 -15302.9 -21159.4 -7.41588 
4470 2 25.434 5.358 6.4 6.02265 -137446 -153013 14186.6 -22989.3 34388.2 -34821.4 -7.42032 
4471 2 26.164 4.142 6.4 6.02265 -123510 -152460 -51888.1 -2467.68 -21024 -24787.1 -7.41639 
4472 2 25.477 2.902 6.4 6.0247 -141256 -183504 -3813.26 -4939.39 32850.6 -32656.2 -7.41978 
4473 2 26.207 1.687 6.4 6.02186 -129674 -153494 -35131.2 28115.2 -26278.4 -27978.3 -7.41696 
4474 2 25.52 0.446 6.4 6.02168 -131927 -163758 -21874.7 11924.8 29689.8 -30077.6 -7.41861 
4566 2 27.496 9.078 6.4 6.02186 -146948 -154261 50514.9 11595.3 33573.9 -30444.4 -7.42214 
4567 2 28.226 7.863 6.4 6.02615 -130962 -180971 -71439.9 13275.7 -15303.8 -15611.8 -7.41556 
4568 2 27.539 6.623 6.4 6.02265 -139362 -155073 33155.5 -20871 35447.9 -29151.6 -7.42147 
4569 2 28.269 5.407 6.4 6.02127 -122599 -152493 -56722.4 -4589.52 -20976.5 -18771.4 -7.41611 
4570 2 27.582 4.167 6.4 6.02615 -147158 -185463 14193 -2628.09 35358.1 -27650.9 -7.42039 
4571 2 28.312 2.952 6.4 6.02368 -128260 -152926 -39698.3 31335.7 -26213.9 -21447.9 -7.41674 
4572 2 27.625 1.711 6.4 6.01992 -135064 -151613 -5288 10330.4 33415.6 -25636.8 -7.41912 
4573 2 28.355 0.496 6.4 6.02565 -133605 -165495 -20876.7 21202.4 -30601.3 -23832.8 -7.41826 
4666 2 29.644 7.888 6.4 6.02265 -141249 -156877 50659.7 -18730.3 35317.4 -22140.7 -7.42252 
4668 2 29.687 5.432 6.4 6.02615 -147645 -189637 31510.4 -7.56006 36564.5 -21012.6 -7.42132 
4670 2 29.73 2.977 6.4 6.02127 -134326 -156582 11133.2 -19986.7 35951.9 -19594.4 -7.42002 
4672 2 29.773 0.521 6.4 6.02404 -135054 -167038 -9382.39 -12861.2 33554.7 -17941.2 -7.41896 
1497 1 30.632 8.061 3 6.02186 -145138 -156985 55054.5 -21104.1 34635.2 -20034.4 -7.42241 
1499 1 30.589 5.606 3 6.02265 -137436 -157555 35274.1 9649.63 36256.6 -19691.8 -7.42159 
1501 1 30.546 3.15 3 6.02616 -143744 -190046 14616.4 -10424.5 35932.5 -18951 -7.4203 
1503 1 30.503 0.695 3 6.02323 -133445 -170383 -6478.22 686.842 33832.5 -17971.6 -7.419 
1595 1 32.78 9.252 3 6.02615 -152895 -188966 68548.1 -5225.66 33469.8 -11178 -7.42392 
1596 1 32.05 8.037 3 6.02186 -125585 -149793 -71107.3 -12270.7 -18750.4 -5792.15 -7.41491 
1597 1 32.737 6.796 3 6.02186 -143285 -157758 49355.7 -19469.1 36296 -11106.5 -7.42207 
1598 1 32.007 5.581 3 6.02615 -133131 -182911 -54699.4 1528.37 -24049.4 -7268.36 -7.41655 
1599 1 32.694 4.341 3 6.02265 -135524 -158088 28580.8 11590.2 37082.8 -11055.7 -7.42119 
1600 1 31.964 3.125 3 6.02127 -125479 -154503 -36016.6 18759.5 -28988.6 -8594.3 -7.41734 
1601 1 32.651 1.885 3 6.02615 -142801 -188904 7110.98 -8063.36 35971.9 -10712 -7.41992 
1602 1 31.921 0.67 3 6.02383 -132625 -168843 -15858.4 -12447.1 -33060 -9966.54 -7.41844 
1694 1 34.198 9.227 3 6.02265 -121177 -149634 -77875.7 15747.2 -17119 -789.304 -7.41488 
1695 1 34.885 7.987 3 6.02469 -148866 -189663 60658.7 -5284.5 35472.6 -1877.73 -7.42364 
1696 1 34.155 6.772 3 6.02186 -126247 -151240 -62335.5 -15572.7 -22376.9 -1277.2 -7.41542 
1697 1 34.842 5.531 3 6.02106 -136722 -158888 40454.4 -17579.4 37281.1 -2115.69 -7.42196 
1698 1 34.112 4.316 3 6.02721 -134197 -184208 -44089 -1659.28 -27410.2 -1663.06 -7.41718 
1699 1 34.799 3.076 3 6.02128 -129010 -159108 18964.9 13776.2 37136.9 -2399.17 -7.42103 
1700 1 34.069 1.86 3 6.02552 -127781 -154181 -24178.1 15623.1 -31848.6 -2302.54 -7.41812 
1701 1 34.756 0.62 3 6.02371 -130333 -171655 -2670.44 5707.85 35232.7 -2507.44 -7.41956 
1793 1 37.033 9.178 3 6.0199 -138176 -161849 68543.4 15114.4 34043.5 7706.2 -7.4238 
1794 1 36.303 7.962 3 6.02407 -112778 -137124 -70257.5 -80.3355 -19751.2 3836.36 -7.41515 
1795 1 36.991 6.722 3 6.0215 -177720 -158529 49633.9 -247.194 36636.5 7195.63 -7.42298 
1796 1 36.26 5.507 3 6.02088 -108402 -124395 -53163.6 -18043 -25001.8 4468.92 -7.41559 
1797 1 36.948 4.266 3 6.01959 -167814 -129145 28787.1 -13652.1 37396.7 6612.19 -7.42082 
1798 1 36.217 3.051 3 6.0261 -116769 -157057 -33994.4 -3967.58 -29743 4805.92 -7.41741 
1799 1 36.905 1.811 3 6.0238 -159624 -130154 7306.49 17867.3 36262.1 5836.94 -7.41986 
1800 1 36.174 0.595 3 6.02341 -114436 -140783 -13346.4 21075.3 -33681.6 5105.92 -7.41834 
1892 1 38.451 9.153 3 6.02545 -112378 -154804 -77608.5 -9712.59 -16133.5 7640.62 -7.41447 
1893 1 39.139 7.913 3 6.02137 -170175 -129019 55023.3 18107.8 35504.8 16436.1 -7.42277 
1894 1 38.408 6.697 3 6.0238 -151527 -122810 -62328.2 10764.8 -21519.3 9425.78 -7.41578 
1895 1 39.096 5.457 3 6.02406 -176922 -158169 35510.4 2305.05 36940.7 15619 -7.42192 
1896 1 38.365 4.242 3 6.01959 -157440 -123923 -44580.3 -20335.5 -26654.2 10798.6 -7.41646 
1897 1 39.053 3.001 3 6.02097 -167127 -126790 14675.1 -11175.5 36507.6 14558.1 -7.41998 
1898 1 38.322 1.786 3 6.02406 -165050 -157860 -25067.3 -6952.85 -31103.1 12099.6 -7.41824 
1899 1 39.01 0.546 3 6.02551 -115011 -142179 -6332.73 12100.8 34369 13107.4 -7.41864 
4665 2 30.331 9.128 6.4 6.0247 -128422 -180499 -77594.2 12300.4 -14910.6 -10233.7 -7.41542 
4667 2 30.374 6.672 6.4 6.02127 -121899 -152039 -63163.9 -7186.23 -20391.4 -12692.3 -7.41574 
4669 2 30.417 4.217 6.4 6.02616 -134050 -186801 -45914.6 11921.6 -25670 -14777.8 -7.41671 
4671 2 30.46 1.761 6.4 6.02557 -128194 -154081 -26971.1 -8108.73 -30288.4 -16522.4 -7.41783 
4764 2 31.749 9.153 6.4 6.02407 -134254 -144338 66003.1 -4252.71 34062.4 -13847.2 -7.42326 
4765 2 32.479 7.937 6.4 6.0199 -116613 -154066 -70379.1 -9666.23 -19186.3 -6934.04 -7.41553 
4766 2 31.792 6.697 6.4 6.02677 -149547 -191017 47018.8 2277.02 36604.7 -13221.4 -7.42225 
4767 2 32.522 5.482 6.4 6.0247 -128462 -187311 -53684 9164.18 -24454.8 -8248 -7.41667 
4768 2 31.835 4.242 6.4 6.02234 -135590 -157568 26521.9 -17710.4 37214.3 -12169.9 -7.42107 
4769 2 32.565 3.026 6.4 6.02265 -122112 -153507 -34807.5 -10450.6 -29329.9 -9340.9 -7.41796 
4770 2 31.878 1.786 6.4 6.0276 -133453 -155710 5191.3 -18035.4 35946.2 -11210.7 -7.41974 
4771 2 32.608 0.57 6.4 6.0255 -131309 -169570 -14333.8 -16471.9 -33290.5 -10123.1 -7.41875 
4863 2 34.585 9.202 6.4 6.02137 -150021 -120995 -77747.3 -13960.8 -17227.7 -2097.54 -7.41488 
4864 2 33.897 7.962 6.4 6.02545 -132713 -163764 60145.7 3571.59 35601.5 -4407.36 -7.42266 
4865 2 34.628 6.747 6.4 6.02406 -160624 -156959 -61960.7 4336.34 -22488.6 -2269.89 -7.41576 
4866 2 33.94 5.507 6.4 6.02225 -118877 -130453 39928.9 -16077.2 37366.2 -3874.73 -7.42149 
4867 2 34.671 4.291 6.4 6.0238 -152477 -126089 -43939.8 -15235 -27542.6 -2534.34 -7.41686 
4868 2 33.983 3.051 6.4 6.0261 -125020 -159846 18582.5 1146.52 37160.7 -3296.46 -7.42053 
4869 2 34.714 1.836 6.4 6.01704 -158524 -122949 -23802.5 18377 -31932.9 -2573.69 -7.41822 
4870 2 34.026 0.595 6.4 6.02661 -119532 -120755 -3214.24 21367.7 35263.7 -2786.96 -7.4188 
4962 2 36.002 9.227 6.4 6.02406 -181370 -163870 69963.9 4551.38 33713.5 4857.26 -7.42363 
4963 2 36.733 8.012 6.4 6.02545 -113127 -155708 -70439.2 1845.86 -19536.3 2642.17 -7.41489 
4964 2 36.045 6.772 6.4 6.02137 -168309 -130059 50791.9 -13733.8 36505 5148.41 -7.42251 
4965 2 36.776 5.556 6.4 6.0238 -152675 -123677 -53691.4 -18388.3 -24785.9 3490.12 -7.41629 
4966 2 36.088 4.316 6.4 6.02406 -174999 -159004 29916.8 2770.5 37316.3 5180.7 -7.42159 
4967 2 36.819 3.101 6.4 6.01959 -158903 -124709 -34737.6 13088.6 -29577.9 4273.68 -7.41703 
4968 2 36.131 1.86 6.4 6.02234 -166120 -125927 8192.29 16705.3 36324.8 5232.96 -7.41967 
4969 2 36.862 0.645 6.4 6.02338 -161404 -137542 -14122.3 11662.1 -33534.1 4966.65 -7.41889 
5061 2 38.838 9.277 6.4 6.02677 -131395 -182377 -78217.8 -660.279 -15563 6472.16 -7.4148 
5062 2 38.151 8.037 6.4 6.0199 -136381 -161478 58125.2 -10946 34999.1 14248.5 -7.42318 
5063 2 38.881 6.821 6.4 6.02407 -113611 -137672 -63281.1 -7610.65 -21010.8 8185.54 -7.41555 
5064 2 38.193 5.581 6.4 6.0215 -175806 -158168 38371.9 5175.14 36662.6 14067.5 -7.42229 
5065 2 38.924 4.366 6.4 6.02088 -109582 -124632 -46074.8 10718.8 -26221.4 10076 -7.416 
5066 2 38.236 3.125 6.4 6.01959 -165863 -128664 17307 19239.4 36491.7 13582.9 -7.42014 
5067 2 38.967 1.91 6.4 6.02557 -117657 -157996 -26823.5 -2982.18 -30795.8 11630.2 -7.41777 
5068 2 38.279 0.67 6.4 6.02463 -161808 -142685 -4220.71 -3977.47 34543.2 13039.5 -7.41913 
1991 1 41.287 9.103 3 6.02545 -134500 -161252 56969.3 109.253 33812.5 25306.2 -7.42248 
1992 1 40.556 7.888 3 6.02406 -159555 -155740 -70723 -11866.2 -17043.8 13002.2 -7.41524 
1993 1 41.244 6.648 3 6.02225 -120767 -128239 38854.9 20473.9 36013 24256.1 -7.42142 
1994 1 40.513 5.432 3 6.0238 -151044 -124715 -55142.5 7964.07 -22510.5 15477.4 -7.4162 
1995 1 41.201 4.192 3 6.0261 -126916 -157929 19253.8 3889.04 36152.7 22935.5 -7.42057 
1996 1 40.47 2.977 3 6.01707 -155933 -123023 -37339.2 -25167.6 -27582 17699.3 -7.41733 
1997 1 41.158 1.736 3 6.02618 -127238 -139174 -911.28 -27458.2 34498.2 21164.3 -7.41893 
1998 1 40.428 0.521 3 6.02384 -129005 -169069 -18001.8 -23749.7 -31744.8 19569.3 -7.41864 
2090 1 42.705 9.078 3 6.0199 -115696 -152814 -77838.1 2608.71 -11518.8 15041 -7.41508 
2091 1 43.392 7.838 3 6.02677 -151381 -187425 38767.7 1304.39 34570.7 32221.2 -7.42175 
2092 1 42.662 6.623 3 6.0247 -127116 -185673 -64793.7 -16107.6 -17271.2 18531.5 -7.41601 
2093 1 43.349 5.383 3 6.02234 -137484 -154359 20810.1 21924.6 35295.8 30709.2 -7.42073 
2094 1 42.619 4.167 3 6.02265 -120438 -151554 -49475.1 3767.37 -22856.9 21783.6 -7.41708 
2095 1 43.306 2.927 3 6.0276 -135779 -151991 1943.15 22974.1 34098.4 28767.2 -7.4196 
2096 1 42.576 1.711 3 6.02402 -125632 -153385 -31868.1 2572.28 -27826 24580.6 -7.41775 
2097 1 43.263 0.471 3 6.02516 -135037 -165252 -17033.6 16273.3 31233.8 26465.9 -7.41849 
2189 1 45.54 9.029 3 6.02265 -142985 -151999 35320.1 21412.6 32898.8 38961.3 -7.42159 
2190 1 44.81 7.813 3 6.02127 -120722 -150443 -72828.2 946.015 -11106.6 20110.7 -7.41516 
2191 1 45.497 6.573 3 6.02615 -149515 -185182 19180 3281.37 34048.9 37595.5 -7.42058 
2192 1 44.767 5.358 3 6.02615 -132475 -184678 -60321.1 -18059.8 -17138.5 24249.5 -7.41584 
2193 1 45.454 4.118 3 6.02127 -136113 -152667 2026.07 23844.1 33309.4 35526.2 -7.41948 