ITEM: TIMESTEP
61
ITEM: NUMBER OF ATOMS
3176
ITEM: BOX BOUNDS pp pp pp
0.0000000000000000e+00 4.8935453299999999e+01
0.0000000000000000e+00 8.4758691400000004e+01
0.0000000000000000e+00 1.8399999999999999e+01
ITEM: ATOMS id type x y z c_csym c_2[1] c_2[2] c_2[3] c_2[4] c_2[5] c_2[6] c_3 
74 1 0.278035 9.81895 2.93196 6.01363 -137768 -158193 13620.9 -38785.1 36993.3 -3144.78 -7.41734 
75 1 0.953505 8.57214 2.92436 6.0107 -167337 -127398 -8785.55 -32526.2 17572.3 -5592.17 -7.41547 
76 1 0.21143 7.36417 2.91718 6.01897 -138933 -157135 6011.95 -24089.1 28843.6 -2560.63 -7.41622 
77 1 0.885716 6.1168 2.9108 6.0159 -162261 -133112 -3212.74 -18351.1 15595.5 -4959.39 -7.41533 
78 1 0.142448 4.90946 2.90497 6.02286 -141021 -154792 1789.86 -11449.7 19444 -1751.07 -7.41546 
79 1 0.815813 3.66164 2.90054 6.02107 -156602 -139000 -721.683 -7471.27 11087.2 -4161.6 -7.41512 
80 1 0.0716957 2.45475 2.89687 6.02692 -144159 -151625 94.9935 -2937.4 9526.63 -852.866 -7.41504 
81 1 0.744527 1.20668 2.89498 6.02754 -150821 -145019 -165.556 -1627.29 4093.17 -3172.48 -7.41495 
82 1 1.21048e-05 -2.84835e-07 2.89402 6.03066 -148022 -147864 -188.576 -49.7823 0.649349 0.244048 -7.41492 
144 1 3.11142 9.73999 2.93419 6.01041 -188206 -105881 -9029.9 -40000.9 16768.8 -16239.4 -7.4158 
145 1 2.37082 8.53115 2.92586 6.0113 -155942 -140291 7051.75 -26379.7 31966.3 -4578.82 -7.41666 
146 1 3.04509 7.28363 2.92007 6.01304 -179250 -116020 -2647.54 -24614 16210.5 -15367.3 -7.4157 
147 1 2.303 6.0756 2.91245 6.01599 -152687 -143431 1968.89 -11773 23057.9 -5841.26 -7.41577 
148 1 2.97639 4.82771 2.90835 6.01749 -169191 -126472 254.259 -11586.9 13265.6 -14072.7 -7.41547 
149 1 2.23308 3.62035 2.90233 6.02052 -150174 -145529 -156.257 -689.907 13270.7 -6742.36 -7.41523 
150 1 2.90595 2.37225 2.90055 6.02337 -158471 -137253 647.853 -3148.86 7778.63 -12365.5 -7.41521 
151 1 2.16179 1.16534 2.89686 6.02443 -148502 -147257 -364.536 5135.53 3413.14 -7377.22 -7.41501 
213 1 4.52866 9.69966 2.93727 6.00107 -175818 -119769 4551.41 -26963.5 33261.8 -4472.95 -7.41696 
214 1 5.20296 8.452 2.93234 6.00907 -197958 -96738.2 1238.66 -28155.2 16198.6 -25292.1 -7.41643 
215 1 4.46231 7.24309 2.92367 6.00692 -167800 -127794 -676.598 -9907.67 25030 -7765.88 -7.41604 
216 1 5.1358 5.99514 2.92012 6.01402 -184513 -111049 3903.08 -12921 15043.1 -23723 -7.41616 
217 1 4.39361 4.78707 2.91241 6.01349 -160451 -135103 -2482.81 4058.53 15616.8 -10498.4 -7.41546 
218 1 5.06658 3.53896 2.91086 6.01962 -170063 -125850 3487.88 -1628.41 11363.6 -21524.8 -7.4158 
219 1 4.32318 2.33155 2.90494 6.01835 -153752 -141823 -1830.13 13015.1 5797.02 -12730.8 -7.41521 
220 1 4.99602 1.08347 2.90583 6.02037 -154847 -140926 1209.87 4132.72 5208.42 -18693.9 -7.41546 
282 1 7.35917 9.62237 2.94617 6.00073 -216300 -77581.6 9118.89 -29842.5 15325.2 -33903.8 -7.41751 
283 1 6.62012 8.41247 2.93718 5.99846 -184589 -109693 -7051.14 -6994.84 25425 -7710.5 -7.41615 
284 1 7.29379 7.16449 2.93438 6.00758 -200630 -94433 11076.9 -12059.9 16205 -32339.2 -7.41721 
285 1 6.55297 5.95555 2.92574 6.00582 -173278 -121377 -8001.92 10302.4 16544.1 -12087 -7.41561 
286 1 7.22612 4.70746 2.92452 6.0151 -183667 -112177 9351.92 2407.36 14585 -29871.7 -7.41673 
287 1 6.48377 3.49935 2.91708 6.01241 -162568 -132412 -5872.87 22748.6 6966.61 -15801.3 -7.41539 
288 1 7.15675 2.25131 2.91792 6.01613 -165501 -130414 5054.28 11440.4 10322.5 -26633.7 -7.4162 
289 1 6.41325 1.04385 2.91242 6.01537 -152156 -143141 -1881.78 28881.1 -2420.91 -18930.7 -7.41547 
351 1 8.77628 9.58404 2.95153 5.9916 -201084 -91268.4 -17518.6 -4199.58 24384 -6082.02 -7.41602 
352 1 9.45026 8.33611 2.9496 5.9999 -215271 -78756.5 22192.9 -9812.42 16495 -39128.1 -7.4186 
353 1 8.71091 7.12622 2.94074 5.99926 -186723 -106081 -17371.8 16887.5 16217.8 -11794.9 -7.41557 
354 1 9.38438 5.87821 2.93996 6.00851 -197253 -98114.2 18908.4 8037.72 17198.3 -36705.6 -7.41801 
355 1 8.64326 4.66927 2.93173 6.00771 -173167 -120554 -13425.5 33284.5 7011.83 -16736.7 -7.41544 
356 1 9.31651 3.42132 2.93255 6.01222 -177802 -118256 12264.3 20807.7 15110.4 -33322.9 -7.41728 
357 1 8.57395 2.21318 2.92574 6.01176 -159908 -134702 -6870.82 43278.1 -2314.9 -20988.9 -7.41563 
358 1 9.24735 0.965462 2.92849 6.00615 -156832 -138848 3673.56 26936.5 10281.8 -29132.6 -7.41654 
1597 2 0.463737 8.61172 6.47548 6.01508 -132184 -163700 9352.19 32149.3 33162.3 2304.84 -7.41673 
1598 2 0.531549 6.15725 6.48914 6.01966 -135582 -160458 3488.57 18321 24323.4 921.505 -7.4158 
1599 2 0.601467 3.70274 6.49945 6.02339 -139950 -156064 647.324 7567.82 14598.5 -552.958 -7.41521 
1600 2 0.672758 1.24811 6.50502 6.02746 -145056 -150724 -165.433 1734.71 4794.46 -1958.08 -7.41495 
1601 2 7.28211e-06 -3.64616e-06 6.50598 6.03062 -147969 -147867 -188.741 30.5422 0.135356 -0.0340024 -7.41491 
1662 2 2.55775 9.89883 6.46562 6.00756 -110586 -184451 11077.1 39917.7 36109.5 2135.34 -7.41721 
1663 2 1.88119 8.65279 6.47426 6.00583 -143353 -151271 -8003.11 27722.6 18739.2 -8283.84 -7.41561 
1664 2 2.62405 7.44528 6.47988 6.01401 -118310 -177375 3904.48 25318.9 28067.3 -1165.8 -7.41616 
1665 2 1.94893 6.1985 6.48759 6.01345 -145053 -150674 -2483.28 13029.3 16900.5 -8273.33 -7.41546 
1666 2 2.69274 4.99148 6.49165 6.01748 -127114 -168694 254.153 12660 18820.4 -4451.22 -7.41547 
1667 2 2.01879 3.74406 6.49767 6.02054 -146215 -149724 -156.746 1612.78 12475 -8120.37 -7.41523 
1668 2 2.76318 2.53732 6.49947 6.02106 -137027 -158770 -721.781 3852.69 9148.25 -7520.16 -7.41512 
1669 2 2.09004 1.28946 6.50313 6.02687 -147219 -148641 95.0034 -4734.64 5502.18 -7823.79 -7.41504 
1670 2 2.83456 0.0827617 6.5022 6.02425 -147617 -148258 -150.529 449.203 -47.7944 -10188.6 -7.41506 
1731 2 3.97537 9.93941 6.46282 5.99848 -122522 -172012 -7052.85 29021.7 19390 -18161.8 -7.41615 
1732 2 4.71818 8.73187 6.46766 6.00904 -97715.2 -197168 1240.77 29802.8 30004.2 -1381.3 -7.41643 
1733 2 4.04155 7.486 6.47633 6.00687 -129288 -166387 -678.019 12362.6 19240.8 -17791.8 -7.41604 
1734 2 4.78528 6.27892 6.47993 6.01304 -110477 -184714 -2646.72 15080.5 21414.6 -6354.75 -7.4157 
1735 2 4.11014 5.03224 6.48755 6.01602 -135507 -160534 1967.88 -1886.4 16588 -17047 -7.41577 
1736 2 4.85446 3.82543 6.4892 6.01596 -124475 -170885 -3212.91 3446.21 12093.3 -11025.5 -7.41533 
1737 2 4.1805 2.57808 6.49503 6.02288 -141511 -154486 1789.18 -11699.3 11239.1 -15962.6 -7.41546 
1738 2 4.925 1.37132 6.4942 6.01737 -139470 -156199 -1500.26 -3358.13 2902.43 -15185.8 -7.41527 
1739 2 4.25183 0.123491 6.49767 6.02057 -147469 -148296 52.3447 -15649 3501.36 -14534.2 -7.41523 
1800 2 6.81413 10.0166 6.45397 6.00527 -76187.4 -217582 -5284.37 32463.3 30172.6 -23.0858 -7.4165 
1801 2 6.13583 8.77175 6.46273 6.00099 -110445 -185257 4550.6 10876.9 20503.6 -26568.1 -7.41696 
1802 2 6.87938 7.56455 6.46581 6.01037 -91889.6 -202383 -9028.55 15706.2 22449.2 -6401.28 -7.4158 
1803 2 6.20279 6.31875 6.47415 6.01128 -121302 -174857 7051.34 -6492.98 19948.6 -25393.6 -7.41666 
1804 2 6.94696 5.11182 6.47564 6.01072 -109119 -185357 -8785.11 1073.2 13629 -12421.9 -7.41547 
1805 2 6.27186 3.86517 6.48282 6.01899 -131631 -164226 6011.88 -19934.3 16639.1 -23698.9 -7.41622 
1806 2 7.01626 2.6583 6.48217 6.01086 -127490 -167381 -5490.71 -9331.29 4604.46 -17884 -7.41546 
1807 2 6.3423 1.41098 6.48755 6.01707 -141914 -153761 2568.74 -27735.9 10606.9 -21547.1 -7.41578 
1808 2 7.0865 0.203942 6.48444 6.01193 -146740 -149115 -397.289 -13839.4 -3689.44 -22641.1 -7.41574 
1869 2 8.23196 10.0554 6.44826 5.99603 -90787.1 -205064 13720 9464.53 20281.4 -33920.5 -7.41819 
1870 2 8.97521 8.84803 6.45081 6.00923 -73531.6 -219211 -19330.3 15350.7 22009.4 -4959.8 -7.41569 
1871 2 8.29703 7.6032 6.45901 6.00711 -105297 -190767 15804.2 -10955.7 22135.8 -32569 -7.41788 
1872 2 9.04092 6.39605 6.46037 6.00701 -92770.4 -200279 -18127 -2449.42 13880.3 -11993.3 -7.41542 
1873 2 8.36446 5.15025 6.46805 6.01365 -119381 -176451 13622 -28310.9 21219.7 -30464.8 -7.41733 
1874 2 9.10868 3.94319 6.46765 6.00396 -113520 -180123 -13038.2 -16676.3 5147.08 -18441.6 -7.41552 
1875 2 8.43364 2.69655 6.47413 6.01232 -133078 -162323 8180.92 -40360.1 17329.3 -27802 -7.41669 
1876 2 9.17777 1.48937 6.47158 6.00343 -135344 -159570 -5285.53 -25346 -3234.49 -24171.8 -7.41591 
1877 2 8.50377 0.242082 6.47632 6.01235 -146727 -148471 843.512 -45709.1 10767.3 -24651 -7.41608 
420 1 11.6053 9.51013 2.96445 5.99357 -226251 -66444.3 37011.7 -7291.98 15600 -43207 -7.42026 
421 1 10.8674 8.29929 2.95595 5.99468 -198805 -91499.9 -30642.3 22437.9 14836.2 -9995.46 -7.41527 
422 1 11.5413 7.05145 2.95569 6.00251 -208688 -85777.7 32290.6 14219.5 18871.2 -41242.5 -7.4196 
423 1 10.8015 5.84163 2.94732 6.00298 -183647 -108221 -24877.2 43254.3 6166.3 -15846.1 -7.41528 
424 1 11.4751 4.59385 2.94818 6.0079 -189437 -106371 23297.2 31262.4 19247.9 -38071.4 -7.41869 
425 1 10.7337 3.38493 2.94073 6.00909 -168881 -124390 -15627.4 57686 -2991.66 -20938.7 -7.41562 
426 1 11.4073 2.13734 2.94307 6.0011 -168133 -127534 11457.7 41582.9 16542.4 -33992.7 -7.41767 
427 1 10.6646 0.929143 2.93719 6.00842 -153839 -140199 -4390.39 64271.7 -11616 -25384.2 -7.41623 
489 1 13.0224 9.47472 2.97013 5.99308 -207377 -79962.2 -47155.9 25628.5 12593.3 -7100.15 -7.41473 
490 1 13.697 8.22718 2.97046 5.99809 -215625 -77336.5 48882.1 19660.3 19229.6 -42643.4 -7.4214 
491 1 12.9584 7.01652 2.96247 6.00054 -191973 -97344.4 -39949.4 51058.5 4682.34 -13460 -7.41487 
492 1 13.6326 5.76899 2.96342 6.00342 -198258 -96913.9 37959.3 41150.3 22305.8 -40097.2 -7.42036 
493 1 12.8923 4.55928 2.9559 6.00764 -177083 -114515 -28254.8 70339.5 -4148.98 -19062.3 -7.41536 
494 1 13.5664 3.3119 2.95786 5.99699 -178522 -117150 23151.2 56347.8 22040.8 -36497.8 -7.4191 
495 1 12.8245 2.10299 2.9515 6.00607 -161793 -131054 -13611.2 81827.8 -12846.9 -23979.9 -7.41615 
496 1 13.4989 0.855896 2.95475 5.99117 -157061 -137961 6212.04 63178.1 18500.2 -32104.3 -7.41779 
558 1 15.8517 9.40512 2.98324 5.9962 -216040 -74940.2 67263.4 22848.3 18008.7 -40292.4 -7.42328 
559 1 15.1141 8.19375 2.97605 6.00117 -196031 -90356.2 -57613.8 54917.4 2821.4 -10004.9 -7.41423 
560 1 15.7891 6.9466 2.97713 6.0004 -202064 -91690.6 55255.7 48923.7 23856.8 -38696 -7.42217 
561 1 15.0498 5.73617 2.97 6.00826 -182381 -106851 -44144.2 79488.6 -5468.19 -15689.5 -7.41486 
562 1 15.7245 4.48909 2.97162 5.9939 -185380 -109664 38212.4 69326.4 26266.9 -35935.6 -7.42073 
563 1 14.9835 3.27949 2.96527 6.00382 -168557 -122980 -26631.1 96370.9 -14079.3 -20716.4 -7.41582 
564 1 15.6583 2.0326 2.96777 5.98694 -166693 -128403 17960.2 81536.8 24994.3 -32324.5 -7.41914 
565 1 14.9161 0.823661 2.96278 5.99532 -154148 -138513 -6901.53 103695 -21886.5 -25173.3 -7.41705 
627 1 17.2688 9.3729 2.98725 6.0047 -193777 -88678 -76131.3 53755.4 908.626 -6106.44 -7.41345 
628 1 17.9449 8.12626 2.98847 5.9993 -198861 -92547 73456.7 52819.8 23639.9 -33565.2 -7.42398 
629 1 17.2063 6.91526 2.98208 6.00905 -182898 -103528 -61939.4 83106.3 -6624.14 -11332 -7.41416 
630 1 17.8818 5.6686 2.98339 5.99107 -186799 -106766 55326.5 78491 28771.5 -31873 -7.42244 
631 1 17.1416 4.45841 2.97744 6.00242 -171648 -117804 -42532.4 105748 -14936.3 -16011.1 -7.41524 
632 1 17.817 3.21181 2.97921 5.98435 -172440 -122113 32805.8 96506.3 30001.9 -29308 -7.42065 
633 1 17.0755 2.00229 2.97432 5.99211 -160013 -131459 -19804.8 118875 -22930 -20177.4 -7.41663 
634 1 17.7509 0.755896 2.97684 5.97992 -155920 -137862 7949.18 104428 27455.3 -26082.7 -7.4188 
695 1 19.4229 10.5533 2.9956 6.01055 -183883 -94029.1 -93274.1 46763.5 -658.956 -2567.13 -7.41265 
697 1 19.3621 8.09599 2.9915 6.01132 -176658 -105893 -79675.3 80069.2 -7267.7 -6727.67 -7.41337 
699 1 19.299 5.63925 2.98724 6.0015 -169445 -117335 -59712.9 107910 -15074.8 -10526.6 -7.4145 
701 1 19.2341 3.18307 2.98383 5.99061 -161826 -127940 -35251.8 127205 -23056.6 -13945.9 -7.41597 
703 1 19.1681 0.727419 2.98213 5.98262 -153212 -138010 -8365.94 135551 -30045 -17033.4 -7.41773 
1938 2 11.0728 10.1293 6.4363 6.00895 -58153.9 -232886 -33326.1 14793 20174.7 -2462.72 -7.41532 
1939 2 10.393 8.88541 6.44361 6.00302 -89671.5 -206128 28395.9 -14217.3 22715.1 -37861.7 -7.41939 
1940 2 11.1365 7.67794 6.44488 6.00383 -77913.5 -213207 -31317.1 -6090.77 12980.6 -10126.9 -7.41514 
1941 2 10.4585 6.43302 6.45225 6.0075 -106407 -188995 25057 -35541.6 24511.8 -35647.8 -7.41878 
1942 2 11.2024 5.22568 6.45219 5.99861 -99563.5 -192098 -24517.9 -24278.8 4716.46 -17209 -7.41535 
1943 2 10.5261 3.9798 6.45897 6.00503 -122666 -172131 17547.8 -52104.4 23140.1 -32731.1 -7.41794 
1944 2 11.2701 2.7724 6.45711 5.99609 -122755 -170652 -14106.4 -37608.1 -3641.62 -23562.9 -7.41589 
1945 2 10.5951 1.52575 6.4627 6.00584 -138679 -156000 7211.38 -62260.4 18649.9 -29295 -7.41704 
1946 2 11.3387 0.318067 6.45879 5.99682 -145897 -149005 -1573.02 -43754.9 -11071.5 -29151 -7.4167 
2007 2 12.4907 10.1654 6.42922 5.99886 -76775.7 -218112 44253.1 -15131.7 21263.9 -40485.6 -7.42112 
2008 2 13.2336 8.95753 6.43045 6.00303 -66888 -221633 -47717.8 -8855.76 11093.9 -7233.71 -7.41462 
2009 2 12.5542 7.71343 6.43683 6.00251 -94907.5 -199599 40105.1 -40321.6 26002.4 -38504.5 -7.42048 
2010 2 13.2976 6.5057 6.43718 5.99571 -87884.6 -201195 -39638 -31098 3521.96 -14550.9 -7.41493 
2011 2 12.62 5.2606 6.44352 5.99832 -112581 -181243 30790.8 -61600.1 27479.9 -35658.7 -7.4195 
2012 2 13.3636 4.05287 6.44247 5.99088 -110929 -180080 -26907.2 -49277.1 -4632.55 -21161.9 -7.41561 
2013 2 12.6875 2.80692 6.44817 5.9973 -129962 -163945 17635.3 -76849 25467.6 -32226.7 -7.41835 
2014 2 13.431 1.59902 6.44535 5.98918 -134370 -159026 -11060.7 -60577.7 -12345.9 -27002.2 -7.41659 
2015 2 12.756 0.352397 6.44994 6.00001 -146333 -147309 2264.6 -84046.8 20313 -28336.9 -7.41718 
2076 2 15.332 10.2351 6.41804 6.00542 -61996.8 -223055 -65939.3 -9810.08 8512.57 -3830.51 -7.41391 
2077 2 14.6514 8.99168 6.42293 5.99943 -86972.3 -205724 57747.9 -41517.6 25225.1 -38339.1 -7.42233 
2078 2 15.3941 7.78344 6.42372 5.99605 -80760.7 -204858 -57364.6 -35877.5 1839.18 -10892 -7.41428 
2079 2 14.7153 6.53903 6.42904 5.99333 -104774 -187476 47285.4 -67297.7 29756.8 -35870.9 -7.42128 
2080 2 15.4584 5.33087 6.42886 5.98874 -102122 -185880 -43035.3 -58855.9 -5895.62 -17342.2 -7.41506 
2081 2 14.7811 4.08558 6.43404 5.99023 -122298 -170233 31873.2 -87888.8 30571.7 -32751.3 -7.41993 
2082 2 15.5244 2.87736 6.43244 5.98435 -124341 -166609 -24507.4 -75692.9 -13707.3 -23053.4 -7.41619 
2083 2 14.8483 1.63135 6.43697 5.99073 -138802 -153979 13206.8 -100652 27730.9 -29168.2 -7.41846 
2084 2 15.5913 0.422877 6.43367 5.98365 -146210 -147412 -3569.71 -83770.8 -20475.1 -28027.5 -7.41759 
2145 2 16.75 10.2682 6.41139 5.99921 -84673 -205453 76222.7 -38326.1 21964.2 -34803 -7.42418 
2146 2 17.4917 9.05933 6.41261 5.99954 -80174.1 -201329 -75952.9 -37419 59.4967 -6830.42 -7.41348 
2147 2 16.8118 7.81543 6.41651 5.9911 -101178 -188661 65613.1 -68055.9 29508.4 -32877.1 -7.42315 
2148 2 17.5542 6.60673 6.41721 5.99042 -98249.8 -185846 -61111.3 -64942.2 -7060.35 -12620.8 -7.41431 
2149 2 16.8759 5.36198 6.4214 5.98563 -117654 -172960 48908.2 -93642.6 33350.4 -30307.5 -7.42168 
2150 2 17.6187 4.15335 6.42106 5.98328 -117964 -170148 -40920.1 -87278.3 -14753.3 -17781.1 -7.41553 
2151 2 16.9417 2.90788 6.42502 5.98363 -133164 -158500 27818.9 -112273 33189.8 -27289.2 -7.41999 
2152 2 17.6845 1.69915 6.42323 5.97957 -137424 -153980 -17259.9 -101127 -21963.1 -22255.7 -7.41705 
2153 2 17.0085 0.453129 6.42657 5.9857 -147298 -144796 4280.3 -121093 29409 -23913.6 -7.41825 
2215 2 18.9095 9.09039 6.40659 5.99242 -103539 -183496 83738 -62871.1 26601.6 -26651.1 -7.42492 
2217 2 18.9718 6.63665 6.411 5.98453 -117737 -170609 67024.8 -92988.6 33414.7 -24712.9 -7.42346 
2219 2 19.0361 4.18243 6.41493 5.97978 -131130 -158974 44759.2 -117066 36137.4 -22417.2 -7.42164 
2221 2 19.1018 1.72774 6.41742 5.97896 -142945 -148359 18953.6 -131899 34782.7 -19849.1 -7.41966 
696 1 20.1001 9.30734 2.99695 6.00063 -187669 -100437 90371.8 51784.5 21650.3 -24996.2 -7.42559 
698 1 20.0386 6.84986 2.99254 5.99024 -181256 -109992 72583.1 81941.2 29324.6 -24401.2 -7.42408 
700 1 19.9751 4.39304 2.98835 5.98164 -172425 -120637 49207.1 105678 33101.1 -22997.4 -7.42219 
702 1 19.91 1.93691 2.98536 5.97771 -161252 -132055 22342.1 119852 32758.1 -20991.1 -7.42014 
764 1 22.2554 10.489 3.00238 6.00461 -169187 -115636 103700 45231.4 18124.4 -13829.3 -7.42683 
765 1 21.5175 9.27758 2.99798 6.01376 -163102 -114882 -95069.8 69762.2 -7055.19 -2741.41 -7.41263 
766 1 22.1952 8.03208 2.99874 5.99094 -168256 -119627 87789.1 78705.1 27965.8 -14163.9 -7.42547 
767 1 21.4559 6.82128 2.99425 6.00183 -160510 -122496 -76105.5 101920 -14191.3 -5122.37 -7.41371 
768 1 22.1329 5.57556 2.99474 5.98095 -165700 -125009 65190.7 107353 34123.5 -13861.6 -7.42361 
769 1 21.3923 4.36533 2.99078 5.99028 -157974 -129418 -51472.4 126864 -21968.5 -7315.55 -7.41518 
770 1 22.0687 3.11948 2.99137 5.97546 -160819 -131507 37922.1 127569 36041.1 -13075.7 -7.42148 
771 1 21.3272 1.90969 2.9885 5.98171 -154572 -135660 -23278.4 141534 -29297.1 -9341.44 -7.41698 
772 1 22.0035 0.663844 2.9895 5.97487 -153546 -138557 8175.75 136644 33935.8 -11914.6 -7.41928 
833 1 23.6729 10.4591 3.00153 6.01627 -143141 -130675 -105872 53062.2 -5697.88 -173.796 -7.41206 
834 1 24.3519 9.21438 3.00198 5.99364 -149113 -135726 98759 68679.8 24961.9 -2209.16 -7.42643 
835 1 23.6126 8.00364 2.99837 6.00227 -144838 -133948 -89489.1 87719.4 -12046.8 -701.888 -7.41301 
836 1 24.2906 6.75849 2.99824 5.98254 -152268 -135448 78629 100903 33159.9 -2800.01 -7.42474 
837 1 23.5502 5.54822 2.99494 5.99039 -147630 -136486 -66386.7 117205 -19459.1 -1240.37 -7.41438 
838 1 24.2273 4.30275 2.99463 5.97575 -153888 -136450 52702.4 126300 37214.4 -3094.88 -7.42266 
839 1 23.486 3.09287 2.99223 5.98181 -150107 -138344 -38580 137813 -26949.8 -1814.02 -7.41612 
840 1 24.1626 1.84721 2.99211 5.97374 -153307 -138278 23165.6 141718 36993.9 -3173.73 -7.42042 
841 1 23.4207 0.63755 2.99101 5.97681 -151210 -139573 -8228.29 146980 -33341.9 -2449.37 -7.41814 
902 1 26.509 10.3959 3.00244 5.99817 -125855 -157520 103585 53030.7 20733.5 10205 -7.42681 
903 1 25.7695 9.1854 2.9997 6.00414 -123897 -151688 -97786.7 66819.3 -8501.06 1978.54 -7.41253 
904 1 26.4486 7.94089 2.99894 5.98641 -134041 -151619 87481.1 86957.5 30501.6 9042.91 -7.42543 
905 1 25.708 6.7308 2.99633 5.99202 -131241 -149447 -77890.5 98998.2 -15421.5 3384.88 -7.4137 
906 1 26.386 5.48579 2.99513 5.97844 -141298 -146941 64637.7 116176 36412.8 7911.64 -7.42354 
907 1 25.6446 4.27602 2.99322 5.98276 -139386 -146558 -52225.2 124414 -22908 4563.99 -7.41528 
908 1 26.3217 3.03061 2.99202 5.97514 -146986 -143442 37078.1 137019 38010.3 6802.13 -7.42139 
909 1 25.5798 1.82101 2.9913 5.97727 -146846 -142968 -22926.8 139706 -29890.9 5475.66 -7.41717 
910 1 26.2564 0.575362 2.99043 5.97555 -150534 -140599 6984.46 146664 35608.3 5700.31 -7.41917 
971 1 27.9267 10.3658 2.9986 6.00724 -99919.7 -175097 -99350.1 41696.3 -3566.52 2466.72 -7.41238 
972 1 28.607 9.12193 2.99714 5.99212 -112963 -172476 90066.5 67262 26577.6 20437 -7.42555 
973 1 27.8662 7.9122 2.99517 5.99546 -110890 -167950 -84108.9 74419 -9873.52 5898.25 -7.41326 
974 1 28.5451 6.6677 2.99307 5.98343 -124933 -162458 71849.3 98442.2 33940.8 18788.5 -7.42399 
975 1 27.8035 5.45822 2.99163 5.98581 -123622 -160087 -62250.7 102789 -17204.1 8969.86 -7.41457 
976 1 28.4812 4.21312 2.98934 5.97806 -135858 -153565 47957.6 123284 37155.5 16925.6 -7.42205 
977 1 27.7391 3.00378 2.98897 5.97918 -136653 -151536 -35726.6 123036 -24586.9 11595.9 -7.41624 
978 1 28.4158 1.75823 2.9869 5.97664 -145092 -145705 20479.8 138458 36201.5 14892.3 -7.41996 
979 1 27.6736 0.548854 2.98794 5.97575 -148615 -142809 -6634.16 132393 -30849.9 13761 -7.41819 
2214 2 19.59 10.334 6.40433 6.00545 -87450.8 -189556 -93169.5 -34804.4 -1340.92 -3133.01 -7.41267 
2216 2 19.6508 7.88104 6.40812 5.99488 -101084 -179078 -79146.4 -66152.4 -7695.64 -7726.74 -7.41346 
2218 2 19.7138 5.42749 6.4119 5.9862 -116762 -167868 -58647.1 -93493.7 -15079.1 -11869.5 -7.41468 
2220 2 19.7785 2.97334 6.41469 5.97984 -132782 -156157 -33551.2 -113219 -22519 -15458 -7.41626 
2222 2 19.8442 0.51855 6.41572 5.97693 -147828 -144259 -5899.38 -122449 -28849.9 -18483.2 -7.41812 
2283 2 21.0078 10.3646 6.39961 5.99773 -112917 -171361 99337.5 -51744.3 21323.4 -17677.6 -7.4264 
2284 2 21.7479 9.15456 6.40187 6.00196 -111260 -165032 -94822.6 -61571.3 -7380.46 -3510.66 -7.41267 
2285 2 21.0685 7.91029 6.40332 5.98683 -123823 -162291 84063.4 -85076.4 30749.2 -16277.6 -7.42507 
2286 2 21.8095 6.70053 6.40536 5.99063 -121833 -159385 -75566.9 -93073.8 -14297.9 -6175.72 -7.4138 
2287 2 21.1313 5.45566 6.40726 5.97966 -134080 -154439 62135.1 -113870 36308.7 -14713.9 -7.42325 
2288 2 21.873 4.24613 6.40852 5.98213 -133173 -152906 -50587.4 -118130 -21774.6 -8486.99 -7.41533 
2289 2 21.1958 3.00078 6.4104 5.97617 -142798 -147628 35527.1 -134525 37587.7 -13030.7 -7.42116 
2290 2 21.9379 1.79135 6.41043 5.97674 -144099 -145911 -21982.1 -133377 -28745.2 -10396.3 -7.41719 
2291 2 21.2614 0.545672 6.41194 5.97661 -149543 -141709 6380.11 -144160 34926.5 -11238.8 -7.41901 
2352 2 23.8451 10.4282 6.39845 6.01247 -128376 -145098 -105831 -51075.6 -5797.21 -753.441 -7.41207 
2353 2 23.1656 9.18375 6.39854 5.99226 -136337 -148189 97716.1 -70277.8 25740 -5745.82 -7.42632 
2354 2 23.9053 7.97331 6.40157 5.99908 -133324 -145044 -89382.4 -85511 -12102 -1576 -7.41303 
2355 2 23.2269 6.72842 6.40228 5.98189 -142687 -144624 77754.8 -102535 33803.9 -4777.7 -7.42464 
2356 2 23.9678 5.51837 6.40492 5.98784 -139413 -144168 -66198.5 -114917 -19445.7 -2263.2 -7.41441 
2357 2 23.2904 4.27308 6.40585 5.97572 -147443 -142235 52002.1 -128031 37694.8 -3927.66 -7.42257 
2358 2 24.0319 3.06333 6.40755 5.97998 -145462 -142696 -38295.5 -135660 -26851.9 -2767.85 -7.41617 
2359 2 23.3552 1.81776 6.4083 5.97445 -150379 -140821 22628.2 -143555 37318.3 -3155.43 -7.42034 
2360 2 24.0972 0.60815 6.40867 5.97582 -150448 -140609 -7829.09 -144985 -33143.4 -3069.1 -7.4182 
2421 2 25.2627 10.4579 6.39656 6.00166 -154586 -129477 105818 -49745.7 19096.7 5839.46 -7.42704 
2422 2 26.0011 9.24672 6.40038 6.01112 -150399 -126349 -97925.1 -70986.2 -8339.14 1230.92 -7.41251 
2423 2 25.3228 8.00158 6.40002 5.98848 -156759 -130042 89387.1 -83750.6 29076.6 6463.59 -7.42563 
2424 2 26.0625 6.79097 6.40387 5.99772 -150954 -130827 -78177.2 -103542 -15372.9 2396.19 -7.41365 
2425 2 25.3851 5.54552 6.40387 5.97905 -157428 -132136 66203.3 -112877 35293.5 6652.49 -7.42373 
2426 2 26.1259 4.3354 6.40713 5.98703 -151998 -134732 -52686.9 -128893 -23014.3 3513.1 -7.4152 
2427 2 25.4492 3.08974 6.40709 5.97426 -156127 -135402 38307.7 -133491 37216.7 6513.16 -7.42155 
2428 2 26.1908 1.87997 6.40924 5.97977 -152204 -137871 -23596.4 -143866 -30179.7 4605.96 -7.41707 
2429 2 25.5144 0.634231 6.40884 5.97448 -152695 -139147 7908.15 -142816 35096.5 6118.07 -7.41931 
2490 2 28.0963 10.5216 6.40149 6.01684 -171373 -104941 -99487.8 -50789.8 -3075.32 1879.57 -7.41236 
2491 2 27.4185 9.27599 6.40031 5.99901 -175321 -111521 95038.5 -59245.9 22868.4 17875.9 -7.42606 
2492 2 28.1569 8.06479 6.40514 6.00888 -166831 -114116 -84560.2 -84933.7 -9581.87 4945.54 -7.41318 
2493 2 27.4798 6.819 6.40438 5.98677 -171920 -117956 76016.7 -90366.4 30873.2 17675 -7.42446 
2494 2 28.2197 5.60845 6.40902 5.99765 -162807 -122983 -63097.1 -113571 -17235.2 7770.35 -7.41442 
2495 2 27.5432 4.36252 6.4083 5.9787 -166565 -125591 51297.9 -114892 34872.5 16828.3 -7.42247 
2496 2 28.2842 3.15253 6.41212 5.98728 -158422 -131015 -37037.9 -133499 -25023.5 10343.2 -7.41602 
2497 2 27.608 1.90657 6.41108 5.97548 -158907 -134100 23034.3 -129564 34667.8 15499 -7.42032 
2498 2 28.3499 0.696977 6.41362 5.97975 -152779 -138434 -8507.68 -142031 -31772.3 12703.4 -7.4179 
1040 1 30.766 10.3009 2.99339 5.99767 -92146.1 -195909 85393.1 44215.7 21937.6 30189.8 -7.42506 
1041 1 30.0248 9.09168 2.99191 5.99958 -88826.7 -190432 -83693.5 46449 -3000.98 6004.94 -7.41315 
1042 1 30.7046 7.84773 2.98887 5.98888 -106981 -181113 72928.6 75381.3 30239.4 28402.2 -7.42391 
1043 1 29.9627 6.63867 2.9878 5.99013 -104862 -177810 -67017.8 75678.8 -10020.6 10900.2 -7.41411 
1044 1 30.641 5.39393 2.9844 5.98276 -121862 -167565 54127.7 102384 34751.2 26107.7 -7.42231 
1045 1 29.8986 4.18498 2.98428 5.98264 -122209 -164769 -44825 99132.8 -17606.5 15238.2 -7.41547 
1046 1 30.5757 2.9396 2.981 5.98023 -135606 -155183 30812.5 121785 35136.7 23454 -7.42045 
1047 1 29.8331 1.7306 2.98224 5.97818 -139279 -151385 -19089.7 113584 -24696.9 18961.8 -7.41713 
1048 1 30.5093 0.484732 2.97948 5.98187 -147865 -143642 5003.38 130997 31773.6 20507.1 -7.41855 
1109 1 32.1839 10.2688 2.98725 6.0047 -68374.1 -214050 -76133 18499 4832.1 3840.27 -7.41345 
1110 1 32.8646 9.02538 2.98324 5.99624 -90480.8 -200464 67267 49664.7 25889.9 35741.2 -7.42328 
1111 1 32.1223 7.81679 2.98233 5.99512 -85656.5 -197815 -65514.4 46321.4 -1707.92 10274.8 -7.41398 
1112 1 32.8013 6.57244 2.97781 5.98957 -107431 -183208 54509.3 77033.9 31267.6 33381 -7.42208 
1113 1 32.0585 5.36396 2.97774 5.98695 -105619 -180917 -48854.4 71115.6 -9299.07 16130 -7.41494 
1114 1 32.736 4.11879 2.97324 5.98601 -124082 -167319 36564.2 99006.5 32774.1 30439.6 -7.42056 
1115 1 31.993 2.91027 2.97449 5.98183 -126331 -163584 -27834.4 88999.6 -16960.8 21286.5 -7.41624 
1116 1 32.6693 1.66443 2.9705 5.98619 -139702 -152345 15248.1 112523 30461.7 27080.6 -7.4189 
1117 1 31.9266 0.455696 2.97336 5.98046 -146548 -146398 -4339.01 97523.6 -23551 25741.9 -7.41781 
1178 1 35.025 10.2005 2.97713 6.00036 -76989.3 -216685 55259.3 23317.9 21583.3 40009.1 -7.42217 
1179 1 34.2824 8.99232 2.97605 6.00122 -69174.9 -217288 -57615.6 18209.5 7252.92 7445.58 -7.41423 
1180 1 34.962 7.74836 2.97046 5.99811 -95237.3 -198135 48885.2 50111.6 27316.9 37974.2 -7.4214 
1181 1 34.2189 6.54033 2.97013 5.99311 -89683.4 -197795 -47157.8 42187 -146.992 14455.8 -7.41473 
1182 1 34.8968 5.29539 2.96445 5.9936 -112938 -179871 37014.4 72917.8 29619.6 35113.5 -7.42026 
1183 1 34.1535 4.08738 2.9654 5.98751 -112017 -177713 -31791.7 61815.6 -8131.63 20763.2 -7.4156 
1184 1 34.8299 2.84162 2.9602 5.99232 -130131 -162702 21104.6 89332.5 28244.4 31692.1 -7.41892 
1185 1 34.0866 1.63344 2.9628 5.98524 -134880 -157740 -13173 74169.8 -15657 26308.6 -7.41678 
1186 1 34.762 0.387035 2.95853 5.99498 -146472 -146632 2886.17 97126.8 23559 27834.4 -7.41755 
1247 1 36.4429 10.1654 2.97 6.00823 -56951.8 -232461 -44145.6 -7109.02 16321.1 3108.83 -7.41486 
1248 1 37.123 8.92171 2.96342 6.00343 -86666.6 -208616 37961.8 23367.4 23572.9 39365.9 -7.42036 
1249 1 36.3798 7.71404 2.96247 6.00054 -77032.3 -212653 -39950.9 15323.3 9315.78 10785 -7.41487 
1250 1 37.0581 6.46934 2.9557 6.00251 -104436 -190308 32292.6 46160.2 26282.9 36964 -7.4196 
1251 1 36.3144 5.26176 2.95595 5.99473 -99059.2 -191519 -30643.8 35088.2 1239.34 17846.2 -7.41527 
1252 1 36.9911 4.01611 2.94961 5.99991 -121607 -172633 22195.3 64062.3 25639.9 33849.7 -7.4186 
1253 1 36.2473 2.80845 2.95153 5.99163 -122427 -170133 -17520.5 49608 -6923.58 24156.9 -7.41601 
1254 1 36.9227 1.56203 2.94618 6.00071 -138216 -155786 9120.97 75139.4 21700.7 30223.8 -7.41752 
1255 1 36.1793 0.354092 2.95002 5.99196 -145779 -148613 -2167.62 56432.5 -14112.1 29703.6 -7.41702 
1317 1 38.5409 8.88537 2.9559 6.00761 -69164.4 -222509 -28256.8 -8150.88 18581.6 5937.42 -7.41536 
1319 1 38.4757 6.43354 2.94732 6.00297 -89695.9 -202345 -24878.7 10967.6 10639.5 13263.5 -7.41528 
1320 1 39.1526 5.188 2.93996 6.00852 -115999 -179538 18910.2 38895.2 23189.3 33247.4 -7.41802 
1321 1 38.4085 3.98075 2.94074 5.99927 -111750 -181308 -17372.9 26300.1 2106.7 19942.7 -7.41556 
1322 1 39.084 2.73436 2.93438 6.00757 -131399 -163601 11079.3 52028 19904.5 30204.5 -7.41721 
1323 1 38.34 1.52696 2.93718 5.99842 -134530 -159843 -7051.63 35933.6 -6034.26 25873.1 -7.41615 
1324 1 39.0143 0.279888 2.93234 6.00901 -146418 -148213 1238.88 57997.5 13804.8 26674.7 -7.41643 
2559 2 29.5137 10.5523 6.40272 6.00237 -196462 -90576.3 93306.8 -31512.7 16110.5 28235.7 -7.42583 
2560 2 30.2508 9.34052 6.40829 6.00985 -185095 -95823.5 -83972.4 -60874.8 -2334.19 5225.57 -7.41311 
2561 2 29.5742 8.09426 6.40708 5.99649 -189605 -100596 79695.5 -62879.2 25186 27983.2 -7.42463 
2562 2 30.3129 6.88327 6.41285 6.00801 -176682 -108669 -67841.2 -91454 -9728.36 9670.99 -7.41397 
2563 2 29.6369 5.63692 6.4117 5.98729 -180547 -112219 59669.9 -89716.3 30796 26723.7 -7.42296 
2564 2 30.3771 4.42666 6.41701 5.99811 -168038 -120940 -46304.2 -114976 -17853.2 13677.3 -7.41521 
2565 2 29.7014 3.18033 6.41554 5.98082 -169150 -124934 35133 -108590 32361.7 24703.8 -7.42102 
2566 2 30.4429 1.97068 6.4198 5.98795 -158606 -132456 -21348.5 -128587 -25607.3 17266.8 -7.41676 
2567 2 29.7671 0.724495 6.41772 5.97781 -155302 -137899 8207.12 -116899 30037.2 22102.4 -7.41903 
2629 2 31.668 9.37178 6.41139 5.99925 -208309 -81892.5 76225.3 -33211.3 19158.4 36421.7 -7.42418 
2630 2 32.4056 8.16035 6.41804 6.00549 -191370 -93838.7 -65940.7 -64723.5 -939.91 9287.53 -7.41391 
2631 2 31.7301 6.91353 6.41683 5.99653 -196549 -96712.1 62013.8 -60747.5 25737.6 35111.5 -7.42292 
2632 2 32.4695 5.70298 6.42339 6.00896 -179450 -109217 -50051.9 -90433 -9073.99 14534.5 -7.41472 
2633 2 31.7943 4.45619 6.42181 5.98976 -182079 -112654 42544.9 -82336 28706.1 32727.9 -7.42131 
2634 2 32.5352 3.24642 6.4276 5.99909 -167039 -124017 -29945.4 -108176 -17477.3 19196.3 -7.41587 
2635 2 31.86 1.99978 6.42533 5.98319 -165318 -129370 19758.8 -95242.4 27818.3 29554.9 -7.41955 
2636 2 32.6021 0.790631 6.4298 5.99058 -153933 -138197 -7545.28 -115819 -25004.8 23347.4 -7.4173 
2698 2 34.4978 9.43994 6.42371 5.99607 -204995 -80629.8 -57366 -35797.7 8512.06 7038.49 -7.41428 
2699 2 33.8227 8.19265 6.42293 5.99943 -211997 -80840 57750 -30749 20590.3 41014.1 -7.42233 
2700 2 34.5612 6.98182 6.43044 6.00301 -190750 -97995.7 -47719.1 -62503 716.795 13224.6 -7.41462 
2701 2 33.8866 5.73456 6.42922 5.99889 -195924 -99241.4 44256.5 -53691 24429 38658.1 -7.42112 
2702 2 34.6269 4.52465 6.4363 6.00898 -176391 -114699 -33327.8 -82902.4 -7953.9 18702.9 -7.41532 