ITEM: TIMESTEP
0
ITEM: NUMBER OF ATOMS
3176
ITEM: BOX BOUNDS pp pp pp
0.0000000000000000e+00 4.8935453299999999e+01
0.0000000000000000e+00 8.4758691400000004e+01
0.0000000000000000e+00 1.8399999999999999e+01
ITEM: ATOMS id type x y z c_csym c_2[1] c_2[2] c_2[3] c_2[4] c_2[5] c_2[6] c_3 
74 1 0.247 9.821 3 6.02132 -101635 -187400 -58173.7 17277.9 50925.8 -1353.86 -7.41581 
75 1 0.924 8.576 3 6.01789 -144714 -153554 -89690.1 12809.7 28581.1 -5957.55 -7.41447 
76 1 0.185 7.366 3 6.02358 -134931 -130313 -80861.2 -10581.3 41689.2 -1261.99 -7.41458 
77 1 0.863 6.12 3 6.02659 -168801 -89056.5 -97392.4 478.52 25533 -5773.01 -7.41361 
78 1 0.123 4.91 3 6.02227 -130466 -143390 -97415 13462.9 29309.6 -847.421 -7.4141 
79 1 0.801 3.665 3 6.02489 -127130 -148470 -104459 -5183.79 18307.5 -5300.52 -7.41313 
80 1 0.062 2.455 3 6.02592 -140945 -159681 -107219 186.39 14896.9 -474.24 -7.41317 
81 1 0.74 1.21 3 6.02194 -161889 -132166 -109332 12737.3 6827.81 -4539.71 -7.41336 
82 1 0 0 3 6.02694 -132454 -112561 -110274 2418.85 -0.721667 -17.108 -7.41282 
144 1 3.082 9.75 3 6.02196 -178024 -123227 -80055 11056.5 27713 -19550.7 -7.41492 
145 1 2.342 8.54 3 6.02658 -105037 -153909 -71265.1 18899.4 45284.2 -5446.54 -7.41487 
146 1 3.02 7.295 3 6.02283 -174434 -124225 -87432.9 11578 27077.2 -19652 -7.41465 
147 1 2.28 6.085 3 6.02659 -148432 -111423 -89828 6769.65 34463.5 -7783.06 -7.41404 
148 1 2.958 4.839 3 6.02479 -126012 -111742 -95837.2 -18792 22273.6 -19282.3 -7.41331 
149 1 2.219 3.629 3 6.02393 -113253 -159787 -102160 4858.23 20952.3 -9950.97 -7.41364 
150 1 2.897 2.384 3 6.02606 -163238 -133684 -103000 7720.73 13291.3 -18026.4 -7.41357 
151 1 2.157 1.174 3 6.02513 -158667 -152254 -107710 23707.5 6236.96 -11562.6 -7.41311 
213 1 4.499 9.714 3 6.02479 -153571 -153846 -62259.4 23198.4 45826.7 -6695.22 -7.41575 
214 1 5.177 8.469 3 6.02527 -126954 -129875 -71100.7 6415.78 27135.5 -31795.1 -7.41509 
215 1 4.437 7.259 3 6.02327 -151456 -149799 -81766.1 24098.3 36583.5 -11538.1 -7.41483 
216 1 5.115 6.014 3 6.02258 -129625 -146745 -80218 -5153.42 25168.1 -31589.4 -7.41511 
217 1 4.376 4.804 3 6.02479 -109167 -128679 -94643.1 -4385.36 24623.5 -16078 -7.41338 
218 1 5.054 3.558 3 6.02659 -162873 -97083.8 -89780.6 -6600.48 18940.1 -30456.7 -7.41404 
219 1 4.314 2.348 3 6.02131 -154420 -139701 -101504 24206.1 10608.6 -20025.3 -7.41402 
220 1 4.992 1.103 3 6.02659 -123182 -167144 -97302.4 -17273 8802.43 -27934.9 -7.41357 
282 1 7.334 9.643 3 6.02582 -138780 -149166 -48680.3 -7655.04 25752.8 -41064.4 -7.41638 
283 1 6.595 8.433 3 6.02507 -110414 -169743 -74503.6 12799.7 36131.1 -12136.6 -7.41507 
284 1 7.273 7.188 3 6.02196 -173874 -132816 -58550.7 6716.18 26439.8 -41352.9 -7.41619 
285 1 6.533 5.978 3 6.02658 -102347 -150535 -87405.3 25031.9 25535.8 -18703.8 -7.41414 
286 1 7.211 4.733 3 6.02283 -168969 -134039 -70084.7 6204.22 23418 -40339.2 -7.41566 
287 1 6.471 3.523 3 6.02659 -150280 -108297 -93815.2 14225.8 12980.7 -24587 -7.4138 
288 1 7.149 2.277 3 6.0238 -119496 -122042 -81092.5 -25138.2 16311.2 -37980.2 -7.41414 
289 1 6.41 1.067 3 6.02163 -119217 -168959 -94057.7 17355.1 -377.594 -29506.2 -7.41412 
351 1 8.752 9.607 3 6.02393 -113337 -166085 -70551.5 15515.1 33442.2 -10371.1 -7.41544 
352 1 9.43 8.362 3 6.0261 -176776 -135762 -31716.7 5821.02 26221.3 -47765.9 -7.41776 
353 1 8.69 7.152 3 6.02479 -152063 -150341 -81651.4 29596.7 24374.8 -18241.9 -7.41461 
354 1 9.368 5.907 3 6.02527 -124405 -140466 -44962.7 3644.49 26265.2 -47175.1 -7.4164 
355 1 8.628 4.697 3 6.02327 -152216 -147312 -87183.4 29999 13087.6 -25570.9 -7.41451 
356 1 9.306 3.452 3 6.02258 -126249 -156750 -59172.8 -11966.8 22368.3 -45019.5 -7.41613 
357 1 8.567 2.242 3 6.02479 -111768 -128080 -86263.8 816.536 839.638 -31972.1 -7.41382 
358 1 9.245 0.996 3 6.02466 -159297 -117381 -71861.9 -18129.8 14642.5 -41391.7 -7.41511 
1597 2 0.493 8.611 6.4 6.02679 -112205 -170841 -70167.1 -10210.5 46665.1 -73.4347 -7.41535 
1598 2 0.555 6.156 6.4 6.02602 -147619 -115469 -89706.3 11642 35846.9 -1222.55 -7.41408 
1599 2 0.616 3.701 6.4 6.02099 -117700 -159558 -103022 21174.9 22250 -2428.2 -7.41322 
1600 2 0.678 1.245 6.4 6.02519 -161423 -146608 -109346 -8347.8 7439.7 -3539.32 -7.41339 
1601 2 0 0 6.4 6.02721 -137558 -145400 -110298 -11159.6 14.5834 15.9614 -7.41352 
1662 2 2.589 9.892 6.4 6.02327 -152548 -154128 -58544.5 -8926.77 49066.3 -2261.33 -7.41619 
1663 2 1.911 8.647 6.4 6.02258 -137370 -138847 -87254.5 -2063.14 29010.7 -12789.9 -7.41446 
1664 2 2.65 7.437 6.4 6.02324 -105926 -135442 -80238.2 19778.5 39983.7 -5932.97 -7.41422 
1665 2 1.972 6.191 6.4 6.02058 -177466 -121039 -94933.7 16444.3 26179.4 -13120.1 -7.41404 
1666 2 2.712 4.982 6.4 6.02213 -156192 -142067 -95864.6 22195.2 27757.1 -9748.84 -7.41401 
1667 2 2.034 3.736 6.4 6.02396 -121761 -114719 -102063 9843.91 19111.4 -13192.8 -7.41293 
1668 2 2.773 2.526 6.4 6.02105 -111593 -159131 -104569 4498.69 13767.4 -13103.6 -7.4137 
1669 2 2.095 1.281 6.4 6.02177 -163191 -132669 -107152 -16986.8 7828.28 -12635.1 -7.41334 
1670 2 2.835 0.071 6.4 6.02547 -103496 -117653 -106601 5284.65 -701.848 -15975.2 -7.41274 
1731 2 4.006 9.928 6.4 6.02283 -178869 -122407 -74526.4 -16983.6 28593.5 -25216.9 -7.41539 
1732 2 4.746 8.718 6.4 6.02658 -146059 -117750 -71023 8439.28 41095 -7625.92 -7.41513 
1733 2 4.068 7.472 6.4 6.02283 -140026 -140825 -81668.6 28596.4 28318.7 -25917.4 -7.41444 
1734 2 4.807 6.263 6.4 6.02283 -115649 -163827 -87521.6 41777.4 30546.6 -13566.8 -7.4141 
1735 2 4.129 5.017 6.4 6.02658 -164675 -95148 -89877.7 -6027.18 24067.1 -25856.8 -7.41404 
1736 2 4.869 3.807 6.4 6.02283 -152099 -144364 -97224.6 -5431.37 17795.9 -19333 -7.41409 
1737 2 4.191 2.562 6.4 6.02658 -114896 -136275 -97345.3 -17919.1 15462.1 -24984.5 -7.41357 
1738 2 4.931 1.352 6.4 6.02332 -154598 -142838 -100268 -4514.5 3939.42 -24242.6 -7.41373 
1739 2 4.253 0.107 6.4 6.02335 -119805 -165525 -101946 -3014.93 3389.51 -22999.5 -7.41376 
1800 2 6.841 9.999 6.4 6.02527 -107065 -135516 -63782.9 26468.9 39670.9 -6526.35 -7.41538 
1801 2 6.163 8.753 6.4 6.02213 -182195 -123491 -62222.4 12494.9 28715.8 -36348.7 -7.41596 
1802 2 6.903 7.544 6.4 6.02213 -155294 -146051 -79934.6 29648.2 30806 -14181.9 -7.41492 
1803 2 6.225 6.298 6.4 6.02396 -127761 -115675 -71103.2 8131.59 27358.4 -36510.5 -7.41475 
1804 2 6.964 5.088 6.4 6.02258 -111156 -164323 -89789.4 13740.4 19509.8 -21664 -7.41434 
1805 2 6.286 3.843 6.4 6.02327 -167321 -134476 -80883.7 -22315.8 21896 -35508.2 -7.41489 
1806 2 7.026 2.633 6.4 6.02658 -106055 -147603 -92573.6 -194.607 6710.03 -28501.5 -7.41362 
1807 2 6.348 1.388 6.4 6.02283 -161613 -137267 -89214.2 -25550.8 12612.7 -33193.6 -7.41452 
1808 2 7.088 0.178 6.4 6.02663 -156218 -116901 -89384 5193.6 -5742.5 -33983.9 -7.41409 
1869 2 8.259 10.034 6.4 6.02283 -144172 -146261 -38028 28090.7 27213 -43800.9 -7.41699 
1870 2 8.998 8.825 6.4 6.02283 -115770 -165833 -75027 47254.6 28975.6 -12196.7 -7.41481 
1871 2 8.32 7.579 6.4 6.02658 -170298 -99180.4 -46946.4 -7531.78 28692.9 -44303 -7.41655 
1872 2 9.06 6.369 6.4 6.02283 -150318 -146744 -83965.4 682.428 19136.2 -20900.2 -7.41505 
1873 2 8.382 5.124 6.4 6.02582 -131440 -153068 -58187.1 -6967.01 26564.6 -43402.5 -7.41604 
1874 2 9.121 3.914 6.4 6.02299 -118255 -181571 -86047.5 3953.18 7649.61 -28904.2 -7.41457 
1875 2 8.444 2.669 6.4 6.0205 -131515 -169645 -70072.7 -24989.1 20512.9 -40999.6 -7.41588 
1876 2 9.183 1.459 6.4 6.02612 -111034 -127006 -81556.6 28575.5 -4146.22 -35890.8 -7.41444 
1877 2 8.505 0.213 6.4 6.02466 -158904 -115935 -80102.8 -8598 10832.2 -37217.6 -7.41463 
420 1 11.587 9.536 3 6.02658 -172912 -106099 -2159.36 -5077.2 24264.2 -50486.2 -7.41919 
421 1 10.847 8.326 3 6.02283 -152186 -145698 -79314.6 32649.4 21557.2 -15555.7 -7.41531 
422 1 11.525 7.081 3 6.02582 -134838 -158802 -15706.8 -10875.7 27431.5 -50452.5 -7.41855 
423 1 10.786 5.871 3 6.02299 -118569 -181716 -82598.2 29165.4 11723.9 -23573.7 -7.41476 
424 1 11.463 4.626 3 6.02299 -135440 -177107 -32276.6 283.018 26687.2 -48895.6 -7.41773 
425 1 10.724 3.416 3 6.02582 -114572 -164001 -80036.5 14904.1 511.252 -31017.1 -7.41475 
426 1 11.402 2.171 3 6.02283 -162744 -143112 -49307.3 1700.35 21969.1 -45684 -7.41705 
427 1 10.662 0.961 3 6.02663 -154834 -119709 -72211.5 20600.5 -10566.8 -37368.3 -7.41533 
489 1 13.004 9.501 3 6.02213 -157536 -143319 -80245.2 1175.95 17784.8 -11409.6 -7.41489 
490 1 13.682 8.255 3 6.02396 -131176 -130924 15244.6 -21671.9 26659.1 -49957.6 -7.41985 
491 1 12.943 7.045 3 6.02258 -112028 -164646 -81729.3 17533 9208.8 -19662.2 -7.41479 
492 1 13.621 5.8 3 6.02327 -171316 -147492 -2197.8 4170.47 29079.3 -49135 -7.41952 
493 1 12.881 4.59 3 6.02527 -105610 -150904 -76914.9 30728.9 -866.866 -27394.1 -7.41452 
494 1 13.559 3.345 3 6.02479 -166255 -149914 -22360 1273.71 27627 -46729.3 -7.4181 
495 1 12.819 2.135 3 6.02608 -157263 -146066 -66629.1 29361.6 -11187.2 -34355.9 -7.41578 
496 1 13.497 0.89 3 6.02223 -115538 -144555 -42612.5 -2992.22 22442.5 -42647.8 -7.41668 
558 1 15.839 9.429 3 6.02041 -142744 -164695 46199.7 -37039.5 23925 -45495.1 -7.42213 
559 1 15.1 8.22 3 6.02283 -116889 -162671 -84167.7 -14986.9 6226.11 -14476.6 -7.41427 
560 1 15.778 6.974 3 6.02658 -169518 -117000 28539.7 -6546.78 29442.8 -45595.2 -7.42089 
561 1 15.038 5.764 3 6.02283 -152188 -147979 -77456.4 32156.8 -2837.88 -22062.7 -7.41521 
562 1 15.716 4.519 3 6.02658 -119383 -154358 6531.08 1431.44 31111.8 -44120.8 -7.41966 
563 1 14.976 3.309 3 6.02196 -154006 -150273 -65087 30067.1 -12396.8 -28981.6 -7.41579 
564 1 15.654 2.064 3 6.02507 -122254 -169920 -17050.6 -12379.8 28913 -41191.6 -7.41854 
565 1 14.915 0.854 3 6.02525 -116069 -143934 -47439.6 1231.62 -21125.7 -34878.7 -7.41614 
627 1 17.257 9.394 3 6.02527 -113920 -165687 -89962.8 17019.2 3186.79 -9011.04 -7.41397 
628 1 17.935 8.149 3 6.02283 -178125 -152064 57670.9 11455 27653.4 -38302.5 -7.42321 
629 1 17.195 6.939 3 6.02462 -148574 -112425 -81580.2 15856 -4755.02 -15661.6 -7.41451 
630 1 17.873 5.693 3 6.02479 -128524 -137573 35528.3 -21551.2 32445.7 -37767.6 -7.42106 
631 1 17.134 4.483 3 6.02258 -111060 -167497 -67250.9 15604.9 -13522 -21890 -7.41584 
632 1 17.812 3.238 3 6.02327 -165760 -155291 9801.6 5037.7 33078.5 -36134.2 -7.42023 
633 1 17.072 2.028 3 6.02641 -106339 -155552 -47775.1 24857.2 -22029 -27478.7 -7.4164 
634 1 17.75 0.783 3 6.02434 -162930 -163980 -16943.2 -1002.4 29963.6 -33309.9 -7.4188 
695 1 19.414 10.568 3 6.02527 -103862 -147045 -97294.4 22210.2 547.132 -4029.32 -7.41356 
697 1 19.352 8.113 3 6.0261 -152149 -147509 -88398.1 24301.6 -6239.14 -9252.7 -7.41443 
699 1 19.291 5.658 3 6.02479 -109194 -133373 -73288.6 -2895.53 -14242.7 -14201.2 -7.41461 
701 1 19.229 3.202 3 6.02283 -154731 -151708 -52079.9 26214.3 -22373.5 -18708.7 -7.4167 
703 1 19.167 0.747 3 6.02237 -160140 -166309 -27184.1 29773.3 -29465.9 -22918.2 -7.41805 
1938 2 11.094 10.106 6.4 6.02213 -156498 -145863 -73451.6 32794.5 25500.6 -8540.24 -7.41529 
1939 2 10.416 8.86 6.4 6.02396 -132618 -122215 -18802.8 8431.66 28094.2 -48746.6 -7.41783 
1940 2 11.155 7.65 6.4 6.02393 -110376 -166471 -81080.3 17274.5 17305.7 -17711.2 -7.41483 
1941 2 10.477 6.405 6.4 6.0261 -174051 -138885 -30719.3 -21643.5 29235.7 -48126.1 -7.41782 
1942 2 11.217 5.195 6.4 6.0261 -150830 -151383 -81924.5 3485.75 7033.55 -26457.4 -7.41459 
1943 2 10.539 3.95 6.4 6.02338 -120919 -140758 -45175.9 -26586.8 26525.9 -45988.8 -7.41676 
1944 2 11.279 2.74 6.4 6.02306 -147118 -114993 -76041.5 13949.9 -3937.43 -34317.9 -7.41483 
1945 2 10.601 1.494 6.4 6.02266 -127248 -158838 -59702.3 18259.5 19874.7 -42407.5 -7.41568 
1946 2 11.34 0.285 6.4 6.02174 -122826 -172757 -64485.2 42851.6 -14161.6 -40771.2 -7.41571 
2007 2 12.511 10.141 6.4 6.02658 -174277 -107552 11233 -5684.21 25354.9 -49601.1 -7.41999 
2008 2 13.251 8.931 6.4 6.02283 -150726 -146704 -81576.2 1767.35 14310 -13151.2 -7.41518 
2009 2 12.573 7.686 6.4 6.02582 -136707 -161954 -397.518 -5068.45 29677.6 -49393.5 -7.41924 
2010 2 13.312 6.476 6.4 6.02506 -108200 -169937 -81030.1 17709.9 5490.31 -21933.4 -7.41467 
2011 2 12.634 5.231 6.4 6.02196 -170839 -141972 -16226 -26369.8 30267.4 -47781.5 -7.41905 
2012 2 13.374 4.021 6.4 6.0261 -96455.7 -119176 -73653.1 16798.9 -4634.33 -30135.8 -7.4146 
2013 2 12.696 2.775 6.4 6.02213 -170556 -143096 -34336.1 3313.54 26919.1 -44673.9 -7.41739 
2014 2 13.436 1.566 6.4 6.02213 -159630 -146259 -60250.1 31693.5 -14446.5 -37142.3 -7.41603 
2015 2 12.758 0.32 6.4 6.02305 -117477 -142665 -51687.6 5413.2 20298.1 -40104.2 -7.4159 
2076 2 15.346 10.212 6.4 6.02393 -111977 -164171 -85734.3 15866.6 10706.6 -7920.21 -7.41456 
2077 2 14.668 8.967 6.4 6.0261 -178655 -147094 30662.3 -18776.7 27753.4 -47071.3 -7.42147 
2078 2 15.408 7.757 6.4 6.0261 -150445 -151492 -83617.5 2444.53 3235.64 -16365.3 -7.41449 
2079 2 14.73 6.512 6.4 6.02338 -124372 -148119 14538.8 -21983.3 31625.9 -46020.6 -7.42051 
2080 2 15.47 5.302 6.4 6.02306 -144752 -117454 -74948.3 13237.8 -5853.25 -24318.5 -7.41489 
2081 2 14.792 4.056 6.4 6.02283 -131376 -164345 -5700.04 19234.8 31662 -43628 -7.41911 
2082 2 15.531 2.847 6.4 6.02283 -118420 -166613 -59962.1 46398.1 -15088.8 -31175.1 -7.41569 
2083 2 14.853 1.601 6.4 6.02583 -157469 -116120 -27204 -14061.3 27981.3 -39877.1 -7.41767 
2084 2 15.593 0.391 6.4 6.02494 -159818 -160553 -40056.8 -7492.7 -23166 -36908.2 -7.41764 
2145 2 16.764 10.248 6.4 6.02582 -140465 -170623 60290.2 -1388.07 23519.6 -41048.4 -7.42287 
2146 2 17.503 9.038 6.4 6.02582 -111385 -167149 -89644 15854.6 967.492 -10478.2 -7.41397 
2147 2 16.825 7.793 6.4 6.02196 -175890 -149648 44995.8 -22371.5 30457.9 -40718.3 -7.4227 
2148 2 17.565 6.583 6.4 6.02603 -97528 -118928 -79749.6 11840.9 -7064.58 -17519.4 -7.41404 
2149 2 16.887 5.337 6.4 6.02213 -176354 -149685 24090.3 7594.42 33797.8 -39108 -7.42086 
2150 2 17.627 4.128 6.4 6.02213 -156998 -147964 -63660.7 29022.4 -15682.3 -23821.3 -7.41586 
2151 2 16.949 2.882 6.4 6.02396 -120928 -137589 119.525 3820.34 33176.9 -36230.1 -7.41895 
2152 2 17.688 1.672 6.4 6.02489 -115538 -170775 -42315.1 12006.6 -23741.1 -29167.2 -7.41707 
2153 2 17.01 0.427 6.4 6.02613 -163352 -160095 -24537.4 -21179.3 28927.2 -32347.3 -7.41856 
2215 2 18.921 9.074 6.4 6.02393 -138839 -169860 72612.7 -4059.44 26919.5 -32015.8 -7.42418 
2217 2 18.983 6.618 6.4 6.02056 -145194 -184914 52306.3 12028.8 33384.3 -31125.3 -7.42276 
2219 2 19.044 4.163 6.4 6.02658 -163660 -121411 27650.4 -8521.4 35704.5 -29239.7 -7.42097 
2221 2 19.106 1.708 6.4 6.02582 -125093 -172651 190.236 -6551.23 34256 -26375 -7.41934 
696 1 20.092 9.323 3 6.02479 -178691 -159285 82593.7 10112.8 24107.9 -27666.6 -7.42438 
698 1 20.03 6.868 3 6.02393 -134454 -173798 61507.6 -4977.88 31586.2 -28050.3 -7.4233 
700 1 19.969 4.412 3 6.02659 -165716 -121037 35753.9 -4646.97 35036.4 -27467.6 -7.42145 
702 1 19.907 1.957 3 6.02656 -115686 -160126 6669.34 6126.09 34498 -26091.2 -7.41942 
764 1 22.249 10.497 3 6.02658 -132781 -162038 101175 11907.6 19274.2 -14712.4 -7.42512 
765 1 21.509 9.287 3 6.02196 -151808 -146256 -96116.5 21001.2 -6802.96 -3718.89 -7.414 
766 1 22.187 8.042 3 6.02506 -136969 -178622 82679.7 -4547.58 28976.5 -15583.4 -7.4242 
767 1 21.448 6.832 3 6.02582 -112307 -168628 -81291.9 4767.22 -14027.5 -6823.32 -7.41447 
768 1 22.126 5.587 3 6.02283 -171777 -156338 57728.8 12280.5 34869.4 -15937.8 -7.42345 
769 1 21.386 4.377 3 6.02659 -150072 -116363 -60352.8 8304.34 -21841.6 -9717.63 -7.41575 
770 1 22.064 3.131 3 6.0261 -123236 -139671 28669.6 -17131.6 36815.9 -15647.4 -7.42086 
771 1 21.325 1.921 3 6.01897 -122440 -186720 -34482.6 20380.7 -29002.3 -12426.3 -7.41791 
772 1 22.002 0.676 3 6.02266 -129778 -202015 -2202.52 1531.44 34769.4 -14837.2 -7.41952 
833 1 23.667 10.461 3 6.0205 -119141 -174349 -102995 15668 -5698.31 -199.904 -7.41396 
834 1 24.344 9.216 3 6.02299 -144966 -193908 96285.8 11434.2 25169 -1640.21 -7.42541 
835 1 23.605 8.006 3 6.02582 -112158 -165085 -89956.7 367.866 -12319.1 -783.807 -7.41418 
836 1 24.283 6.761 3 6.02479 -174529 -159962 74180.9 12898 33063.2 -2381.53 -7.42408 
837 1 23.543 5.551 3 6.0261 -152587 -151662 -70197.6 15568.3 -19864.8 -1485.47 -7.4155 
838 1 24.221 4.306 3 6.02393 -129273 -175905 46181.9 -484.585 37120.7 -3060.91 -7.42237 
839 1 23.482 3.096 3 6.02479 -111574 -137642 -45538 -11609.5 -27218.6 -2435.35 -7.41625 
840 1 24.16 1.85 3 6.0222 -159232 -123816 15739.3 1994.09 37042.2 -3401.06 -7.42022 
841 1 23.42 0.64 3 6.0211 -113080 -168125 -16235.6 23533 -33340.4 -3456.99 -7.41848 
902 1 26.502 10.39 3 6.02306 -173944 -126035 101050 3321.1 20615.1 12304.1 -7.42538 
903 1 25.762 9.18 3 6.02338 -104179 -145852 -96873.6 12619.1 -8902.15 2846.43 -7.41374 
904 1 26.44 7.935 3 6.0261 -176716 -161250 82638.9 15215.2 30135.9 11579.6 -7.42438 
905 1 25.7 6.725 3 6.02479 -151730 -150177 -80467.6 10589.4 -16055.7 4714.62 -7.4149 
906 1 26.378 5.48 3 6.02582 -132202 -178361 57779.2 143.166 35866.3 10602.2 -7.4227 
907 1 25.639 4.27 3 6.02582 -113599 -172732 -57960.5 -4538.76 -23598.9 6111.88 -7.41583 
908 1 26.317 3.025 3 6.02283 -166448 -155745 28667.4 18201.4 37500.2 9306.3 -7.4217 
909 1 25.577 1.815 3 6.02658 -152603 -122527 -30675.4 -242.121 -30511.7 6912.62 -7.41725 
910 1 26.255 0.569 3 6.02454 -110292 -134810 -2004.07 -2703.29 35336.7 7906.3 -7.41886 
971 1 27.919 10.355 3 6.02213 -156903 -142131 -99830.2 -23319.7 -3620.57 3927.13 -7.41357 
972 1 28.597 9.109 3 6.0261 -123159 -126360 82670.6 2670.27 26512.9 24648 -7.42391 
973 1 27.857 7.899 3 6.02196 -150398 -146422 -88263.9 8916.59 -10309.7 8284.36 -7.41481 
974 1 28.535 6.654 3 6.02507 -132307 -177250 61591.5 3671.92 33595.6 23708.7 -7.42315 
975 1 27.796 5.444 3 6.02582 -112210 -171160 -70349.8 -9298.91 -17933.7 12035.3 -7.41511 
976 1 28.474 4.199 3 6.02479 -169403 -157197 35658.8 18688.4 36541.2 22110.1 -7.42176 
977 1 27.734 2.989 3 6.0261 -154654 -154635 -46236.3 6716.38 -25623.3 15154.4 -7.4169 
978 1 28.412 1.744 3 6.02393 -123470 -173678 6679.45 6292.59 35646.1 19849.2 -7.41997 
979 1 27.673 0.534 3 6.0249 -113209 -151018 -18486.5 -14258.7 -31959.5 17431.3 -7.41832 
2214 2 19.599 10.319 6.4 6.0261 -152387 -145345 -97129.6 -3015.3 -1025.57 -5222.32 -7.41393 
2216 2 19.66 7.864 6.4 6.02048 -111559 -148438 -87376.4 10208.6 -7826.63 -10832.2 -7.41418 
2218 2 19.722 5.409 6.4 6.02283 -116514 -164830 -70835.5 40949.7 -15784.2 -15909.1 -7.41528 
2220 2 19.784 2.953 6.4 6.02283 -154227 -151306 -48594.7 -6182.73 -23739.4 -20326.3 -7.41712 
2222 2 19.845 0.498 6.4 6.02372 -113868 -152086 -22230.6 21557.9 -30397.2 -23694.7 -7.41763 
2283 2 21.016 10.355 6.4 6.02283 -180171 -155414 94796.7 -17007.2 21268.2 -20708.8 -7.42568 
2284 2 21.756 9.145 6.4 6.02658 -145939 -114249 -95837 4306.4 -7734.78 -5123.55 -7.41349 
2285 2 21.078 7.899 6.4 6.02224 -133657 -156413 76829.6 12904.8 30419.8 -20277.7 -7.42366 
2286 2 21.818 6.69 6.4 6.01795 -155264 -146592 -80194.9 20874.5 -14940.1 -8449.3 -7.41492 
2287 2 21.14 5.444 6.4 6.02396 -126406 -143189 52545.3 9934.9 35735.3 -19097.5 -7.42207 
2288 2 21.879 4.234 6.4 6.02393 -113181 -169832 -58356.4 5510.39 -22620.1 -11259.7 -7.41617 
2289 2 21.201 2.989 6.4 6.0261 -166692 -157578 24344.2 -18217.8 36955.7 -17335.1 -7.42108 
2290 2 21.941 1.779 6.4 6.02612 -156136 -156711 -31912.9 -8449.73 -29684.3 -13398.6 -7.4177 
2291 2 21.263 0.534 6.4 6.02546 -124408 -182041 -5739.85 78.4264 34476.7 -15045.2 -7.41939 
2352 2 23.851 10.426 6.4 6.02396 -104938 -129403 -103117 13729.9 -5972.49 -1298.88 -7.4131 
2353 2 23.173 9.18 6.4 6.01795 -182524 -156072 94718.6 14314.1 25573.3 -7532.6 -7.42532 
2354 2 23.913 7.971 6.4 6.02224 -106240 -146728 -89821.7 18794.1 -12558.7 -2384.54 -7.414 
2355 2 23.235 6.725 6.4 6.02658 -168696 -127461 72695.3 -2980.52 33384 -6769.95 -7.42346 
2356 2 23.975 5.515 6.4 6.02283 -152237 -149053 -69856.7 -14400.5 -20068.7 -3207.87 -7.41588 
2357 2 23.297 4.27 6.4 6.02582 -129520 -178443 44995.3 563.854 37261.4 -5745.93 -7.42193 
2358 2 24.036 3.06 6.4 6.02582 -115113 -174082 -44791 2921.54 -27375.4 -3567.66 -7.41661 
2359 2 23.358 1.815 6.4 6.02283 -163336 -156282 14786.4 -17174.9 37002.9 -4655.2 -7.42084 
2360 2 24.098 0.605 6.4 6.02663 -157128 -134202 -15588 -7014.9 -33480.3 -3705.44 -7.4182 
2421 2 25.269 10.461 6.4 6.02224 -134921 -158705 104336 18405 19582.6 5761.46 -7.42554 
2422 2 26.009 9.252 6.4 6.01795 -156062 -141920 -97021.3 11451.4 -8431.31 1480.54 -7.41394 
2423 2 25.331 8.006 6.4 6.02396 -128767 -145765 85662.8 13323.7 29464.4 6562.03 -7.42427 
2424 2 26.07 6.796 6.4 6.02393 -111986 -166079 -80967.6 -3743.54 -15576.4 2951.15 -7.41486 
2425 2 25.392 5.551 6.4 6.0261 -172008 -159744 60346.7 -11999 35421.2 7151.45 -7.42324 
2426 2 26.132 4.341 6.4 6.0261 -153634 -153098 -58924.6 -17105.7 -23215.7 4577.91 -7.41616 
2427 2 25.454 3.096 6.4 6.02393 -126544 -175473 30929.8 1585.46 37382.5 7486.42 -7.42145 
2428 2 26.193 1.886 6.4 6.02396 -109886 -139630 -32015.7 8726.26 -30193.8 6223.52 -7.41734 
2429 2 25.515 0.64 6.4 6.02144 -159393 -132957 -143.991 5241.59 35477.7 7332.12 -7.41933 
2490 2 28.104 10.533 6.4 6.02224 -110381 -141812 -100253 7923.83 -2438.23 2867.39 -7.41318 
2491 2 27.426 9.287 6.4 6.02658 -172931 -126699 90203.1 750.463 24373.5 19491.8 -7.42451 
2492 2 28.166 8.077 6.4 6.02283 -151891 -144746 -89093.8 -23677.7 -9186.15 6632.09 -7.41475 
2493 2 27.488 6.832 6.4 6.02582 -134670 -178022 68272.6 5625.2 32220.9 20085.2 -7.42334 
2494 2 28.227 5.622 6.4 6.02582 -112832 -170096 -72012.8 -6189.15 -16859 10289 -7.41501 
2495 2 27.549 4.377 6.4 6.02283 -169105 -155685 41521 -11050 35957 19945.7 -7.42248 
2496 2 28.289 3.167 6.4 6.02658 -149260 -121312 -49074.1 -9786.06 -24665.2 13775.3 -7.4162 
2497 2 27.611 1.921 6.4 6.02283 -117907 -157240 11582.3 22837 35773.9 19050.9 -7.41992 
2498 2 28.351 0.712 6.4 6.01874 -163102 -162484 -22269.4 3811.02 -31299.7 17085.9 -7.41859 
1040 1 30.754 10.283 3 6.02283 -144930 -169044 73837.2 -28506.1 22781.7 35409.2 -7.42368 
1041 1 30.015 9.074 3 6.02283 -113565 -162994 -92063.6 -41402.5 -2676.58 8958.43 -7.41404 
1042 1 30.693 7.828 3 6.02306 -170399 -120930 57626.9 7596.34 30530.7 35052.3 -7.42277 
1043 1 29.953 6.618 3 6.02338 -101022 -150644 -79875.8 2419.2 -10302.7 14986.3 -7.41493 
1044 1 30.631 5.373 3 6.0261 -171938 -156391 35434.2 20593.4 34720.9 33485 -7.42154 
1045 1 29.891 4.163 3 6.02479 -152795 -152868 -61199.7 2480.28 -18546.9 20205.4 -7.41602 
1046 1 30.569 2.918 3 6.02582 -126797 -173629 9744.63 6471.92 34846.2 30989.3 -7.41983 
1047 1 29.83 1.708 3 6.02658 -117423 -172078 -37643.5 -12177.6 -26204.1 24588.7 -7.41711 
1048 1 30.508 0.463 3 6.02192 -156118 -130322 -16960.3 36688.9 31240.9 27523.8 -7.41857 
1109 1 32.172 10.248 3 6.02396 -106506 -132080 -90058.3 -28376.6 6223.42 7226.45 -7.41363 
1110 1 32.85 9.002 3 6.01995 -182538 -145406 46031.2 -10778.7 27484.1 43456.4 -7.42251 
1111 1 32.11 7.793 3 6.02213 -155015 -146859 -84974 -30353.5 -984.582 14972.9 -7.41441 
1112 1 32.788 6.547 3 6.02603 -121845 -119584 28443.2 9437.06 32335.6 42438.7 -7.42032 
1113 1 32.048 5.337 3 6.02196 -150472 -149094 -73022.5 2163.5 -9571.96 22137.7 -7.41569 
1114 1 32.726 4.092 3 6.02582 -129460 -170389 6540.87 7566.81 33352.1 40071.5 -7.41964 
1115 1 31.987 2.882 3 6.02582 -114169 -171836 -55566.1 -15568.8 -18292.7 28300.6 -7.41596 
1116 1 32.665 1.637 3 6.02477 -164779 -149801 -17041.2 25141.8 30418.2 36491.3 -7.41871 
1117 1 31.925 0.427 3 6.02741 -155589 -128358 -33148.2 -10042 -25931.9 33473.8 -7.41736 
1178 1 35.007 10.177 3 6.02283 -178500 -144701 28453.4 19232.6 24694.1 48295.9 -7.42158 
1179 1 34.267 8.967 3 6.02666 -151954 -149229 -84314.1 1808.47 9470.61 12642.2 -7.41466 
1180 1 34.945 7.722 3 6.02144 -138195 -160951 15512.1 9325.78 30040.4 47982 -7.42052 
1181 1 34.206 6.512 3 6.02048 -113154 -147674 -80233.6 -16422.4 1006.74 21011.9 -7.41458 
1182 1 34.883 5.266 3 6.02048 -134480 -144366 -2444.89 9809.11 31575.5 46316.5 -7.41918 
1183 1 34.144 4.056 3 6.02393 -112257 -165421 -69870.8 -15577.4 -8502.31 28827.2 -7.4157 
1184 1 34.822 2.811 3 6.0261 -166378 -147980 -22161.4 25337 29197.1 43149.1 -7.41833 
1185 1 34.082 1.601 3 6.02612 -155316 -151994 -53583 -1547.68 -17758.2 35450.4 -7.41642 
1186 1 34.76 0.356 3 6.02546 -123208 -175737 -42248.8 7992.58 23442.6 38648 -7.41713 
1247 1 36.424 10.141 3 6.02479 -152005 -149440 -77562.8 -3645.18 20488.5 8632.77 -7.41505 
1248 1 37.102 8.896 3 6.02582 -138546 -159668 -2261.36 3592.8 28000.2 49799.6 -7.41913 
1249 1 36.363 7.686 3 6.02582 -110587 -169170 -81600.8 -19531.3 12479.6 17785.5 -7.41443 
1250 1 37.041 6.441 3 6.02196 -173310 -139719 -15652.5 25029.3 30087.9 48955.9 -7.41908 
1251 1 36.301 5.231 3 6.02603 -99784.6 -116358 -79128.8 -15436 2689.52 26405.5 -7.41406 
1252 1 36.979 3.985 3 6.02658 -165247 -109184 -31976.8 13057.8 28195.8 46636.3 -7.41723 
1253 1 36.239 2.775 3 6.02283 -153395 -146710 -70404.3 -1077.38 -7719.14 34229.2 -7.41583 
1254 1 36.917 1.53 3 6.02582 -123063 -165195 -48645.5 11348.5 22639.4 42827.8 -7.41634 
1255 1 36.178 0.32 3 6.02371 -120008 -179345 -55968.6 -11512.7 -17200 40586.5 -7.41597 
1317 1 38.52 8.86 3 6.02582 -111228 -169678 -76817.2 -18885.8 24224.8 12965.3 -7.41472 
1319 1 38.458 6.405 3 6.0261 -150353 -151669 -82669.6 -3373.17 14637.9 21980.1 -7.41455 
1320 1 39.136 5.16 3 6.02338 -121301 -138737 -44705.7 23265.1 27729.9 46361.1 -7.417 
1321 1 38.396 3.95 3 6.02299 -147729 -113017 -81713.7 -14097 3517.48 30263.1 -7.4145 
1322 1 39.074 2.704 3 6.02479 -119931 -124530 -58599.2 -320.3 22554.1 43629.3 -7.41569 
1323 1 38.335 1.494 3 6.0224 -115006 -164167 -74709.9 -15730.4 -7454.12 37358.5 -7.41517 
1324 1 39.013 0.249 3 6.02606 -162718 -153876 -70964 21375.5 13920.1 39439.7 -7.41548 
2559 2 29.522 10.568 6.4 6.02048 -140838 -156016 85529.6 3079.27 19189.4 30750.8 -7.42445 
2560 2 30.261 9.358 6.4 6.02393 -112780 -160338 -92697.3 -12392.6 -844.13 7569.73 -7.41437 
2561 2 29.583 8.113 6.4 6.0261 -176809 -156509 68492.8 -8511.66 28016.5 31651.1 -7.42375 
2562 2 30.323 6.903 6.4 6.0261 -152173 -148926 -81424.3 -25575.3 -8515.07 13139.9 -7.41483 
2563 2 29.645 5.658 6.4 6.02393 -131915 -172906 44936 6337.87 33423.6 31513.3 -7.4223 
2564 2 30.384 4.448 6.4 6.02396 -107986 -136408 -64463.9 1943.26 -16851.8 18413.7 -7.41513 
2565 2 29.706 3.202 6.4 6.01795 -170226 -152635 17873.6 22661.3 34628.3 30201.9 -7.4207 
2566 2 30.446 1.993 6.4 6.02224 -113147 -151941 -42519.3 4548.25 -24854.6 23310.2 -7.41649 
2567 2 29.768 0.747 6.4 6.02466 -157513 -134098 -10414.3 13030.6 32001 28006.4 -7.41851 
2629 2 31.679 9.394 6.4 6.02582 -138964 -172146 60251.6 7325.6 23848.4 40857 -7.42286 
2630 2 32.418 8.184 6.4 6.02582 -112452 -166740 -85935.4 -13023 1534.5 13223.5 -7.41418 
2631 2 31.74 6.939 6.4 6.02283 -174340 -150457 41327 -8075.52 30111.2 41024.8 -7.42247 
2632 2 32.48 5.729 6.4 6.02658 -146819 -115350 -75889 -16571.1 -7094.4 20108.8 -7.41484 
2633 2 31.802 4.483 6.4 6.02283 -133942 -166606 17629.5 40225.9 32653.1 39744.3 -7.42051 
2634 2 32.541 3.274 6.4 6.02056 -125465 -180075 -60383.7 3061.8 -16047.7 26345.4 -7.41606 
2635 2 31.864 2.028 6.4 6.01974 -123595 -153999 -7860.71 10830.3 31072.5 37230.5 -7.41882 
2636 2 32.603 0.818 6.4 6.02371 -120687 -177232 -39828.1 -19445.8 -24272 31865.1 -7.41749 
2698 2 34.514 9.465 6.4 6.0261 -153014 -147153 -83638.5 -30024.3 12537.9 10993.3 -7.4147 
2699 2 33.836 8.22 6.4 6.02393 -136769 -165264 30409.1 7381.38 26904.8 47564.5 -7.42144 
2700 2 34.575 7.01 6.4 6.02396 -106474 -133469 -81811.7 -3100.09 4254.77 18925.7 -7.41411 
2701 2 33.897 5.764 6.4 6.02213 -176435 -145302 11529.7 25713.4 30244.1 46695.1 -7.42032 
2702 2 34.637 4.555 6.4 6.02213 -157620 -146488 -73603.8 -902.066 -5342.93 26399.5 -7.41507 
2703 2 33.959 3.309 6.4 6.02603 -113027 -118916 -10674.4 9943.58 29649.2 44470.7 -7.41811 
2704 2 34.699 2.099 6.4 6.02337 -155058 -147735 -59786 -32083.5 -15032 33027.5 -7.41643 
2705 2 34.021 0.854 6.4 6.02659 -122967 -177976 -33445.1 19507.3 25149.4 40646.7 -7.41766 
2767 2 35.931 9.501 6.4 6.02283 -178493 -140781 14209.3 -8892.72 24046.3 50442.5 -7.42085 
2768 2 36.671 8.291 6.4 6.02658 -146597 -114130 -81013.6 -19009 16343.6 15720.8 -7.41453 
2769 2 35.993 7.045 6.4 6.02283 -139123 -159711 -365.863 40627.4 28070.4 50352.4 -7.41923 
2770 2 36.732 5.836 6.4 6.02283 -114556 -163760 -80890.8 12283.7 6789.31 23784.4 -7.41467 
2771 2 36.054 4.59 6.4 6.02306 -162799 -112658 -18541.3 8973.24 28143.1 48763.6 -7.41823 
2772 2 36.794 3.38 6.4 6.02338 -104364 -147860 -74844.4 -30661.9 -3890.58 31216 -7.41521 
2773 2 36.116 2.135 6.4 6.02615 -164325 -147666 -38274.6 -324.792 24341.8 45483.6 -7.41724 
2774 2 36.856 0.925 6.4 6.02721 -153392 -123796 -63724.5 -17640.2 -14189.7 37668.5 -7.41557 
2836 2 38.766 9.572 6.4 6.02396 -107665 -134154 -73574.9 -2704.54 28430.4 11080 -7.41459 
2837 2 38.088 8.326 6.4 6.02213 -181215 -134751 -16226.6 23878.3 26277 50105.7 -7.41868 
2838 2 38.828 7.117 6.4 6.02213 -156475 -145837 -81648.1 -1305.26 19438.7 19331.5 -7.4146 
2839 2 38.15 5.871 6.4 6.0261 -116369 -109882 -30746.8 10402.6 27103.1 49442.3 -7.41713 
2840 2 38.89 4.661 6.4 6.02196 -152109 -144929 -83814.9 -33147.8 8431.85 27082.4 -7.41507 
2841 2 38.212 3.416 6.4 6.02506 -124058 -162819 -47008 12982.1 23909.1 47034.6 -7.41669 
2842 2 38.951 2.206 6.4 6.02506 -115572 -165397 -79958.1 -13582 -3116.57 33828.3 -7.4145 
2843 2 38.273 0.961 6.4 6.02434 -163289 -153192 -62300.1 5120.1 17161 43073.5 -7.41623 
1316 1 39.259 10.07 3 6.02582 -139897 -153842 -22342.8 1728.23 26659.7 47315.7 -7.41793 
1318 1 39.198 7.615 3 6.02479 -176238 -136333 -32156.4 20030.1 29007.1 47585.4 -7.41773 
1385 1 40.677 10.034 3 6.02393 -112305 -168090 -66484 -14751.7 35308.4 7541.67 -7.41569 
1386 1 41.355 8.789 3 6.0261 -177945 -130670 -49196.7 17722 28575.5 41941.6 -7.41673 
1387 1 40.615 7.579 3 6.02479 -150684 -150373 -79947.7 -2001.71 26651.6 15976 -7.41492 
1388 1 41.293 6.334 3 6.02582 -133787 -152301 -58803.5 4781.51 27932.9 41902.7 -7.41579 
1389 1 40.554 5.124 3 6.02506 -108844 -168324 -87140.4 -15860.4 15583.6 24096.9 -7.41433 
1390 1 41.232 3.879 3 6.02196 -167387 -133863 -69949.3 25755.9 23236.2 40505.7 -7.41589 
1391 1 40.492 2.669 3 6.02603 -100113 -112939 -87322.1 -14904 3363.31 31489.9 -7.41382 