ITEM: TIMESTEP
0
ITEM: NUMBER OF ATOMS
1736
ITEM: BOX BOUNDS pp pp pp
0.0000000000000000e+00 3.6179139200000002e+01
0.0000000000000000e+00 6.2664107199999997e+01
0.0000000000000000e+00 1.5000000000000000e+01
ITEM: ATOMS id type x y z c_csym c_2[1] c_2[2] c_2[3] c_2[4] c_2[5] c_2[6] c_3 
53 1 0.333 9.818 3 6.02172 -127471 -132579 -18561.4 32509.2 57301.8 -1423.81 -7.4178 
54 1 1 8.567 3 6.02492 -125190 -143428 -82425.2 -3826.25 26665.3 -8249.95 -7.41433 
55 1 0.25 7.364 3 6.0215 -130840 -140895 -56620.5 -18869.3 51260.9 -1804.44 -7.41614 
56 1 0.917 6.112 3 6.02221 -161491 -109161 -90303.2 -23369.9 28075.2 -8167.98 -7.41418 
57 1 0.167 4.909 3 6.0253 -135642 -173799 -86462 529.993 38344.3 -1512.11 -7.41437 
58 1 0.834 3.658 3 6.02228 -152233 -134084 -100778 10519.7 22486.3 -7471.34 -7.41356 
59 1 0.083 2.455 3 6.02156 -120933 -114250 -104771 -5511.16 19989.1 -862.038 -7.41326 
60 1 0.75 1.203 3 6.02299 -144642 -122116 -108815 -21308.9 8920.48 -6294.64 -7.41313 
61 1 0 0 3 6.02855 -143708 -154637 -110558 -4296.02 -10.4503 2.62965 -7.41307 
105 1 3.168 9.722 3 6.02678 -173901 -139692 -67534.3 -4449.14 22077 -24657.4 -7.41616 
106 1 2.418 8.519 3 6.02063 -96732 -158449 -42074.8 -3053.12 52837.7 -2744.56 -7.41699 
107 1 3.084 7.267 3 6.02042 -122428 -128251 -73759.8 -12238.7 26787.9 -25949.1 -7.41479 
108 1 2.334 6.064 3 6.02688 -145715 -171415 -74175.8 6886.88 42974.5 -7623.66 -7.41529 
109 1 3.001 4.813 3 6.02798 -166729 -149796 -85194 -7704.59 25672 -25895 -7.41443 
110 1 2.251 3.61 3 6.02192 -135254 -134452 -96247.6 -11904.1 27178.1 -11757.3 -7.41383 
111 1 2.918 2.358 3 6.02088 -139702 -103186 -96880.1 -12523.8 16892.6 -24535.8 -7.41385 
112 1 2.167 1.155 3 6.02226 -138152 -142187 -106147 17065.5 7719.46 -14901.8 -7.41327 
156 1 4.585 9.674 3 6.02913 -151686 -171705 -33367.1 7510.74 49105.5 427.153 -7.41793 
157 1 5.252 8.423 3 6.022 -162388 -117084 -46412.6 9693.71 22899.1 -39086.9 -7.41682 
158 1 4.502 7.219 3 6.02069 -97240.7 -159406 -64086.8 40622.7 42331.3 -8141.16 -7.41512 
159 1 5.168 5.968 3 6.02293 -126179 -168086 -57469.9 2007.65 26325.3 -40254.6 -7.41628 
160 1 4.418 4.765 3 6.02196 -136920 -132861 -85849.6 -6647.1 29311.4 -16519.9 -7.41466 
161 1 5.085 3.513 3 6.02192 -152605 -121986 -72650.1 -28372.9 22970.2 -39221.1 -7.41528 
162 1 4.335 2.31 3 6.02621 -145775 -167954 -96359 11748.9 12096.9 -23675.1 -7.4138 
163 1 5.002 1.059 3 6.02279 -143018 -142160 -86639.2 4018.96 12418.6 -35703.5 -7.41437 
207 1 7.419 9.578 3 6.02317 -164582 -128121 -11255.8 14890.4 16212.5 -45931.3 -7.41842 
208 1 6.669 8.374 3 6.02075 -138246 -139857 -59675.1 27582.9 37434 -4846.72 -7.41581 
209 1 7.336 7.123 3 6.02913 -169525 -157823 -20938.4 -9455.2 24205.7 -48488.8 -7.41856 
210 1 6.586 5.92 3 6.02413 -93927.4 -173486 -78835.9 12635.6 27258.4 -15612.4 -7.41478 
211 1 7.253 4.669 3 6.02057 -143774 -113676 -37983.2 16643.2 26281.3 -48397.3 -7.4171 
212 1 6.502 3.465 3 6.02072 -127674 -121684 -87079.6 46662.4 12513.8 -25534.8 -7.41402 
213 1 7.169 2.214 3 6.02683 -157821 -163688 -58208.9 -12575.5 21534.1 -45313.6 -7.41613 
214 1 6.419 1.011 3 6.02122 -139484 -126268 -84100.5 -6806.7 -3949.85 -33957.2 -7.41473 
258 1 8.836 9.53 3 6.02059 -132817 -118133 -62945.2 10244.1 29915.3 495.896 -7.41564 
260 1 8.753 7.075 3 6.02913 -146597 -166558 -77456.4 13687.1 22335.3 -11197.1 -7.41535 
262 1 8.67 4.62 3 6.02075 -134224 -140783 -82038.1 30202.3 10053.1 -22253.2 -7.41426 
264 1 8.586 2.166 3 6.02197 -129508 -117317 -75535.5 11029.4 -4500.24 -32227 -7.41507 
874 2 0.417 8.615 6.4 6.02646 -146791 -172041 -38211.3 2114.05 55028.6 1359.34 -7.41733 
875 2 0.5 6.161 6.4 6.02223 -132820 -137021 -72511.5 19715.1 45495.1 -303.669 -7.41503 
876 2 0.584 3.706 6.4 6.02169 -131239 -145472 -96997.6 -9969.02 29593.3 -2397.91 -7.41422 
877 2 0.667 1.251 6.4 6.02491 -139313 -128403 -108779 -15222.8 9982.99 -4643.51 -7.41278 
878 2 0 0 6.4 6.02853 -143385 -154836 -110551 1183.93 11.5845 -5.96501 -7.41308 
921 2 2.501 9.915 6.4 6.022 -143392 -143866 -20959.7 25691.8 54100.2 3385.52 -7.41809 
922 2 1.834 8.663 6.4 6.022 -165320 -106991 -78653.5 21582.6 27156.8 -15730.7 -7.4149 
923 2 2.584 7.46 6.4 6.02701 -145189 -175439 -57434.6 6925.75 47964.4 -2691.44 -7.41628 
924 2 1.917 6.209 6.4 6.02072 -150799 -98635.2 -85875.6 -31504.7 28927.7 -17211 -7.41415 
925 2 2.668 5.005 6.4 6.0205 -122641 -124132 -85104.9 -19657.3 35274.2 -9245.96 -7.41437 
926 2 2.001 3.754 6.4 6.02758 -160377 -149019 -96312.8 -759.01 23736.2 -17620.8 -7.41434 
927 2 2.751 2.551 6.4 6.02672 -137884 -130701 -100721 28780 17759.8 -15754.2 -7.41359 
928 2 2.084 1.299 6.4 6.02243 -148471 -120020 -104802 16032.7 10704.7 -16943.3 -7.41326 
929 2 2.834 0.096 6.4 6.02648 -148481 -159187 -103887 9707.6 -1245.86 -21018 -7.41335 
972 2 3.918 9.963 6.4 6.0244 -167124 -114664 -59883.1 -14540 22928.3 -30048.4 -7.41556 
973 2 4.668 8.759 6.4 6.01942 -134973 -146452 -46134.2 -2857.68 45366.6 -265.233 -7.4166 
974 2 4.001 7.508 6.4 6.02199 -160160 -130852 -63942.7 -12700.2 28261.4 -32541.6 -7.41606 
975 2 4.752 6.305 6.4 6.02199 -131726 -157065 -74114 1453.68 35796.3 -10288.4 -7.41547 
976 2 4.085 5.054 6.4 6.01942 -154485 -121259 -74352.9 -18792.4 28036.8 -33477.3 -7.41497 
977 2 4.835 3.85 6.4 6.02475 -136463 -138931 -90141.1 -2674.4 21024.6 -20363.7 -7.41382 
978 2 4.168 2.599 6.4 6.02931 -161738 -153565 -86461.5 -6363.75 20510.2 -32427.1 -7.41449 
979 2 4.918 1.396 6.4 6.02192 -89492.3 -133798 -94085.9 32873.2 3669.11 -29106.3 -7.41359 
980 2 4.251 0.144 6.4 6.02088 -132681 -106107 -95624.7 -5316.37 5947.21 -29098.4 -7.41389 
1023 2 6.752 10.059 6.4 6.02683 -148193 -173051 -42356 15599.1 38459.7 5152.75 -7.41739 
1024 2 6.085 8.808 6.4 6.0205 -154421 -105378 -33445.7 -26682.8 24107.4 -42791.8 -7.41712 
1025 2 6.836 7.604 6.4 6.0205 -125414 -126485 -67635.2 -10262.7 32368.5 -6798.36 -7.41512 
1026 2 6.169 6.353 6.4 6.02683 -168363 -153557 -42083.7 -3025.53 28821.2 -44300 -7.41742 
1027 2 6.919 5.15 6.4 6.02672 -135337 -136588 -82476.8 36898.3 20548.2 -18873.6 -7.41462 
1028 2 6.252 3.898 6.4 6.02188 -156900 -121044 -56652 10688.2 27106.8 -43507.8 -7.41623 
1029 2 7.002 2.695 6.4 6.02293 -103562 -187870 -84929.7 5200.6 5250.19 -30154.3 -7.41422 
1030 2 6.336 1.444 6.4 6.02294 -113557 -179462 -72558 -20609.1 18370.3 -39992.4 -7.41518 
1031 2 7.086 0.241 6.4 6.02143 -141395 -126198 -75476 35825.8 -10024.3 -39290 -7.41525 
1074 2 8.169 10.107 6.4 6.02199 -162101 -143300 1725.38 -9476.65 16385.9 -46606.8 -7.4199 
1075 2 8.92 8.904 6.4 6.02319 -134928 -154853 -68103.6 4982.03 25892.2 -939.919 -7.41581 
1076 2 8.253 7.653 6.4 6.01942 -160242 -130726 -3530.7 -17918.1 25792.1 -49135.3 -7.41911 
1077 2 9.003 6.449 6.4 6.02451 -133626 -141606 -80288.5 -154.342 17233.7 -13687.5 -7.41458 
1078 2 8.336 5.198 6.4 6.02688 -169992 -158387 -18285.6 -7171.51 29900.5 -48887.5 -7.41869 
1080 2 8.42 2.743 6.4 6.02042 -111413 -146359 -39020.3 -3212.63 27319.6 -45886.1 -7.41696 
1082 2 8.503 0.289 6.4 6.02762 -153921 -163529 -59617.4 -14646.4 18126.3 -40236.4 -7.4159 
259 1 9.503 8.278 3 6.02557 -163260 -131549 19832.3 -23513.5 19043.8 -49718.1 -7.42063 
261 1 9.42 5.824 3 6.022 -160208 -134340 2695.48 2106.34 26550.9 -50892.5 -7.41924 
263 1 9.337 3.369 3 6.02218 -150961 -148913 -20948.3 -137.556 27602.1 -49023.3 -7.41869 
265 1 9.253 0.914 3 6.02269 -143597 -133423 -46883.3 -30762.1 21452.3 -44169.1 -7.41655 
309 1 11.671 9.433 3 6.02059 -156057 -120166 59310.6 -7972.79 10864.4 -43598.3 -7.423 
310 1 10.92 8.23 3 6.02218 -139097 -149584 -83043.9 29082.6 16025.6 -5183.03 -7.41469 
311 1 11.587 6.979 3 6.02317 -161625 -143107 44978.4 11627 23416.5 -46256 -7.42177 
312 1 10.837 5.775 3 6.022 -135047 -137696 -83374.7 29290.4 6102.41 -15893.1 -7.41443 
313 1 11.504 4.524 3 6.02913 -164285 -171761 19740.9 -13109.1 30075.5 -45982.2 -7.42095 
314 1 10.754 3.321 3 6.02798 -142803 -172392 -72857.4 14511.1 -6549.59 -25896.3 -7.4155 
315 1 11.421 2.07 3 6.0205 -136685 -125816 -11213.7 15737.6 29483.7 -43066.2 -7.41869 
316 1 10.67 0.866 3 6.02096 -132096 -120267 -52491.8 43781.3 -19223.8 -34503.1 -7.41601 
360 1 13.088 9.385 3 6.02568 -148183 -166418 -92959.9 12262.4 9570.58 473.674 -7.41397 
361 1 13.755 8.134 3 6.02303 -163390 -161791 82188.9 9956.24 17070.2 -34785 -7.42432 
362 1 13.004 6.931 3 6.02059 -127391 -117617 -90645.6 7267.4 1978.71 -8457.18 -7.41404 
363 1 13.671 5.679 3 6.02197 -110663 -145551 59169.9 -26092.5 28877.7 -36017.1 -7.42259 
364 1 12.921 4.476 3 6.02913 -146515 -169167 -76942 13292.4 -8827.2 -16926.4 -7.41514 
365 1 13.588 3.225 3 6.02475 -154440 -146278 26037.5 7675.09 33693.1 -35249.9 -7.42063 
366 1 12.838 2.021 3 6.01996 -136006 -143698 -52817.7 27437.9 -20539 -24671.6 -7.41622 
367 1 13.505 0.77 3 6.02202 -141108 -156996 -10801.7 3341.05 31230.8 -32165.6 -7.41916 
411 1 15.922 9.289 3 6.02683 -174663 -180988 107762 -1294.81 8814.71 -18237.5 -7.42597 
412 1 15.172 8.086 3 6.02191 -136882 -129899 -100831 -10712 -947.369 -2158.95 -7.41378 
413 1 15.839 6.834 3 6.02196 -163248 -143963 90454.1 -21854.5 24455.4 -20283.6 -7.42506 
414 1 15.089 5.631 3 6.02293 -101512 -188244 -86386.4 18001.9 -10067.8 -7626.8 -7.41436 
415 1 15.755 4.38 3 6.02293 -124084 -198517 59369.1 6747.9 34030.1 -21096.3 -7.42272 
416 1 15.005 3.177 3 6.02188 -139208 -137512 -60642.6 -10010.9 -20770.9 -12905.5 -7.41597 
417 1 15.672 1.925 3 6.02278 -150530 -144140 20229.3 -25749.7 36149.2 -20621.9 -7.42065 
418 1 14.922 0.722 3 6.02736 -150083 -172493 -25929.9 6413.23 -30422.5 -17791.3 -7.4181 
462 1 17.339 9.241 3 6.02199 -129888 -110210 -108692 -3671.42 -1722.57 371.665 -7.41316 
463 1 18.006 7.989 3 6.02192 -164119 -149392 107808 -19094.7 18213.4 -1441.85 -7.42574 
464 1 17.256 6.786 3 6.02798 -146002 -167945 -97037 770.871 -8983.01 -573.808 -7.41374 
465 1 17.923 5.535 3 6.02688 -169007 -180916 82417.2 -857.553 31236 -2971.38 -7.42453 
466 1 17.173 4.332 3 6.02042 -95400.7 -154924 -73320.7 -5038.99 -18885.7 -1812.82 -7.41496 
467 1 17.839 3.08 3 6.01892 -109733 -163761 45171.2 -10454.9 37427.1 -3966.64 -7.42213 
468 1 17.089 1.877 3 6.02705 -149175 -175739 -38833.5 2692.01 -28823.6 -3589.33 -7.41735 
469 1 17.756 0.626 3 6.02647 -152201 -177348 3297.2 1177.94 36089.8 -4851.55 -7.41979 
1079 2 9.086 3.995 6.4 6.01892 -91271.2 -154460 -80481.1 27125.4 4357.61 -25799.4 -7.41475 
1081 2 9.17 1.54 6.4 6.02705 -147620 -169976 -68127.4 16511.8 -9805.01 -36384 -7.41565 
1125 2 11.004 10.203 6.4 6.022 -141098 -134250 -75300 2542.99 17786.2 5353.24 -7.41488 
1126 2 10.337 8.952 6.4 6.02683 -172412 -164182 36370.6 451.213 18803 -47226.1 -7.42227 
1127 2 11.087 7.749 6.4 6.02557 -134700 -136915 -84707.4 34702.4 12223.8 -6825.44 -7.41448 
1128 2 10.42 6.497 6.4 6.02184 -153295 -116870 23685.1 -197.802 28447.9 -47908.1 -7.42076 
1129 2 11.171 5.294 6.4 6.02228 -132343 -157397 -82335 3964.16 1877.73 -18619.3 -7.4146 
1130 2 10.504 4.043 6.4 6.02413 -115759 -173032 1359.31 -7901.91 32072.8 -45853.7 -7.41911 
1131 2 11.254 2.84 6.4 6.02191 -136659 -138542 -67602.6 35110.3 -10668.1 -29010.1 -7.41548 
1132 2 10.587 1.588 6.4 6.02243 -150385 -134383 -25868.5 8170.2 28532.4 -41308.3 -7.41794 
1133 2 11.337 0.385 6.4 6.02648 -148157 -172573 -42398.4 15858.9 -22297 -37381.1 -7.4169 
1176 2 12.421 10.252 6.4 6.02075 -164962 -141463 71885 -11882 8017.48 -38830.1 -7.42359 
1177 2 13.171 9.048 6.4 6.02317 -137569 -137193 -93918.3 -5043.24 6915.09 -403.001 -7.4136 
1178 2 12.504 7.797 6.4 6.02218 -164771 -155713 63954.9 -16149.3 22622.2 -40345.2 -7.42337 
1179 2 13.255 6.594 6.4 6.02059 -125043 -118971 -89955.5 18618.9 -920.154 -10383.8 -7.41422 
1180 2 12.588 5.342 6.4 6.02192 -158528 -140993 42672.3 12488.2 32086.4 -39475.3 -7.42199 
1181 2 13.338 4.139 6.4 6.02913 -144862 -173783 -73710 14510.8 -11700.3 -19506.5 -7.41508 
1182 2 12.671 2.888 6.4 6.02913 -162735 -174781 12629 -7225.55 34452.7 -36298.2 -7.42015 
1183 2 13.421 1.685 6.4 6.02192 -138464 -142832 -46280.2 30107.9 -22960.9 -26892.2 -7.41661 
1184 2 12.754 0.433 6.4 6.02088 -135026 -119607 -21278.6 -7933.64 29985.5 -31338.7 -7.41821 
1227 2 15.255 10.348 6.4 6.022 -140581 -127328 -103782 26544.9 2612.76 2970.49 -7.4134 
1228 2 14.588 9.096 6.4 6.02059 -156896 -127765 96058.1 4693.98 12953.7 -27384.4 -7.42506 
1229 2 15.339 7.893 6.4 6.02228 -135352 -150975 -100469 -5170.16 -2621.54 -3491.32 -7.41357 
1230 2 14.672 6.642 6.4 6.02567 -169817 -181406 79525.2 -3093.94 27438.9 -26985.2 -7.42415 
1231 2 15.422 5.439 6.4 6.02191 -136979 -136306 -85085.7 28349.1 -11705.9 -9845.3 -7.41434 
1232 2 14.755 4.187 6.4 6.022 -157110 -143726 49657.7 14511.2 35467.8 -25290.2 -7.4224 
1233 2 15.505 2.984 6.4 6.02413 -97335.9 -176695 -57202.1 8427.64 -22322.9 -14954.2 -7.41591 
1234 2 14.838 1.733 6.4 6.02073 -139587 -131773 12672.2 -36667.8 36179.8 -22126.1 -7.41986 
1235 2 15.589 0.529 6.4 6.02096 -129139 -127030 -20697.7 -19272.8 -31491.6 -18676.4 -7.4181 
1278 2 16.672 10.396 6.4 6.02228 -165112 -166197 113907 -12764.5 1144.67 -11311.5 -7.42622 
1279 2 17.423 9.193 6.4 6.02059 -129506 -110604 -108629 7757.83 -2132.02 -294.777 -7.41316 
1280 2 16.756 7.941 6.4 6.02192 -163400 -148438 104813 18249.1 19185.2 -10678.2 -7.42569 
1281 2 17.506 6.738 6.4 6.02798 -147133 -165784 -96806.5 3726.04 -9405.34 -2445.52 -7.41388 
1282 2 16.839 5.487 6.4 6.02215 -160835 -148947 79695.9 -18647.1 31879.9 -9344.67 -7.42405 
1283 2 17.589 4.283 6.4 6.01817 -92536.8 -159154 -72683.2 -23613.6 -19291.1 -4049.64 -7.41486 
1284 2 16.923 3.032 6.4 6.02294 -116274 -198043 42965.6 -9029.92 37611.3 -7741.87 -7.42233 
1285 2 17.673 1.829 6.4 6.02677 -146998 -175039 -37714.7 3370.07 -29152.1 -4896.06 -7.41779 
1286 2 17.006 0.578 6.4 6.02182 -142840 -145142 1487.15 -17081.1 35995.2 -5618.7 -7.41935 
461 1 18.09 10.444 3 6.02218 -164512 -163269 116944 11015.1 -97.8836 -23.1179 -7.42689 
512 1 19.507 10.396 3 6.02798 -147386 -160583 -108645 -6276.8 446.684 -1579.35 -7.41345 
513 1 20.174 9.145 3 6.0205 -153597 -133463 107843 27743.4 11318.8 16684.1 -7.42576 
514 1 19.423 7.941 3 6.02072 -127525 -118700 -103529 26698.5 -4874.54 2042.12 -7.41308 
515 1 20.09 6.69 3 6.02683 -171286 -180983 90421.2 1653.21 26712.8 16029.3 -7.42493 
516 1 19.34 5.487 3 6.02191 -136609 -135548 -85947.8 -24387.3 -13748.4 5632.88 -7.41442 
517 1 20.007 4.235 3 6.02192 -157094 -145674 59292.8 -16633 35710.1 14464 -7.42298 
518 1 19.257 3.032 3 6.02413 -96782.8 -179750 -56262.9 -4600.48 -24062.4 8273.27 -7.41572 
519 1 19.924 1.781 3 6.0223 -147751 -164821 20262.8 16286.8 37302.6 12085.1 -7.42062 
520 1 19.173 0.578 3 6.02143 -131933 -123777 -18061.4 -10175 -32913.9 9623.12 -7.41839 
563 1 22.341 10.3 3 6.02475 -167970 -145820 90500.4 15223.7 5384.87 31296.8 -7.42448 
564 1 21.591 9.096 3 6.01942 -134824 -134794 -100895 4628.88 2408.93 272.681 -7.41343 
565 1 22.258 7.845 3 6.02208 -162753 -158266 82166.2 13835.8 21401.8 32188.7 -7.42482 
566 1 21.507 6.642 3 6.02199 -125364 -118197 -93088.4 -15442 -5261.25 8179.72 -7.41404 
567 1 22.174 5.39 3 6.02192 -159292 -144631 59009.2 -13667.8 32354 31282.5 -7.42283 
568 1 21.424 4.187 3 6.02913 -145218 -173963 -72693 -11284.7 -15525.8 15120.6 -7.41514 
569 1 22.091 2.936 3 6.02913 -162771 -177561 26232.6 5287.69 36097.7 28443.2 -7.42096 
570 1 21.341 1.733 3 6.02192 -138036 -143461 -41612.2 -27197.9 -26088.4 20637.7 -7.41701 
571 1 22.008 0.481 3 6.02088 -135130 -121822 -11095.3 5502.42 32843.7 24304.8 -7.41881 
614 1 23.758 10.252 3 6.02196 -142826 -128167 -86326.6 -32152.7 11577.6 -4943.17 -7.41449 
615 1 24.425 9 3 6.02557 -164636 -136410 59126 -17682.7 16836.1 43045.1 -7.42318 
616 1 23.675 7.797 3 6.02798 -142775 -167944 -90625.8 -15845 6220.21 6009.17 -7.41458 
617 1 24.342 6.546 3 6.0205 -150092 -124541 45237.3 32564.4 28328.7 43348.2 -7.42204 
618 1 23.591 5.342 3 6.02072 -124422 -125934 -82996.1 15540.4 -3622.16 16507.5 -7.41424 
619 1 24.258 4.091 3 6.02413 -117360 -174117 19910.1 6886.58 33564.2 41358.9 -7.42033 
620 1 23.508 2.888 3 6.02192 -136923 -139493 -62931.7 -33096.6 -15395 25581.3 -7.41576 
621 1 24.175 1.636 3 6.02243 -150574 -137283 -11191.9 -9444.36 31649.6 37056.5 -7.4188 
622 1 23.425 0.433 3 6.02648 -148338 -174500 -33211.9 -13932.8 -25994 32809.8 -7.41743 
665 1 26.593 10.155 3 6.02059 -155758 -113594 26013.5 -7186.81 13565.9 46801.9 -7.42101 
666 1 25.842 8.952 3 6.02303 -138409 -151628 -77069.3 -2752.9 18984.4 856.186 -7.41504 
667 1 26.509 7.701 3 6.02317 -163413 -136182 19833.2 21333.1 24802.5 49056.4 -7.42027 
668 1 25.759 6.497 3 6.02075 -130677 -140314 -83236.4 -2746.72 10708.2 13235 -7.41465 
669 1 26.426 5.246 3 6.02678 -168150 -161622 3019.24 5588.5 30761.3 48458.5 -7.42031 
670 1 25.676 4.043 3 6.02063 -91377.2 -155026 -77675.9 -26546.7 -1429.33 24879.7 -7.4149 
671 1 26.342 2.791 3 6.02042 -112400 -150181 -21122.3 3312.46 29911 45178.6 -7.41788 
672 1 25.592 1.588 3 6.02705 -147732 -171648 -59763 -15827.6 -14535.6 34918 -7.41613 
673 1 26.259 0.337 3 6.02762 -153607 -165645 -46230.8 14709.8 22426.8 39387.6 -7.41679 
1330 2 18.84 9.241 6.4 6.02568 -173195 -184722 113830 691.381 9179.51 6783.56 -7.4262 
1331 2 19.59 8.038 6.4 6.02192 -137251 -130014 -103673 14486.4 -4026.7 699.814 -7.41349 
1332 2 18.923 6.786 6.4 6.02578 -163241 -145074 96169 20411.7 25115.2 8392.24 -7.42539 
1333 2 19.673 5.583 6.4 6.02293 -100713 -185040 -86615.4 -12228.4 -12926.1 3478.06 -7.41484 
1334 2 19.007 4.332 6.4 6.01938 -114640 -167741 64302.1 -21441.1 34969.1 9564.26 -7.42268 
1335 2 19.757 3.128 6.4 6.022 -137521 -142067 -58094.4 -17267.3 -23324.8 6215.65 -7.41588 
1336 2 19.09 1.877 6.4 6.02798 -157120 -179672 24121.1 6034.6 37242.1 10005.9 -7.42121 
1337 2 19.84 0.674 6.4 6.02773 -147201 -175599 -20792.8 -759.62 -32362.2 9281.27 -7.41854 
1381 2 21.674 9.337 6.4 6.02683 -149269 -162604 -100459 -9297.69 4364.87 -524.946 -7.41367 
1382 2 21.007 8.086 6.4 6.02072 -155209 -133168 96170 -28377.2 17096.1 24991.3 -7.42483 
1383 2 21.758 6.882 6.4 6.02057 -123877 -120752 -93821.6 -37094.6 -3161.63 6250.78 -7.41385 
1384 2 21.091 5.631 6.4 6.02413 -117154 -182750 71687.4 7742.73 29721.8 26340 -7.42366 
1385 2 21.841 4.428 6.4 6.02913 -143628 -171618 -75446.9 -8044.32 -13487.2 12761.4 -7.41536 
1386 2 21.174 3.177 6.4 6.02075 -151520 -147729 36472.9 -6571.6 35325.7 26246.6 -7.42148 
1387 2 21.924 1.973 6.4 6.02371 -139079 -145886 -46788.3 -27935.2 -24416.9 18879.2 -7.41634 
1388 2 21.257 0.722 6.4 6.02221 -144164 -156843 -2985.45 -8299.63 33614.2 24316.4 -7.41949 
1432 2 23.091 9.385 6.4 6.02199 -156111 -124166 79630.2 7662.45 9654.69 37220.2 -7.42422 
1433 2 23.842 8.182 6.4 6.02208 -136771 -147490 -90090.7 -25777.4 9409.56 4515.69 -7.41465 
1434 2 23.175 6.931 6.4 6.01942 -158679 -146194 63867.3 -9189.19 23589.2 39870.8 -7.42313 
1435 2 23.925 5.727 6.4 6.0244 -137936 -138427 -84506.3 -30897 -299.633 13981.7 -7.41414 
1436 2 23.258 4.476 6.4 6.02913 -167160 -173320 36235.9 9544.11 31511.7 39888 -7.4218 
1437 2 24.008 3.273 6.4 6.022 -136434 -138766 -68262.5 3925.83 -12198.9 22968.2 -7.41544 
1438 2 23.341 2.021 6.4 6.02087 -140049 -125131 2112.96 15453.4 32137.6 37497.9 -7.41948 
1439 2 24.092 0.818 6.4 6.02225 -140464 -153654 -42383.2 -24675.8 -23703.5 30745.7 -7.41692 
1483 2 25.926 9.481 6.4 6.0205 -129212 -119590 -73731.2 -42914.4 22653.9 -417.755 -7.41501 
1484 2 25.259 8.23 6.4 6.02798 -171261 -168535 42763.9 6155.94 18137.1 47455.9 -7.42244 
1485 2 26.009 7.027 6.4 6.02672 -138531 -133451 -82117.3 3622.58 15095.7 10952.5 -7.41463 
1486 2 25.342 5.775 6.4 6.02192 -161814 -134995 23702.6 28577.8 27251.4 48612.5 -7.42074 
1487 2 26.092 4.572 6.4 6.02567 -143734 -172878 -80401.3 -17436.4 3311.59 21716.3 -7.41468 
1488 2 25.425 3.321 6.4 6.02228 -151549 -156043 -3504.08 -2193.55 29687.3 46888.9 -7.41923 
1489 2 26.176 2.118 6.4 6.02057 -129734 -118769 -67633.4 -10773.2 -10291.3 31454.5 -7.41552 
1490 2 25.509 0.866 6.4 6.02269 -142918 -135758 -33587.6 30231.4 24935.9 42273 -7.41746 
716 1 28.01 10.107 3 6.02567 -148665 -174479 -52765.7 -14987.6 31581.7 -5377.22 -7.41629 
717 1 28.677 8.856 3 6.02228 -164032 -141750 -11206.2 14579.4 22467.7 47110.1 -7.41877 
718 1 27.926 7.653 3 6.02059 -126881 -121596 -72863.7 -22010.4 25642.2 7237.12 -7.41506 
719 1 28.593 6.401 3 6.02557 -160702 -125575 -21095.1 -13343.3 28706.7 48386.5 -7.41821 
720 1 27.843 5.198 3 6.02913 -143120 -168972 -81905 -20803.1 14317 19845.1 -7.4151 
721 1 28.51 3.947 3 6.022 -153929 -128066 -37866.4 23199.3 28723 47018 -7.41732 
722 1 27.76 2.743 3 6.02068 -95319.6 -157663 -78738.6 11577.3 -46.0983 31394.3 -7.41426 
723 1 28.426 1.492 3 6.02293 -113384 -181741 -57589.7 21506.9 21729.1 42851.5 -7.41618 
724 1 27.676 0.289 3 6.02393 -147872 -163232 -64036.6 -19732.9 -14042.5 40722.6 -7.41624 
767 1 30.844 10.011 3 6.02913 -175404 -150003 -42429.9 -2839.97 21192.7 37977.8 -7.4169 
768 1 30.094 8.808 3 6.02192 -137334 -141440 -52210.7 -32663.1 39432.4 607.708 -7.41637 
769 1 30.761 7.556 3 6.02059 -153898 -99853.8 -46665.8 -3126.53 27560.6 40667.8 -7.41673 
770 1 30.01 6.353 3 6.02218 -134919 -155295 -75677.9 -1903.24 30097.1 12251.8 -7.41513 
771 1 30.677 5.102 3 6.02317 -157793 -125284 -58288.8 23618.7 28568 41272.3 -7.41567 
772 1 29.927 3.898 3 6.02075 -133269 -138948 -86866.2 -2986.42 15946.9 23668.2 -7.41424 
773 1 30.594 2.647 3 6.02913 -158686 -157698 -72597.9 6384.88 22511.2 39517.3 -7.41554 
774 1 29.844 1.444 3 6.02413 -95844.9 -170315 -85980.4 -18217.6 -384.331 33577.9 -7.41439 
775 1 30.511 0.193 3 6.02032 -132227 -112211 -84999.3 38976.4 9641.33 35163 -7.41411 
818 1 32.261 9.963 3 6.02191 -142445 -142393 -25975.4 -29023.3 50085.6 -4151.37 -7.41792 
819 1 32.928 8.711 3 6.02191 -166087 -109142 -68236.9 -20861.7 26602 26570.7 -7.41545 
820 1 32.178 7.508 3 6.02568 -143964 -177935 -59706.7 -10558.1 43900.1 4500.49 -7.41591 
821 1 32.845 6.257 3 6.02228 -159873 -131972 -75579.3 15528.2 29018.6 28336.2 -7.41501 
822 1 32.094 5.054 3 6.02059 -125587 -121032 -84126.2 -16853 31335.4 13569.1 -7.41443 
823 1 32.761 3.802 3 6.02557 -153499 -118426 -86841.9 -13951.2 24651.5 28485.7 -7.41438 
824 1 32.011 2.599 3 6.02913 -145508 -164168 -96358.1 -15111.4 14484.6 22336.9 -7.41429 
825 1 32.678 1.348 3 6.022 -147645 -125015 -96918.8 17931.8 12697.7 26890.8 -7.41344 
826 1 31.928 0.144 3 6.02155 -138791 -129361 -96299.2 -232.412 -3354.8 29365.3 -7.41345 
860 1 35.095 9.866 3 6.02 -165740 -122532 -80416.3 -8385.97 24593.6 9184.83 -7.41479 
861 1 34.345 8.663 3 6.02688 -149155 -175878 -39034.9 -6229.43 53392.9 -718.648 -7.41733 
862 1 35.012 7.412 3 6.02891 -165532 -143444 -84975 -2802.67 28757.9 10534.3 -7.41445 
863 1 34.262 6.209 3 6.02221 -134376 -140775 -72335.4 -24317.8 43872.4 4135.81 -7.41522 
864 1 34.929 4.957 3 6.02156 -140616 -95756.6 -94011.7 -5307.54 27061.4 11397 -7.41399 
865 1 34.178 3.754 3 6.02218 -135556 -150912 -95656.2 7124.51 28208.6 9336.81 -7.41399 
866 1 34.845 2.503 3 6.0228 -142031 -123603 -103914 19308.1 17549.9 11679 -7.41305 
867 1 34.095 1.299 3 6.02244 -137647 -130708 -106129 6236.47 9058.91 14194.6 -7.41316 
868 1 34.762 0.048 3 6.02703 -142478 -154018 -108837 1187.23 1028.39 10949.7 -7.41345 
1534 2 27.343 9.53 6.4 6.01942 -161733 -132417 12320.6 -11594.3 14192 48058.8 -7.42005 
1535 2 28.093 8.326 6.4 6.02475 -140994 -138999 -67465.4 -32098.4 30405.7 5243.73 -7.41512 
1536 2 27.426 7.075 6.4 6.02931 -173026 -161174 1354.7 7647.16 23692.4 50681.3 -7.41963 
1537 2 28.176 5.872 6.4 6.02192 -87365.7 -138295 -80444.5 2865.01 20294.7 16665.2 -7.41435 
1538 2 27.509 4.62 6.4 6.02059 -146336 -114113 -18252.3 16771.7 27354.3 50390.9 -7.4184 
1539 2 28.26 3.417 6.4 6.02303 -135992 -153698 -82365.1 -30316 6119.63 27204.2 -7.41461 
1540 2 27.593 2.166 6.4 6.02568 -156304 -169623 -42356.8 12976.3 24051.2 47059.8 -7.41693 
1541 2 28.343 0.963 6.4 6.02122 -139813 -128057 -73898.1 5652.27 -9008.38 36169.6 -7.41532 
1585 2 30.177 9.626 6.4 6.02672 -143615 -137432 -42368.7 7271.16 43504 -637.07 -7.41695 
1586 2 29.51 8.374 6.4 6.02188 -165741 -118361 -25868.7 23593.5 21424.8 45459 -7.41803 
1587 2 30.26 7.171 6.4 6.02293 -105332 -189705 -68264.6 -25585.3 36387 9664.99 -7.4152 
1588 2 29.594 5.92 6.4 6.02293 -125251 -175224 -38908.1 -938.208 26103.3 46598.2 -7.41712 
1589 2 30.344 4.717 6.4 6.02196 -136992 -132739 -84762.7 4006.55 23508.7 19675.8 -7.41471 
1590 2 29.677 3.465 6.4 6.02191 -151763 -125259 -56720 29909.2 24112.1 45241.6 -7.41633 
1591 2 30.427 2.262 6.4 6.02621 -146066 -168862 -90321.3 -14308.7 7097.5 28357 -7.41414 
1592 2 29.76 1.011 6.4 6.02279 -142927 -144984 -74260.5 -2240.79 15032.7 41039.9 -7.41508 
1636 2 31.594 9.674 6.4 6.02688 -175993 -144138 -52485.8 2985.7 20287.8 33863.2 -7.41668 
1637 2 32.344 8.471 6.4 6.01892 -96701.8 -157173 -46787.8 -356.305 49078 3476.41 -7.41672 
1638 2 31.678 7.219 6.4 6.02042 -121617 -131250 -59621.2 13384.3 25789.4 35801.8 -7.41575 
1639 2 32.428 6.016 6.4 6.02688 -145786 -170781 -75590.8 -10591.9 39001.4 10954.1 -7.4152 
1640 2 31.761 4.765 6.4 6.02798 -166564 -152922 -72504.7 9437.51 25500.8 35933.1 -7.41517 
1641 2 32.511 3.562 6.4 6.02192 -136217 -134868 -94137.9 7991.19 23483.4 17710.4 -7.41383 
1642 2 31.844 2.31 6.4 6.02088 -139527 -105834 -86426.9 14972.6 17844.6 33957 -7.41444 
1643 2 32.595 1.107 6.4 6.02215 -139500 -140106 -100698 -20749.8 4730.44 23247.2 -7.41381 
1687 2 34.429 9.77 6.4 6.02268 -142398 -162962 -21382.5 -18814.2 56224.4 613.102 -7.41802 
1688 2 33.762 8.519 6.4 6.02453 -123810 -147559 -75469.5 4437.59 25683.4 19920.9 -7.4146 
1689 2 34.512 7.316 6.4 6.02171 -137668 -140126 -58136.3 14520.5 50053.5 4108.73 -7.4161 
1690 2 33.845 6.064 6.4 6.022 -161471 -110681 -84108.6 25004 27403.6 20446.5 -7.41454 
1691 2 34.595 4.861 6.4 6.02664 -144046 -170656 -86727.3 -5002.03 37071.3 7084.44 -7.41454 
1692 2 33.928 3.61 6.4 6.02072 -143966 -104120 -95534.6 -25553.5 22215.3 19760.7 -7.41353 
1693 2 34.679 2.406 6.4 6.02071 -124816 -117052 -103833 -31876.5 18790.1 9517.18 -7.41337 
1694 2 34.012 1.155 6.4 6.02837 -150011 -154651 -104842 5862.83 9280.13 17739.5 -7.41365 
1733 2 35.846 9.818 6.4 6.02104 -169546 -117747 -82050.5 8357.36 24380.1 2425.75 -7.41477 
1734 2 35.929 7.364 6.4 6.02871 -169932 -139064 -86987.9 3571.28 28434 1935.59 -7.41427 
1735 2 36.012 4.909 6.4 6.0216 -144882 -91470.5 -96255.4 7015.98 26544.4 1367.66 -7.41381 
1736 2 36.096 2.455 6.4 6.01958 -143252 -118420 -106155 -13489.7 16784.1 746.101 -7.41313 
44 1 1.417 20.84 3 6.02605 -149995 -161138 -108583 3355.08 -1319.07 -1589.52 -7.41308 
45 1 0.667 19.637 3 6.0215 -159899 -146698 113980 -21157.6 10359.4 4485.6 -7.42625 
46 1 1.334 18.385 3 6.02217 -151522 -114580 -103647 -18337.9 -1342.08 -3945.34 -7.41363 
47 1 0.584 17.182 3 6.02411 -170731 -198856 96000.3 12243.4 30116.4 2366.93 -7.4253 
48 1 1.25 15.931 3 6.02253 -125674 -164092 -93856.7 12252.8 3795.35 -5746.14 -7.41372 
49 1 0.5 14.728 3 6.021 -150573 -145455 64040.8 -18588.5 46282.2 448.606 -7.42337 
50 1 1.167 13.476 3 6.02709 -164155 -107437 -84760 -21401.1 12056.9 -7205.5 -7.41448 
51 1 0.417 12.273 3 6.0285 -151054 -179657 23741.5 -2580.96 55723.6 -741.329 -7.42111 
52 1 1.084 11.022 3 6.02057 -152858 -93977.2 -80178.7 25823.2 20425.3 -8049.9 -7.41464 
96 1 2.834 20.792 3 6.02059 -156609 -128591 104913 -6068.53 390.027 21847.6 -7.42573 
97 1 3.501 19.54 3 6.02192 -146630 -124112 -96742.7 -11330.1 -6954.78 -6970.46 -7.41367 
98 1 2.751 18.337 3 6.02798 -174439 -180061 96103.7 -392.531 19833.8 17544.7 -7.42513 
99 1 3.418 17.086 3 6.02688 -163941 -150453 -86663.6 4458.62 -3491.35 -12865.1 -7.41456 
100 1 2.668 15.883 3 6.02042 -118927 -161787 71865.9 -4864.31 37688.8 12473.5 -7.42351 
101 1 3.334 14.631 3 6.01892 -117971 -129601 -75441.8 -7674.76 4280.47 -18141.2 -7.41504 
102 1 2.584 13.428 3 6.02688 -163620 -175877 36311.7 4347.57 50250.9 7372.07 -7.42192 
103 1 3.251 12.177 3 6.02451 -164005 -114187 -68254.3 17169.6 13790.7 -21947 -7.41528 
104 1 2.501 10.973 3 6.02075 -142000 -147177 -3701.93 20090.7 55435.1 2296 -7.41931 
147 1 5.669 20.696 3 6.0205 -131816 -114916 -84846 39642.3 -14348.3 -5260.18 -7.41438 
148 1 4.918 19.492 3 6.02072 -156476 -128659 79606.8 31946 7851.7 32346.4 -7.42383 
149 1 5.585 18.241 3 6.02683 -160385 -158142 -72536.7 9242.94 -13183.8 -14679.8 -7.41529 
150 1 4.835 17.038 3 6.02191 -163817 -140045 64390.9 -16497.8 25719.2 25420 -7.42327 
151 1 5.502 15.786 3 6.02191 -159237 -119014 -57985.5 -13688.5 -6234.46 -23333.3 -7.41605 
152 1 4.752 14.583 3 6.02413 -115960 -179965 36573.3 5543.89 40295.6 17560.7 -7.42119 
153 1 5.419 13.332 3 6.02228 -161923 -136252 -46722.3 14721.5 4119.37 -30552 -7.41667 
154 1 4.668 12.129 3 6.02184 -140180 -125057 1789.41 3864.14 48621.2 9050.24 -7.41945 
155 1 5.335 10.877 3 6.02557 -164363 -116672 -42401.7 -19732.8 14758.5 -35871.8 -7.41695 
198 1 7.086 20.647 3 6.02075 -163999 -140015 49804.8 12034.7 -4175.91 43351.7 -7.42203 
199 1 7.753 19.396 3 6.02218 -146541 -145383 -57406 24250.9 -24133.3 -11811.2 -7.41655 
200 1 7.002 18.193 3 6.02199 -154692 -118275 43181 -2091.4 12177.3 36351.9 -7.42202 
201 1 7.669 16.941 3 6.02192 -155347 -128573 -37691.9 -9308.11 -18809.7 -22876.8 -7.4171 
202 1 6.919 15.738 3 6.02913 -169464 -170544 24067.2 5343.33 27278.3 27293.2 -7.42082 
203 1 7.586 14.487 3 6.02913 -171743 -158912 -20924.8 3560.73 -8182.37 -32648.3 -7.41816 
204 1 6.836 13.284 3 6.02192 -151585 -138258 -3268.81 -8267.92 37874.5 16981 -7.41924 
205 1 7.503 12.032 3 6.02059 -155490 -105914 -11069.9 -4220.08 4529.4 -40626 -7.41882 
206 1 6.752 10.829 3 6.02218 -145677 -154046 -33308.1 26356.1 41395.9 6124.75 -7.4176 
254 1 9.003 14.439 3 6.02191 -156683 -130215 -18097.2 -10010.1 24837.8 23649.9 -7.41838 
256 1 8.92 11.984 3 6.02568 -156021 -169999 -41245.7 13038.9 30897.8 12276.5 -7.41697 
869 2 0 20.888 6.4 6.02795 -174917 -175810 116881 2182.27 18.7978 -29.4788 -7.42648 
870 2 0.083 18.433 6.4 6.01873 -118361 -164068 107926 -24654.6 20099.6 1408.8 -7.42549 
871 2 0.167 15.979 6.4 6.02647 -164197 -176056 82028.6 2720.95 38706.1 2499.68 -7.42484 
872 2 0.25 13.524 6.4 6.02492 -149346 -147166 45071.8 -17015.7 51724.7 2736.06 -7.42193 
873 2 0.333 11.07 6.4 6.01805 -100256 -158101 3119.94 9379.83 57334 2481.79 -7.41962 