ITEM: TIMESTEP
63
ITEM: NUMBER OF ATOMS
1736
ITEM: BOX BOUNDS pp pp pp
0.0000000000000000e+00 3.6179139200000002e+01
0.0000000000000000e+00 6.2664107199999997e+01
0.0000000000000000e+00 1.5000000000000000e+01
ITEM: ATOMS id type x y z c_csym c_2[1] c_2[2] c_2[3] c_2[4] c_2[5] c_2[6] c_3 
53 1 0.35203 9.81673 2.94988 6.01185 -136304 -156002 27337.8 -41700.8 44090.1 -4410.07 -7.4191 
54 1 1.01822 8.56489 2.93911 6.00987 -169630 -120465 -17500.1 -36691.7 16477 -7770.29 -7.4155 
55 1 0.267327 7.36242 2.92877 6.01657 -136138 -156234 12167.8 -27627.3 35759 -3847.23 -7.41719 
56 1 0.932253 6.11 2.91925 6.0139 -163818 -127501 -6313.66 -21815.6 16637.1 -6863.6 -7.41551 
57 1 0.179983 4.90827 2.91042 6.02135 -137964 -154208 3708.04 -13783.3 24533.7 -2704.58 -7.41589 
58 1 0.843864 3.65535 2.90358 6.01942 -156940 -134877 -1318.12 -9221.33 12863.8 -5643.55 -7.41527 
59 1 0.090571 2.45416 2.89785 6.02632 -141281 -150615 282.738 -3686.98 12075.4 -1318.12 -7.41518 
60 1 0.753808 1.20093 2.89488 6.02701 -149486 -142277 -252.359 -1984.94 4984.59 -4139.86 -7.41504 
61 1 7.27111e-06 4.27646e-06 2.89337 6.03091 -145847 -145855 -310.979 46.8278 0.138887 0.107151 -7.41498 
105 1 3.18441 9.71669 2.95266 6.00999 -194665 -94963.3 -17326 -44238.3 13065.5 -21494.1 -7.41598 
106 1 2.43524 8.51321 2.94126 6.00737 -158325 -134295 13787.6 -29946.3 38658.7 -3407.87 -7.41785 
107 1 3.10008 7.26054 2.93291 6.0111 -184339 -106585 -4879.37 -28940.1 15644.9 -20556.8 -7.41608 
108 1 2.34922 6.05799 2.92172 6.01307 -152795 -139464 3810.45 -13900.4 28523.2 -6066.24 -7.41637 
109 1 3.01312 4.80496 2.91556 6.01533 -172173 -119560 789.085 -14155.7 14508 -18641.2 -7.41584 
110 1 2.26079 3.60319 2.90635 6.01871 -149042 -142910 -293.817 -748.961 16432.7 -7827.73 -7.41547 
111 1 2.92408 2.34992 2.9036 6.02221 -159027 -132958 1439.88 -3878.7 9239.75 -16024.3 -7.41547 
112 1 2.17073 1.14871 2.89785 6.0233 -146625 -145250 -642.846 6408.02 3923.93 -8997.94 -7.41512 
156 1 4.60134 9.66574 2.95669 5.99713 -183197 -108803 8142.92 -31457.8 38295.7 532.029 -7.41811 
157 1 5.26617 8.41285 2.95012 6.00648 -205005 -85462.5 3319.01 -33361.9 13095.3 -32905 -7.41729 
158 1 4.51698 7.20929 2.93805 6.00341 -171565 -120207 -1912.54 -12424.3 29771.3 -5864.37 -7.41664 
159 1 5.18098 5.95616 2.93302 6.01132 -189396 -102106 8296.58 -15943.3 15230.3 -30898.2 -7.41702 
160 1 4.42999 4.75357 2.92165 6.01095 -161427 -130173 -5167.84 4724.41 18438.8 -10803 -7.41573 
161 1 5.09342 3.50028 2.91936 6.01782 -172305 -119889 7192.07 -1885.82 13181.2 -27575 -7.41646 
162 1 4.34096 2.29849 2.91037 6.01648 -152873 -138740 -3586.44 16095.6 6088.43 -14601.7 -7.41537 
163 1 5.00423 1.04525 2.91173 6.01835 -154085 -138053 2433.9 5292.36 6879.78 -23195.6 -7.41587 
207 1 7.43054 9.56726 2.96793 5.99751 -221066 -68655.8 19242.2 -36039.9 8272.21 -41654.4 -7.4191 
208 1 6.68301 8.36266 2.95653 5.99648 -190397 -99833.5 -14984 -11231.4 28350.9 -2718.7 -7.41649 
209 1 7.34731 7.10951 2.95304 6.00465 -204802 -86129.8 22816.7 -15775.5 14449.8 -40616.6 -7.41881 
210 1 6.59781 5.90596 2.94101 6.004 -175500 -114709 -16500.6 10730.7 18205.2 -10424.1 -7.41572 
211 1 7.26154 4.65273 2.93942 6.01257 -186189 -106002 18982.4 2602.92 16338.6 -37270.5 -7.41807 
212 1 6.51025 3.45014 2.92857 6.01074 -162478 -128305 -11784.6 27284 6293.16 -16556.4 -7.4155 
213 1 7.17375 2.19697 2.92984 6.01297 -165754 -126730 10017.8 14643.4 13482 -32421.3 -7.41711 
214 1 6.42111 0.995121 2.92166 6.01316 -150507 -140793 -3489.49 35378.4 -5516.07 -21510.9 -7.41577 
258 1 8.84737 9.51817 2.97415 5.99411 -204966 -82746.5 -35170.9 -12004.7 24358.9 2309.24 -7.4158 
260 1 8.76411 7.06068 2.96134 6.00045 -187792 -100205 -35089.8 15045 16040.8 -7326.72 -7.41526 
262 1 8.67834 4.60417 2.94942 6.0079 -172323 -116889 -26891.3 37675.8 4890.44 -15240.3 -7.41528 
264 1 8.59058 2.14858 2.94103 6.01044 -158089 -132148 -13363.9 51753.9 -6893.27 -21722.5 -7.41582 
874 2 0.398623 8.61504 6.46058 6.01257 -128235 -163996 18982.2 35845.5 40447.5 4486.46 -7.41807 
875 2 0.484644 6.16117 6.48064 6.01781 -131259 -160860 7191.06 21729.4 30470.7 2372 -7.41646 
876 2 0.573065 3.70728 6.4964 6.02215 -136152 -155747 1440.27 9395.48 18496.7 9.98569 -7.41547 
877 2 0.663144 1.25327 6.50512 6.02707 -142421 -149462 -252.413 2105 6077.99 -2246.58 -7.41503 
878 2 8.29608e-06 2.72471e-06 6.50663 6.03092 -145868 -145871 -310.992 -21.7719 -0.255619 0.0512903 -7.41498 
921 2 2.48337 9.9177 6.44696 6.00464 -102144 -188897 22816.6 43326.7 42400.8 7794.69 -7.41881 
922 2 1.81582 8.66685 6.45899 6.00402 -139249 -151054 -16500.9 31724.8 18130.6 -10553.1 -7.41572 
923 2 2.56771 7.46494 6.46698 6.01135 -110076 -181426 8295.77 29752.4 34374 2259.54 -7.41702 
924 2 1.90173 6.21327 6.47835 6.011 -142053 -149480 -5168.13 15930.6 18575.1 -10567.8 -7.41573 
925 2 2.65467 5.01191 6.48444 6.01537 -120489 -171270 789.162 15698.5 23397.7 -3243.94 -7.41585 
926 2 1.99007 3.7595 6.49365 6.01864 -143842 -148152 -293.757 2299.07 14995.6 -10317.4 -7.41547 
927 2 2.7437 2.55848 6.49642 6.01935 -132386 -159412 -1318.13 4948.58 11319.4 -8318.38 -7.41527 
928 2 2.08009 1.30551 6.50214 6.02631 -145137 -146807 282.57 -5906.77 7179.33 -9798.59 -7.41518 
929 2 2.83389 0.104551 6.50069 6.02309 -145503 -146373 -232.551 496.386 -171.882 -12622.7 -7.4152 
972 2 3.90078 9.96898 6.44347 5.9964 -112866 -177524 -14983.1 33632.9 16530.3 -23192.3 -7.41649 
973 2 4.65267 8.76706 6.44988 6.0065 -86473.2 -204013 3318.22 35001.5 35044.4 5111.34 -7.41729 
974 2 3.98496 7.51646 6.46195 6.00348 -122322 -169419 -1912.36 16022.8 19964.4 -22850.7 -7.41664 
975 2 4.73779 6.31501 6.46709 6.01115 -101048 -189869 -4879.4 19212 25625.5 -3271.45 -7.41609 
976 2 4.07178 5.06347 6.47828 6.01308 -130800 -161488 3810.96 -1134.57 19515.1 -21669.5 -7.41637 
977 2 4.8253 3.86235 6.48075 6.01393 -117697 -173670 -6313.61 4879.03 14261.9 -10976.3 -7.41551 
978 2 4.1607 2.61 6.48957 6.02135 -138155 -153950 3708.49 -13979.3 14609.3 -19894.7 -7.41589 
979 2 4.91446 1.40895 6.48832 6.01526 -135577 -156120 -3030.3 -4166.21 2818.92 -17676.4 -7.41548 
980 2 4.25082 0.156018 6.49364 6.01884 -145368 -146540 293.54 -19387.9 5575.67 -17568 -7.41548 
1023 2 6.73965 10.0672 6.43241 6.00177 -65435.7 -223939 -8972.68 38649.5 32165.1 10026.8 -7.4171 
1024 2 6.07012 8.81775 6.44331 5.99714 -100244 -191910 8142.68 16489.5 18687.4 -33430.5 -7.41811 
1025 2 6.8227 7.61611 6.44734 6.00999 -81665.5 -208072 -17325.5 21122.1 25147.6 -568.173 -7.41598 
1026 2 6.15505 6.36558 6.45874 6.00741 -114436 -178254 13787.6 -4643.35 22281.5 -31775.3 -7.41785 
1027 2 6.90832 5.16424 6.46089 6.00993 -101095 -189063 -17499.8 2993.1 14968.1 -10384.5 -7.4155 
1028 2 6.24239 3.91271 6.47123 6.01659 -127236 -165218 12168.6 -22536.7 21211.2 -29044.5 -7.41719 
1029 2 6.996 2.71148 6.47034 6.00885 -122168 -168731 -11241.6 -11105 3831.51 -19024.5 -7.41562 
1030 2 6.33143 1.45915 6.47826 6.01491 -138987 -152810 5475.1 -33607.5 15295.2 -25613.5 -7.4164 
1031 2 7.08486 0.257761 6.47368 6.00878 -144108 -147797 -1096.45 -17682.6 -6288.76 -26355 -7.41622 
1074 2 8.15729 10.1171 6.42555 5.993 -80359.4 -211757 25404.4 18819.6 13515.3 -40309 -7.42002 
1075 2 8.90943 8.91513 6.42835 6.01058 -67184.8 -220589 -36632 22636.2 21857.4 3902.68 -7.4154 
1076 2 8.24013 7.66555 6.43816 6.00288 -98153 -194476 30828.4 -6025.48 22073.6 -39053.5 -7.41988 
1077 2 8.99294 6.46387 6.44 6.00911 -86583.6 -201566 -35790.8 748.46 13543.3 -7220.37 -7.41506 
1078 2 8.32553 5.21322 6.45012 6.01187 -114997 -177352 27337.1 -29497.7 25865.2 -35978.2 -7.4191 
1080 2 8.41305 2.76008 6.45871 6.00957 -130116 -161433 16867.1 -46880.9 24093.3 -31909.6 -7.41795 
1082 2 8.50177 0.30615 6.46191 6.00979 -144302 -146713 2272.61 -54981.2 17239.9 -27179.7 -7.41677 
259 1 9.5122 8.26515 2.97257 5.99855 -213879 -76027.9 44421.4 -14924.8 11393.2 -45375.4 -7.42113 
261 1 9.42838 5.80761 2.96067 6.00742 -196693 -95029.4 37895.8 8118.13 18016.6 -43181.4 -7.42026 
263 1 9.34227 3.35115 2.95065 6.00828 -176970 -115769 24253.4 25929.6 19422 -38723.5 -7.41895 
265 1 9.25458 0.895792 2.94487 6.00213 -155055 -137154 6731.27 34415.3 15477.4 -32802.9 -7.41752 
309 1 11.676 9.42282 2.9888 5.99665 -212391 -76052.1 70263.2 -14753.8 5580.06 -42732 -7.42366 
310 1 10.929 8.21762 2.97965 6.00195 -194030 -90672.8 -59525.1 15423.3 12314.5 -2506.96 -7.41432 
311 1 11.5941 6.9649 2.98005 6.00415 -199627 -90742.7 62780.1 12640.1 17297.6 -42818.5 -7.42283 
312 1 10.8452 5.76068 2.96976 6.00813 -178617 -107845 -48810.6 44417.8 2436.96 -11225.3 -7.41459 
313 1 11.5098 4.50796 2.971 6.00504 -183606 -108587 45381.4 36621.8 23739.7 -39941.5 -7.42127 
314 1 10.7591 3.30466 2.96131 6.01135 -164717 -123900 -30312.1 65547.1 -9067.96 -18535.6 -7.41544 
315 1 11.4235 2.05206 2.96425 5.99702 -164729 -127730 21730.5 51961.5 23937.1 -35140.4 -7.41935 
316 1 10.6714 0.849472 2.95656 6.0067 -151151 -138575 -7752.39 75199.3 -19886.1 -24714.2 -7.41677 
360 1 13.0929 9.37624 2.99349 6.00757 -190416 -90244.2 -85385.8 10046.5 7805.82 2141.36 -7.41311 
361 1 13.7592 8.12409 2.99497 6.00529 -191497 -96724.5 89104.7 13592.4 13670.5 -34476.4 -7.42534 
362 1 13.011 6.91933 2.98673 6.01221 -177796 -105140 -74756.1 44249.6 -309.715 -5713.4 -7.41352 
363 1 13.6766 5.66709 2.98798 6.00261 -181958 -108586 70751.9 43558.2 25331.5 -33992.6 -7.42376 
364 1 12.9266 4.46318 2.97941 6.01402 -166595 -119477 -53165.4 72779.6 -11108.9 -12622.6 -7.41462 
365 1 13.5918 3.21092 2.98137 5.99439 -168870 -122891 42983.6 66413.7 30366.7 -31287.1 -7.42153 
366 1 12.8404 2.00774 2.97401 6.00363 -156011 -132390 -24826.9 90261.3 -22166.8 -18569.6 -7.41627 
367 1 13.5054 0.75562 2.97738 5.98997 -153092 -138234 10433.4 76958.1 28475.4 -27120.3 -7.41908 
411 1 15.9241 9.2842 3.00385 6.01046 -171328 -114570 109704 9371.11 7520.88 -18997.6 -7.42722 
412 1 15.1762 8.07928 2.99828 6.01849 -166772 -112050 -98855.4 35250.8 -2225.48 -950.57 -7.41237 
413 1 15.843 6.82772 2.99942 6.00316 -169653 -118465 94474.3 43451.1 23655.7 -20658.1 -7.42593 
414 1 15.0935 5.62349 2.99283 6.01495 -160550 -122331 -77790.1 69737.2 -11856.4 -5685.54 -7.41352 
415 1 15.7596 4.37172 2.99369 5.99225 -164691 -125518 66440.1 73269.5 33506.3 -20379.9 -7.42366 
416 1 15.0086 3.16814 2.98763 6.00305 -155125 -131336 -46662 95228.9 -22765.7 -9956.39 -7.41536 
417 1 15.6742 1.91629 2.98912 5.98809 -156394 -134345 30552.5 92131 35746.1 -18740.3 -7.42091 
418 1 14.9223 0.713183 2.98479 5.99396 -149479 -139081 -10407.7 106812 -32455.5 -13815.9 -7.4177 
462 1 17.3413 9.23934 3.00368 6.02526 -145441 -129949 -113723 18372.6 -2131.47 622.308 -7.41159 
463 1 18.0096 7.98864 3.00449 6.0067 -147588 -138279 109276 35068.2 19076.6 -2532.3 -7.42721 
464 1 17.2601 6.78444 3.00015 6.01573 -144806 -134371 -97531.7 55230.4 -10161.2 -325.977 -7.41252 
465 1 17.9273 5.53332 2.99977 5.99396 -150968 -136759 85650.9 69496.2 32873.2 -4097.9 -7.42526 
466 1 17.1765 4.32964 2.9955 6.00288 -146135 -137667 -68131.8 86988 -20467.4 -1341.9 -7.41428 
467 1 17.8429 3.07818 2.99498 5.98745 -151665 -137754 51113 95748.7 39071 -4812.27 -7.42255 
468 1 17.0912 1.8749 2.99205 5.99412 -147635 -139859 -30601.5 106896 -30669.9 -2504.09 -7.41666 
469 1 17.757 0.623274 2.99224 5.98796 -149188 -140458 10936.8 108121 37610.4 -4931.15 -7.41958 
1079 2 9.07882 4.01168 6.44976 6.00384 -108557 -180456 -26467.1 -18874.5 3097.09 -17149.9 -7.41538 
1081 2 9.16638 1.55847 6.45527 6.00078 -131990 -158889 -11266.3 -31760.8 -7298.26 -25649.7 -7.41626 
1125 2 10.9977 10.2124 6.41299 6.0111 -63264.5 -222155 -60298.5 24538.5 16158.9 8585.71 -7.41443 
1126 2 10.327 8.96354 6.41964 6.00001 -86334.5 -205439 53918.2 -3798.16 17543.6 -41364.6 -7.42226 
1127 2 11.0791 7.76135 6.42114 6.01252 -78835.2 -206347 -59907.4 -390.253 10266.4 -2486.04 -7.41418 
1128 2 10.4103 6.51148 6.42938 6.00783 -104916 -186771 49402.9 -32364.7 27079.1 -38808.4 -7.42151 
1129 2 11.163 5.30947 6.42971 6.00289 -98818.6 -187449 -48545.7 -25418.8 1018.37 -12741.9 -7.41467 
1130 2 10.496 4.0586 6.43804 6.00303 -121744 -169036 35504 -56475.8 30555.1 -34839.5 -7.42009 
1131 2 11.249 2.85664 6.43609 5.9963 -121165 -167451 -28833.1 -45296.5 -9321.02 -21608.3 -7.41582 
1132 2 10.5834 1.60494 6.44321 6.00234 -137153 -153235 15310.5 -71846.5 27744.1 -30091.3 -7.4184 
1133 2 11.3362 0.4028 6.43834 5.99409 -143555 -147436 -4228.95 -55012.3 -18465.4 -29017.2 -7.41745 
1176 2 12.4153 10.2601 6.40576 5.99855 -83815.2 -206015 78787.7 3061.26 8148.94 -37210.7 -7.42459 
1177 2 13.1664 9.05723 6.40687 6.01721 -82464.7 -198903 -85532.3 1170.15 6110.58 2083.97 -7.41304 
1178 2 12.4966 7.80785 6.41193 6.00614 -100946 -188876 75619.8 -29070.9 23339.5 -35616.7 -7.4241 
1179 2 13.2484 6.60522 6.41299 6.00696 -97091.1 -185366 -74632.5 -28511.2 -1556.47 -6969.11 -7.41357 
1180 2 12.5802 5.3549 6.41928 5.99912 -117337 -172094 60172.8 -59368.4 32845.2 -32434.1 -7.42262 
1181 2 13.3326 4.15244 6.41905 5.99732 -115575 -170050 -52361.7 -55314.9 -11438.7 -15036.2 -7.41488 
1182 2 12.666 2.90129 6.42522 5.99533 -132125 -157463 35629.7 -82458.3 35225.7 -28382.5 -7.42056 
1183 2 13.4187 1.69883 6.42273 5.99103 -134933 -154064 -22647.7 -72852.5 -21271.8 -21741.9 -7.41678 
1184 2 12.7531 0.447075 6.42773 5.99669 -144776 -144483 6024.23 -93574.8 31022.1 -23761.4 -7.41833 
1227 2 15.2542 10.3525 6.3986 6.02143 -99647.6 -177843 -105763 6701.01 2669.61 4175.84 -7.41203 
1228 2 14.5839 9.10313 6.39992 6.00757 -106850 -180512 99929.7 -18703.4 14341 -25944.9 -7.42635 
1229 2 15.3345 7.89974 6.40162 6.01445 -106620 -171723 -98818.5 -25902.5 -3172.72 -1918.5 -7.41239 
1230 2 14.6657 6.64966 6.40496 6.00012 -120205 -167311 86325.1 -53188.8 29510.8 -23594.1 -7.42511 
1231 2 15.4171 5.44655 6.40652 6.0029 -118440 -163520 -77492.9 -58447.7 -12277.9 -7617.49 -7.41365 
1232 2 14.7498 4.19574 6.41064 5.99286 -132371 -156017 60388.1 -83135 37719.1 -20653 -7.42294 
1233 2 15.5019 2.99284 6.41081 5.99425 -132249 -154017 -45722 -83673.1 -22440.3 -12401.3 -7.41563 
1234 2 14.8356 1.74145 6.41456 5.9905 -142161 -146844 26630 -102368 38262.2 -17373 -7.42032 
1235 2 15.588 0.538563 6.41256 5.9893 -145464 -144137 -8262.47 -95852.1 -31217.8 -16087.8 -7.41813 
1278 2 16.6717 10.3984 6.39423 6.01298 -123978 -161397 114873 -2215.66 1849.04 -11567.7 -7.42769 
1279 2 17.4207 9.19418 6.39631 6.02322 -127670 -147670 -113720 -16334.7 -2419.32 83.5262 -7.41159 
1280 2 16.7518 7.94393 6.39658 6.00541 -132593 -153199 106846 -37601.2 20810 -9314.1 -7.42698 
1281 2 17.5019 6.74008 6.39975 6.01203 -131327 -147518 -97492.8 -52461.6 -10344.3 -1852 -7.41254 
1282 2 16.8343 5.48928 6.40137 5.99378 -140284 -147078 83729.3 -72087.8 34249.1 -7244.54 -7.42506 
1283 2 17.5855 4.28583 6.40421 6 -137600 -146007 -67981.2 -83945.8 -20468.3 -3444.79 -7.41433 
1284 2 16.9189 3.03456 6.40607 5.98831 -145559 -143332 49774.6 -98387.6 39976.7 -5464.11 -7.42237 
1285 2 17.6708 1.83139 6.4074 5.99226 -144218 -143469 -30207.8 -103923 -30450.9 -4492.81 -7.41676 
1286 2 17.0049 0.579825 6.40859 5.98943 -147915 -141359 10135.8 -110913 38111.8 -3883.14 -7.41944 
461 1 18.0896 10.444 3.0066 6.01763 -142537 -142539 117629 -15.594 0.191813 0.0953485 -7.42793 
512 1 19.507 10.3983 3.00368 6.02528 -117871 -157561 -113723 -2507.97 526.57 -2156.76 -7.41159 
513 1 20.1767 9.14858 3.00386 6.01045 -120596 -165341 109704 19879 12691.6 16012.2 -7.42722 
514 1 19.4269 7.94474 3.00148 6.01739 -121200 -155760 -105736 32141.6 -5440.95 1272.9 -7.41204 
515 1 20.0953 6.69439 2.9997 5.99906 -130708 -155894 94319.4 55426.6 28961.6 13757.5 -7.42589 
516 1 19.3444 5.49091 2.99712 6.00446 -128686 -152504 -82723.1 66379.8 -14672.2 4436.74 -7.41342 
517 1 20.0116 4.23996 2.99452 5.99089 -139354 -148848 65922.2 86426.1 38275.4 11473.4 -7.42356 
518 1 19.2599 3.03679 2.99304 5.99488 -137955 -148074 -48910.9 92608.3 -24948.9 6976.77 -7.41553 
519 1 19.9261 1.78538 2.99071 5.98912 -145347 -143926 29376 106297 39706.5 9214.37 -7.42076 
520 1 19.1739 0.582336 2.99123 5.9893 -146399 -142686 -9350.27 104991 -33802.4 8733.48 -7.41816 
563 1 22.3447 10.3066 2.99942 6.00316 -93658.5 -194533 94473.3 508.35 6062.35 30815.7 -7.42593 
564 1 21.5942 9.10331 2.99828 6.01849 -95089 -183700 -98855 5985.21 1935.86 -1452.35 -7.41237 
565 1 22.2639 7.85374 2.99497 6.00531 -108686 -179543 89104.7 34326.6 23021.1 29078 -7.42534 
566 1 21.5126 6.6507 2.99349 6.00755 -106534 -174131 -85386 38256.8 -5757.09 5689.19 -7.41311 
567 1 22.1807 5.40031 2.9888 5.99667 -123011 -165421 70264.1 66531.6 34216.8 26198.1 -7.42366 
568 1 21.4287 4.1975 2.98829 5.99762 -121708 -162887 -59636 67132.8 -15639 12029.1 -7.41467 
569 1 22.0954 2.94638 2.98349 5.99211 -135429 -153523 41577.5 91165.1 37933 22711.4 -7.42132 
570 1 21.3431 1.74365 2.98496 5.99074 -137552 -150948 -26004 85913.4 -25430.5 17194.4 -7.41683 
571 1 22.0088 0.492009 2.98108 5.99292 -145598 -143521 7530.79 103074 34621.1 18809.7 -7.41879 
614 1 23.7623 10.2596 2.99282 6.01493 -71452.2 -211488 -77789.7 -18314.3 10852.7 -7425.85 -7.41352 
615 1 24.433 9.01073 2.98798 6.00261 -89353.2 -201307 70752 10140.5 16773.4 38933.9 -7.42376 
616 1 23.6813 7.80818 2.98673 6.01221 -84948 -197942 -74755.5 9246.88 5103.68 2588.08 -7.41352 
617 1 24.3503 6.55835 2.98005 6.00415 -107204 -183184 62779.5 41008.5 28433.5 36389.7 -7.42283 
618 1 23.598 5.356 2.97965 6.00199 -103121 -181561 -59525.4 36939.5 -3985.17 11917.8 -7.41432 
619 1 24.2652 4.10522 2.97257 5.99855 -123516 -166402 44421.1 67303.3 33599.8 32554.6 -7.42113 
620 1 23.5125 2.90294 2.97415 5.99416 -123556 -164170 -35171.3 58864.5 -14179.4 19940.2 -7.4158 
621 1 24.1784 1.6514 2.96793 5.99749 -138047 -151811 19243.1 84172.6 31937.8 27990.9 -7.4191 
622 1 23.4257 0.448993 2.97217 5.99088 -143957 -146688 -5592.11 69589 -23121.5 26537.8 -7.41777 
665 1 26.6025 10.1654 2.98137 5.9944 -77010 -214897 42984.5 -13167.1 11913.1 41941.3 -7.42153 
666 1 25.8506 8.9632 2.97942 6.014 -68254.3 -217891 -53166.2 -16023.8 16486.4 -3309.24 -7.41462 
667 1 26.5202 7.7138 2.971 6.00506 -95785.7 -196508 45381.6 14311.3 22721.5 40529.7 -7.42127 
668 1 25.7677 6.51186 2.96976 6.0081 -87126.8 -199460 -48810 8371.14 8504.17 7722.32 -7.41459 
669 1 26.4354 5.26141 2.96067 6.00744 -113556 -178216 37896.7 40114.5 28388.4 37193.5 -7.42026 
670 1 25.6824 4.0596 2.96134 6.00042 -109019 -178922 -35090 30271 -1674.78 17554.7 -7.41526 
671 1 26.3485 2.8082 2.95304 6.00464 -129591 -161377 22817.9 59355.4 27950.2 32822.6 -7.41881 
672 1 25.5954 1.60632 2.95653 5.99642 -132185 -158098 -14983.6 44761.6 -11820.4 25911.6 -7.41649 
673 1 26.2603 0.354207 2.95012 6.00649 -144259 -146193 3319.17 68494.9 21948.5 27793.2 -7.41729 
1330 2 18.838 9.2389 6.39423 6.01299 -153958 -131492 114873 -15100.3 9093.5 7385.5 -7.42769 
1331 2 19.5865 8.03428 6.3986 6.02144 -152465 -125004 -105764 -37144.6 -4950.83 224.422 -7.41203 
1332 2 18.9191 6.78315 6.39807 6.0005 -156387 -130736 98640.8 -50495.1 25850.1 9349.46 -7.42633 
1333 2 19.669 5.5791 6.40325 6.01099 -150672 -131086 -82883.9 -72370.4 -14471.3 2536.41 -7.41334 
1334 2 19.0025 4.32764 6.40326 5.99028 -156171 -133025 69134.7 -81335.7 36028.1 10009.9 -7.42395 
1335 2 19.7536 3.12412 6.40778 5.99955 -149965 -136177 -49409.6 -98645.6 -25149.4 4764.21 -7.41538 
1336 2 19.0877 1.87247 6.40739 5.98682 -152787 -137424 31457.7 -100965 38355.1 9731.74 -7.42107 
1337 2 19.8397 0.669312 6.41015 5.99183 -148526 -140073 -10488.1 -110706 -34481.9 6972.84 -7.41792 
1381 2 21.6705 9.33019 6.40162 6.01447 -177893 -100454 -98818.2 -15118.4 3247.95 -1788.24 -7.41239 
1382 2 21.0036 8.0785 6.39992 6.00756 -178203 -109127 99930 -22558.7 15297.5 25393.3 -7.42636 
1383 2 21.7521 6.87383 6.40687 6.01725 -168910 -112529 -85532.6 -50907.5 -4859.53 4249.73 -7.41304 
1384 2 21.086 5.62196 6.40576 5.9986 -172736 -116900 78788.1 -54567 28151.1 25662.2 -7.42459 
1385 2 21.8361 4.41805 6.41299 6.01113 -161152 -124012 -60299.1 -81026.3 -15514.3 9700.25 -7.41443 
1386 2 21.1705 3.16608 6.41153 5.99067 -163878 -127277 47507.1 -78911.5 33972.5 24051.5 -7.42211 
1387 2 21.922 1.96279 6.41757 5.99956 -153808 -134117 -27758.6 -99537.2 -26283.8 14509.4 -7.41641 
1388 2 21.2566 0.710873 6.41502 5.98865 -151890 -138827 11080.7 -90180.9 32481.8 21168.9 -7.4194 
1432 2 23.0875 9.37603 6.40496 6.00013 -201527 -85952.7 86324.6 6137.57 5677.62 37354.4 -7.42511 
1433 2 23.8347 8.17081 6.41299 6.00695 -188054 -94352.3 -74632.3 -23811.6 6813.76 2136.4 -7.41357 
1434 2 23.1691 6.91842 6.41193 6.00613 -192097 -97776.3 75620.1 -23614.1 19174.2 38021 -7.4241 
1435 2 23.9181 5.71411 6.42115 6.01247 -174971 -110341 -59907.4 -54907.1 -2980.27 10133.8 -7.41418 
1436 2 23.253 4.46168 6.41964 6.00002 -178919 -112892 53918.3 -49761.1 27050.6 35875.7 -7.42226 
1437 2 24.0037 3.25822 6.42835 6.01057 -162793 -125072 -36632.5 -77673 -14309.1 16976.9 -7.4154 
1438 2 23.3389 2.00588 6.42555 5.99299 -162656 -129472 25404.6 -66356.3 28150.6 31859.4 -7.42002 
1439 2 24.0908 0.80307 6.43241 6.00175 -150725 -138506 -8972.72 -87956 -24765.1 22842.2 -7.4171 
1483 2 25.9167 9.47019 6.41905 5.99733 -204316 -81277 -52362.6 4228.26 18740.9 -2387.51 -7.41488 
1484 2 25.2516 8.21736 6.41928 5.99913 -209747 -79744.5 60172.8 5886.46 11665.9 44662 -7.42262 
1485 2 25.9995 7.0127 6.42971 6.00292 -187457 -98880.7 -48546 -25467.8 10524.9 7253.47 -7.41467 
1486 2 25.3349 5.75984 6.42938 6.00778 -194331 -97386 49403.1 -19350.5 20068.4 42855.7 -7.42151 
1487 2 26.0848 4.55618 6.44 6.00907 -172261 -115911 -35791.4 -50079.7 -518.244 15338.3 -7.41506 
1488 2 25.4205 3.30338 6.43816 6.0029 -175681 -117017 30829.8 -38802.1 22783.8 38642.8 -7.41988 
1489 2 26.172 2.10057 6.44734 6.00998 -158137 -131472 -17325.7 -65251.6 -12081 22061.7 -7.41598 
1490 2 25.5077 0.847996 6.44331 5.99711 -154600 -137413 8143.74 -47911 19608.8 32899.5 -7.4181 
716 1 28.0202 10.1162 2.97401 6.00362 -60235.8 -228313 -24827.9 -34902.7 27164.7 -9912.18 -7.41627 
717 1 28.6902 8.86702 2.96425 5.99698 -92074.7 -200501 21731.4 -9929.32 18464.3 38299.8 -7.41935 
718 1 27.9377 7.6653 2.96131 6.0113 -77412.7 -211282 -30312.5 -15198.2 20586.8 1415.37 -7.41544 
719 1 28.6058 6.41506 2.95065 6.0083 -108726 -183960 24254.1 13612.9 23825.3 36182.5 -7.41895 
720 1 27.8527 5.21357 2.94942 6.00796 -98088.3 -190995 -26891.4 5020.88 10753.6 11856.1 -7.41527 
721 1 28.519 3.96231 2.93942 6.01258 -123869 -168310 18982.7 33417.3 24107.9 32785.8 -7.41807 
722 1 27.7655 2.76088 2.94101 6.00404 -120671 -169724 -16500.8 20848.7 -73.7913 20978 -7.41572 
723 1 28.4305 1.50878 2.93302 6.01133 -137790 -153767 8296.08 45841.5 19143.7 28638.4 -7.41702 
724 1 27.6772 0.307161 2.93805 6.00343 -143787 -147952 -1912.55 28384.6 -9806.42 28715.2 -7.41664 
767 1 30.8599 10.0188 2.96166 5.99405 -98885.9 -192370 -4229.14 -29240.5 15897.8 30498.9 -7.41745 
768 1 30.1078 8.817 2.95656 6.0067 -76684.6 -213211 -7753.01 -32222.3 31346.2 -4865.38 -7.41676 
769 1 30.7761 7.5668 2.94487 6.00214 -111862 -180422 6731.23 -9472.08 20669.3 29805.4 -7.41752 
770 1 30.0231 6.36536 2.94103 6.01052 -93841.6 -196469 -13364.2 -14743 22258.9 4891.89 -7.41582 
771 1 30.6896 5.11416 2.92984 6.01295 -123873 -168718 10017.7 9528.71 21336.6 27886.7 -7.41711 
772 1 29.9361 3.91297 2.92857 6.01074 -113222 -177674 -11784.5 1032.36 11191.5 13728.5 -7.4155 
773 1 30.6011 2.66088 2.91936 6.0178 -134623 -157527 7192.12 23695.9 17290.2 25202.6 -7.41646 
774 1 29.8474 1.4597 2.92165 6.01095 -133854 -157688 -5168.2 11142.8 135.898 21370.2 -7.41573 
775 1 30.5114 0.206951 2.91556 6.01531 -144998 -146737 788.626 29868.1 8889.59 21884.7 -7.41585 
818 1 32.2774 9.96791 2.95679 6.00233 -87081.4 -203394 15309.8 -42756.6 39932.8 -8982 -7.4184 
819 1 32.9456 8.71754 2.94473 6.00076 -124523 -166341 -11266.3 -27532.4 18564.1 19145 -7.41626 
820 1 32.1934 7.51582 2.93809 6.00981 -98507.1 -192581 2271.59 -28424.7 32158.5 -1341.4 -7.41677 
821 1 32.8599 6.26454 2.92632 6.00881 -131552 -160451 -1096.23 -10425 19679.6 18623.3 -7.41622 
822 1 32.1068 5.06327 2.92166 6.01319 -112599 -178736 -3489.78 -13547.4 21386.5 5978.6 -7.41577 
823 1 32.7718 3.81116 2.91172 6.01832 -137473 -154671 2434.13 4251.29 16647.6 17555.8 -7.41587 
824 1 32.0181 2.61013 2.91037 6.0165 -128309 -163344 -3586.48 -1971.75 9601.03 12573.4 -7.41537 
825 1 32.682 1.35736 2.9036 6.02224 -142848 -149188 1439.62 13243 9257.74 16013.6 -7.41547 
826 1 31.9283 0.156302 2.90635 6.01871 -145108 -146906 -294.092 3028.33 -1437.4 18145.2 -7.41547 
860 1 35.114 9.86832 2.95024 6.00382 -146081 -142971 -26467.4 -40673.9 16400.9 5892.38 -7.41538 
861 1 34.3629 8.66595 2.9413 6.00953 -113003 -178568 16866.8 -36855.3 39681.9 -4911.38 -7.41795 
862 1 35.0294 7.41445 2.92966 6.00886 -147346 -143547 -11242.1 -25737.9 18391.9 6193.22 -7.41561 
863 1 34.2771 6.21275 2.92174 6.0149 -120262 -171567 5474.05 -22729.9 29829.4 -439.607 -7.41641 
864 1 34.9421 4.96052 2.91168 6.01526 -147437 -144353 -3030.13 -11002.2 16717.9 6397.3 -7.41548 
865 1 34.1889 3.75932 2.90636 6.01877 -129460 -162431 294.02 -10197.9 18001.9 3955.19 -7.41548 
866 1 34.8527 2.50649 2.89931 6.02309 -146601 -145238 -232.228 -93.4758 10845.8 6460.4 -7.4152 
867 1 34.099 1.30555 2.89785 6.02331 -140021 -151813 -642.795 -2565.36 5830.75 7896.88 -7.41512 
868 1 34.7622 0.0523452 2.89488 6.02705 -145812 -145942 -252.495 4174.96 1092.77 6386.62 -7.41503 
1534 2 27.3335 9.51846 6.42522 5.99533 -222390 -67136.1 35630.3 30192.5 6967.59 44697.9 -7.42055 
1535 2 28.0807 8.31358 6.43609 5.99632 -195227 -93432.8 -28834 2779.44 23372.9 2732.41 -7.41582 
1536 2 27.4163 7.06047 6.43804 6.00302 -206126 -84708.9 35504.3 7673.81 14893.6 43881.5 -7.42009 
1537 2 28.1655 5.85664 6.44976 6.00378 -178869 -110143 -26467 -21588.6 13304.1 11257 -7.41538 
1538 2 27.5016 4.6035 6.45012 6.01182 -187248 -105110 27338.4 -12408.7 18225.8 40388.5 -7.4191 
1539 2 28.2526 3.40065 6.46089 6.00993 -164501 -125682 -17500.1 -39556.4 1509.58 18155 -7.4155 
1540 2 27.5889 2.14763 6.45874 6.0074 -166228 -126409 13788 -25412.8 16378.1 35183.5 -7.41785 
1541 2 28.3413 0.945538 6.46709 6.01117 -150998 -139850 -4879.8 -48103.3 -9979.29 23827.6 -7.41608 
1585 2 30.1622 9.61603 6.43834 5.99408 -194191 -96905.8 -4229.71 25879.3 34362.2 -1482.32 -7.41745 
1586 2 29.4976 8.36298 6.44321 6.00234 -211462 -79048.7 15310.2 28900 12187.2 39073.5 -7.4184 
1587 2 30.2463 7.15907 6.45527 6.00074 -179636 -111177 -11266.4 4352.39 25862.9 6504.4 -7.41626 
1588 2 29.5823 5.90586 6.45871 6.00951 -194090 -97423.6 16867.4 9809.23 15588.4 36820.5 -7.41795 
1589 2 30.3329 4.70297 6.47034 6.00891 -166724 -124216 -11242 -14545.1 14560 12831.1 -7.41562 
1590 2 29.6694 3.44971 6.47123 6.01659 -175167 -117240 12168.6 -5281.51 14548.3 32891.4 -7.41719 
1591 2 30.4216 2.24766 6.48075 6.01394 -155437 -135910 -6313.88 -26720.1 2375.31 17838.8 -7.41551 
1592 2 29.7582 0.994525 6.47828 6.01308 -154786 -137492 3810.66 -12812.1 9008.73 27734.9 -7.41637 
1636 2 31.5791 9.66647 6.44344 6.0067 -206930 -82848.8 -7752.61 43023.7 11460 29578.9 -7.41676 
1637 2 32.3276 8.46259 6.45513 6.00209 -171415 -120771 6730.99 24969.3 36146.9 2997.68 -7.41752 
1638 2 31.6631 7.20966 6.46191 6.00976 -193609 -97350.7 2272.78 26439.4 14918.5 28520.5 -7.41677 
1639 2 32.4135 6.00678 6.47367 6.00881 -162134 -129838 -1096.79 7243.22 25968.3 7732.02 -7.41622 
1640 2 31.7498 4.7536 6.47826 6.01492 -178445 -113514 5475 10753.7 14534.4 26053.6 -7.41641 
1641 2 32.5017 3.55157 6.48832 6.01524 -154625 -137173 -3030.05 -6792.55 13898.9 11279.7 -7.41548 
1642 2 31.8385 2.29827 6.48957 6.02134 -162088 -130065 3708.64 104.768 9925.08 22599.5 -7.41589 
1643 2 32.5916 1.09687 6.49642 6.01932 -148372 -143453 -1318.4 -14169.3 1544.52 13961.9 -7.41527 
1687 2 34.4102 9.76621 6.44935 6.00827 -153469 -139304 24253.5 39392.1 43246.5 2542.59 -7.41895 
1688 2 33.7446 8.51395 6.45897 6.01044 -183475 -106820 -13364.3 37186.9 15365.3 16831.5 -7.41582 
1689 2 34.4949 7.31113 6.47016 6.013 -149170 -143413 10016.9 24192.4 34818.5 4535.62 -7.41711 
1690 2 33.8304 6.0584 6.47834 6.0132 -173840 -117492 -3489.87 21935.6 15870.9 15533.1 -7.41577 
1691 2 34.5823 4.85641 6.48827 6.01839 -146656 -145485 2433.84 9650.88 23527 5639.66 -7.41587 
1692 2 33.9186 3.6033 6.49364 6.0188 -163002 -128852 294.101 9207.73 12426.5 13612.6 -7.41548 
1693 2 34.6717 2.40194 6.50069 6.02309 -145670 -146239 -232.306 -664.969 11017.9 6162.72 -7.4152 
1694 2 34.0085 1.14865 6.50214 6.02633 -151458 -140442 282.625 2139.07 4896.24 11116.6 -7.41518 
1733 2 35.8273 9.81774 6.45058 6.00789 -163399 -125707 -26891.7 42928.9 15643.8 3384.26 -7.41528 
1734 2 35.9119 7.36311 6.47143 6.01075 -160527 -130381 -11784.8 28448.9 17485.1 2828.67 -7.4155 
1735 2 35.9992 4.90863 6.48963 6.01649 -156232 -135337 -3586.66 14237.7 15689.3 2027.27 -7.41537 
1736 2 36.0886 2.45426 6.50215 6.02328 -151079 -140633 -642.533 3862.9 9754.01 1100.62 -7.41512 
44 1 1.41682 20.8424 3.00369 6.02319 -156809 -118539 -113720 432.017 -1137.22 -2136.9 -7.41159 
45 1 0.669452 19.6373 3.00577 6.01297 -150147 -135258 114873 -17290.8 10941.6 4182.24 -7.42769 
46 1 1.33842 18.3868 3.0014 6.02144 -164102 -113373 -105763 -30487.1 -2281.18 -4399.45 -7.41203 
47 1 0.591582 17.1816 3.00008 6.00757 -145885 -141425 99930.5 -41104.3 29639.6 551.64 -7.42636 
48 1 1.2606 15.9311 2.99313 6.01723 -170694 -110644 -85532.2 -49867.6 1250.71 -6333.59 -7.41304 
49 1 0.513516 14.7263 2.98807 6.00614 -141731 -148105 75619 -52433.4 42515.6 -2405.5 -7.4241 
50 1 1.18198 13.4755 2.97886 6.01254 -174105 -111150 -59907.5 -55474.4 7286.91 -7647.5 -7.41418 
51 1 0.433965 12.2713 2.97062 6.00779 -138341 -153250 49402.1 -51516.2 47148.6 -4046.65 -7.42151 
52 1 1.10141 11.02 2.96 6.00914 -173421 -114669 -35791.3 -49580.2 13024.6 -8117.77 -7.41506 
96 1 2.83402 20.7965 3.00342 6.00546 -180534 -105238 106847 -9942.47 2339.14 22678.7 -7.42698 
97 1 3.50153 19.545 3.00025 6.01202 -188816 -89888.8 -97493.1 -19321.1 -6775.94 -8032.3 -7.41254 
98 1 2.75566 18.3392 3.00193 6.0005 -180907 -106304 98641.5 -36290.7 21021.8 17712.4 -7.42632 
99 1 3.42344 17.0877 2.99675 6.01098 -198743 -83054.4 -82884.7 -44660.8 -5038.41 -13801 -7.41334 
100 1 2.67783 15.882 2.99424 5.99855 -178046 -111529 78788.6 -51334.5 36300.4 11547.9 -7.42459 