(written by TR)

1736	atoms
2	atom types
0	36.1791392	xlo xhi
0	62.6641072	ylo yhi
0	15.0	zlo zhi


Masses

1	12
2	12

Atoms

1 1 1 0 0.667 61.413 3.000 0 0 0
2 1 1 0 0.584 58.958 3.000 0 0 0
3 1 1 0 0.500 56.504 3.000 0 0 0
4 1 1 0 0.417 54.049 3.000 0 0 0
5 1 1 0 0.333 51.594 3.000 0 0 0
6 1 1 0 0.250 49.140 3.000 0 0 0
7 1 1 0 0.167 46.685 3.000 0 0 0
8 1 1 0 0.083 44.231 3.000 0 0 0
9 1 1 0 0.000 41.776 3.000 0 0 0
10 1 1 0 2.834 62.568 3.000 0 0 0
11 1 1 0 2.084 61.365 3.000 0 0 0
12 1 1 0 2.751 60.113 3.000 0 0 0
13 1 1 0 2.001 58.910 3.000 0 0 0
14 1 1 0 2.668 57.659 3.000 0 0 0
15 1 1 0 1.917 56.455 3.000 0 0 0
16 1 1 0 2.584 55.204 3.000 0 0 0
17 1 1 0 1.834 54.001 3.000 0 0 0
18 1 1 0 2.501 52.750 3.000 0 0 0
19 1 1 0 1.751 51.546 3.000 0 0 0
20 1 1 0 2.418 50.295 3.000 0 0 0
21 1 1 0 1.667 49.092 3.000 0 0 0
22 1 1 0 2.334 47.840 3.000 0 0 0
23 1 1 0 1.584 46.637 3.000 0 0 0
24 1 1 0 2.251 45.386 3.000 0 0 0
25 1 1 0 1.501 44.183 3.000 0 0 0
26 1 1 0 2.167 42.931 3.000 0 0 0
27 1 1 0 1.417 41.728 3.000 0 0 0
28 1 1 0 2.084 40.477 3.000 0 0 0
29 1 1 0 1.334 39.273 3.000 0 0 0
30 1 1 0 2.001 38.022 3.000 0 0 0
31 1 1 0 1.250 36.819 3.000 0 0 0
32 1 1 0 1.917 35.567 3.000 0 0 0
33 1 1 0 1.167 34.364 3.000 0 0 0
34 1 1 0 1.834 33.113 3.000 0 0 0
35 1 1 0 1.084 31.910 3.000 0 0 0
36 1 1 0 1.751 30.658 3.000 0 0 0
37 1 1 0 1.000 29.455 3.000 0 0 0
38 1 1 0 1.667 28.204 3.000 0 0 0
39 1 1 0 0.917 27.000 3.000 0 0 0
40 1 1 0 1.584 25.749 3.000 0 0 0
41 1 1 0 0.834 24.546 3.000 0 0 0
42 1 1 0 1.501 23.294 3.000 0 0 0
43 1 1 0 0.750 22.091 3.000 0 0 0
44 1 1 0 1.417 20.840 3.000 0 0 0
45 1 1 0 0.667 19.637 3.000 0 0 0
46 1 1 0 1.334 18.385 3.000 0 0 0
47 1 1 0 0.584 17.182 3.000 0 0 0
48 1 1 0 1.250 15.931 3.000 0 0 0
49 1 1 0 0.500 14.728 3.000 0 0 0
50 1 1 0 1.167 13.476 3.000 0 0 0
51 1 1 0 0.417 12.273 3.000 0 0 0
52 1 1 0 1.084 11.022 3.000 0 0 0
53 1 1 0 0.333 9.818 3.000 0 0 0
54 1 1 0 1.000 8.567 3.000 0 0 0
55 1 1 0 0.250 7.364 3.000 0 0 0
56 1 1 0 0.917 6.112 3.000 0 0 0
57 1 1 0 0.167 4.909 3.000 0 0 0
58 1 1 0 0.834 3.658 3.000 0 0 0
59 1 1 0 0.083 2.455 3.000 0 0 0
60 1 1 0 0.750 1.203 3.000 0 0 0
61 1 1 0 0.000 0.000 3.000 0 0 0
62 1 1 0 4.251 62.520 3.000 0 0 0
63 1 1 0 4.918 61.268 3.000 0 0 0
64 1 1 0 4.168 60.065 3.000 0 0 0
65 1 1 0 4.835 58.814 3.000 0 0 0
66 1 1 0 4.085 57.611 3.000 0 0 0
67 1 1 0 4.752 56.359 3.000 0 0 0
68 1 1 0 4.001 55.156 3.000 0 0 0
69 1 1 0 4.668 53.905 3.000 0 0 0
70 1 1 0 3.918 52.701 3.000 0 0 0
71 1 1 0 4.585 51.450 3.000 0 0 0
72 1 1 0 3.835 50.247 3.000 0 0 0
73 1 1 0 4.502 48.995 3.000 0 0 0
74 1 1 0 3.751 47.792 3.000 0 0 0
75 1 1 0 4.418 46.541 3.000 0 0 0
76 1 1 0 3.668 45.338 3.000 0 0 0
77 1 1 0 4.335 44.086 3.000 0 0 0
78 1 1 0 3.585 42.883 3.000 0 0 0
79 1 1 0 4.251 41.632 3.000 0 0 0
80 1 1 0 3.501 40.428 3.000 0 0 0
81 1 1 0 4.168 39.177 3.000 0 0 0
82 1 1 0 3.418 37.974 3.000 0 0 0
83 1 1 0 4.085 36.723 3.000 0 0 0
84 1 1 0 3.334 35.519 3.000 0 0 0
85 1 1 0 4.001 34.268 3.000 0 0 0
86 1 1 0 3.251 33.065 3.000 0 0 0
87 1 1 0 3.918 31.813 3.000 0 0 0
88 1 1 0 3.168 30.610 3.000 0 0 0
89 1 1 0 3.835 29.359 3.000 0 0 0
90 1 1 0 3.084 28.156 3.000 0 0 0
91 1 1 0 3.751 26.904 3.000 0 0 0
92 1 1 0 3.001 25.701 3.000 0 0 0
93 1 1 0 3.668 24.450 3.000 0 0 0
94 1 1 0 2.918 23.246 3.000 0 0 0
95 1 1 0 3.585 21.995 3.000 0 0 0
96 1 1 0 2.834 20.792 3.000 0 0 0
97 1 1 0 3.501 19.540 3.000 0 0 0
98 1 1 0 2.751 18.337 3.000 0 0 0
99 1 1 0 3.418 17.086 3.000 0 0 0
100 1 1 0 2.668 15.883 3.000 0 0 0
101 1 1 0 3.334 14.631 3.000 0 0 0
102 1 1 0 2.584 13.428 3.000 0 0 0
103 1 1 0 3.251 12.177 3.000 0 0 0
104 1 1 0 2.501 10.973 3.000 0 0 0
105 1 1 0 3.168 9.722 3.000 0 0 0
106 1 1 0 2.418 8.519 3.000 0 0 0
107 1 1 0 3.084 7.267 3.000 0 0 0
108 1 1 0 2.334 6.064 3.000 0 0 0
109 1 1 0 3.001 4.813 3.000 0 0 0
110 1 1 0 2.251 3.610 3.000 0 0 0
111 1 1 0 2.918 2.358 3.000 0 0 0
112 1 1 0 2.167 1.155 3.000 0 0 0
113 1 1 0 7.086 62.423 3.000 0 0 0
114 1 1 0 6.336 61.220 3.000 0 0 0
115 1 1 0 7.002 59.969 3.000 0 0 0
116 1 1 0 6.252 58.766 3.000 0 0 0
117 1 1 0 6.919 57.514 3.000 0 0 0
118 1 1 0 6.169 56.311 3.000 0 0 0
119 1 1 0 6.836 55.060 3.000 0 0 0
120 1 1 0 6.085 53.856 3.000 0 0 0
121 1 1 0 6.752 52.605 3.000 0 0 0
122 1 1 0 6.002 51.402 3.000 0 0 0
123 1 1 0 6.669 50.151 3.000 0 0 0
124 1 1 0 5.919 48.947 3.000 0 0 0
125 1 1 0 6.586 47.696 3.000 0 0 0
126 1 1 0 5.835 46.493 3.000 0 0 0
127 1 1 0 6.502 45.241 3.000 0 0 0
128 1 1 0 5.752 44.038 3.000 0 0 0
129 1 1 0 6.419 42.787 3.000 0 0 0
130 1 1 0 5.669 41.584 3.000 0 0 0
131 1 1 0 6.336 40.332 3.000 0 0 0
132 1 1 0 5.585 39.129 3.000 0 0 0
133 1 1 0 6.252 37.878 3.000 0 0 0
134 1 1 0 5.502 36.674 3.000 0 0 0
135 1 1 0 6.169 35.423 3.000 0 0 0
136 1 1 0 5.419 34.220 3.000 0 0 0
137 1 1 0 6.085 32.968 3.000 0 0 0
138 1 1 0 5.335 31.765 3.000 0 0 0
139 1 1 0 6.002 30.514 3.000 0 0 0
140 1 1 0 5.252 29.311 3.000 0 0 0
141 1 1 0 5.919 28.059 3.000 0 0 0
142 1 1 0 5.168 26.856 3.000 0 0 0
143 1 1 0 5.835 25.605 3.000 0 0 0
144 1 1 0 5.085 24.401 3.000 0 0 0
145 1 1 0 5.752 23.150 3.000 0 0 0
146 1 1 0 5.002 21.947 3.000 0 0 0
147 1 1 0 5.669 20.696 3.000 0 0 0
148 1 1 0 4.918 19.492 3.000 0 0 0
149 1 1 0 5.585 18.241 3.000 0 0 0
150 1 1 0 4.835 17.038 3.000 0 0 0
151 1 1 0 5.502 15.786 3.000 0 0 0
152 1 1 0 4.752 14.583 3.000 0 0 0
153 1 1 0 5.419 13.332 3.000 0 0 0
154 1 1 0 4.668 12.129 3.000 0 0 0
155 1 1 0 5.335 10.877 3.000 0 0 0
156 1 1 0 4.585 9.674 3.000 0 0 0
157 1 1 0 5.252 8.423 3.000 0 0 0
158 1 1 0 4.502 7.219 3.000 0 0 0
159 1 1 0 5.168 5.968 3.000 0 0 0
160 1 1 0 4.418 4.765 3.000 0 0 0
161 1 1 0 5.085 3.513 3.000 0 0 0
162 1 1 0 4.335 2.310 3.000 0 0 0
163 1 1 0 5.002 1.059 3.000 0 0 0
164 1 1 0 8.503 62.375 3.000 0 0 0
165 1 1 0 9.170 61.124 3.000 0 0 0
166 1 1 0 8.420 59.921 3.000 0 0 0
167 1 1 0 9.086 58.669 3.000 0 0 0
168 1 1 0 8.336 57.466 3.000 0 0 0
169 1 1 0 9.003 56.215 3.000 0 0 0
170 1 1 0 8.253 55.012 3.000 0 0 0
171 1 1 0 8.920 53.760 3.000 0 0 0
172 1 1 0 8.169 52.557 3.000 0 0 0
173 1 1 0 8.836 51.306 3.000 0 0 0
174 1 1 0 8.086 50.102 3.000 0 0 0
175 1 1 0 8.753 48.851 3.000 0 0 0
176 1 1 0 8.003 47.648 3.000 0 0 0
177 1 1 0 8.670 46.396 3.000 0 0 0
178 1 1 0 7.919 45.193 3.000 0 0 0
179 1 1 0 8.586 43.942 3.000 0 0 0
180 1 1 0 7.836 42.739 3.000 0 0 0
181 1 1 0 8.503 41.487 3.000 0 0 0
182 1 1 0 7.753 40.284 3.000 0 0 0
183 1 1 0 8.420 39.033 3.000 0 0 0
184 1 1 0 7.669 37.829 3.000 0 0 0
185 1 1 0 8.336 36.578 3.000 0 0 0
186 1 1 0 7.586 35.375 3.000 0 0 0
187 1 1 0 8.253 34.124 3.000 0 0 0
188 1 1 0 7.503 32.920 3.000 0 0 0
189 1 1 0 8.169 31.669 3.000 0 0 0
190 1 1 0 7.419 30.466 3.000 0 0 0
191 1 1 0 8.086 29.214 3.000 0 0 0
192 1 1 0 7.336 28.011 3.000 0 0 0
193 1 1 0 8.003 26.760 3.000 0 0 0
194 1 1 0 7.253 25.557 3.000 0 0 0
195 1 1 0 7.919 24.305 3.000 0 0 0
196 1 1 0 7.169 23.102 3.000 0 0 0
197 1 1 0 7.836 21.851 3.000 0 0 0
198 1 1 0 7.086 20.647 3.000 0 0 0
199 1 1 0 7.753 19.396 3.000 0 0 0
200 1 1 0 7.002 18.193 3.000 0 0 0
201 1 1 0 7.669 16.941 3.000 0 0 0
202 1 1 0 6.919 15.738 3.000 0 0 0
203 1 1 0 7.586 14.487 3.000 0 0 0
204 1 1 0 6.836 13.284 3.000 0 0 0
205 1 1 0 7.503 12.032 3.000 0 0 0
206 1 1 0 6.752 10.829 3.000 0 0 0
207 1 1 0 7.419 9.578 3.000 0 0 0
208 1 1 0 6.669 8.374 3.000 0 0 0
209 1 1 0 7.336 7.123 3.000 0 0 0
210 1 1 0 6.586 5.920 3.000 0 0 0
211 1 1 0 7.253 4.669 3.000 0 0 0
212 1 1 0 6.502 3.465 3.000 0 0 0
213 1 1 0 7.169 2.214 3.000 0 0 0
214 1 1 0 6.419 1.011 3.000 0 0 0
215 1 1 0 11.337 62.279 3.000 0 0 0
216 1 1 0 10.587 61.076 3.000 0 0 0
217 1 1 0 11.254 59.824 3.000 0 0 0
218 1 1 0 10.504 58.621 3.000 0 0 0
219 1 1 0 11.171 57.370 3.000 0 0 0
220 1 1 0 10.420 56.167 3.000 0 0 0
221 1 1 0 11.087 54.915 3.000 0 0 0
222 1 1 0 10.337 53.712 3.000 0 0 0
223 1 1 0 11.004 52.461 3.000 0 0 0
224 1 1 0 10.254 51.258 3.000 0 0 0
225 1 1 0 10.920 50.006 3.000 0 0 0
226 1 1 0 10.170 48.803 3.000 0 0 0
227 1 1 0 10.837 47.552 3.000 0 0 0
228 1 1 0 10.087 46.348 3.000 0 0 0
229 1 1 0 10.754 45.097 3.000 0 0 0
230 1 1 0 10.003 43.894 3.000 0 0 0
231 1 1 0 10.670 42.642 3.000 0 0 0
232 1 1 0 9.920 41.439 3.000 0 0 0
233 1 1 0 10.587 40.188 3.000 0 0 0
234 1 1 0 9.837 38.985 3.000 0 0 0
235 1 1 0 10.504 37.733 3.000 0 0 0
236 1 1 0 9.753 36.530 3.000 0 0 0
237 1 1 0 10.420 35.279 3.000 0 0 0
238 1 1 0 9.670 34.075 3.000 0 0 0
239 1 1 0 10.337 32.824 3.000 0 0 0
240 1 1 0 9.587 31.621 3.000 0 0 0
241 1 1 0 10.254 30.369 3.000 0 0 0
242 1 1 0 9.503 29.166 3.000 0 0 0
243 1 1 0 10.170 27.915 3.000 0 0 0
244 1 1 0 9.420 26.712 3.000 0 0 0
245 1 1 0 10.087 25.460 3.000 0 0 0
246 1 1 0 9.337 24.257 3.000 0 0 0
247 1 1 0 10.003 23.006 3.000 0 0 0
248 1 1 0 9.253 21.802 3.000 0 0 0
249 1 1 0 9.920 20.551 3.000 0 0 0
250 1 1 0 9.170 19.348 3.000 0 0 0
251 1 1 0 9.837 18.097 3.000 0 0 0
252 1 1 0 9.086 16.893 3.000 0 0 0
253 1 1 0 9.753 15.642 3.000 0 0 0
254 1 1 0 9.003 14.439 3.000 0 0 0
255 1 1 0 9.670 13.187 3.000 0 0 0
256 1 1 0 8.920 11.984 3.000 0 0 0
257 1 1 0 9.587 10.733 3.000 0 0 0
258 1 1 0 8.836 9.530 3.000 0 0 0
259 1 1 0 9.503 8.278 3.000 0 0 0
260 1 1 0 8.753 7.075 3.000 0 0 0
261 1 1 0 9.420 5.824 3.000 0 0 0
262 1 1 0 8.670 4.620 3.000 0 0 0
263 1 1 0 9.337 3.369 3.000 0 0 0
264 1 1 0 8.586 2.166 3.000 0 0 0
265 1 1 0 9.253 0.914 3.000 0 0 0
266 1 1 0 12.754 62.231 3.000 0 0 0
267 1 1 0 13.421 60.980 3.000 0 0 0
268 1 1 0 12.671 59.776 3.000 0 0 0
269 1 1 0 13.338 58.525 3.000 0 0 0
270 1 1 0 12.588 57.322 3.000 0 0 0
271 1 1 0 13.255 56.070 3.000 0 0 0
272 1 1 0 12.504 54.867 3.000 0 0 0
273 1 1 0 13.171 53.616 3.000 0 0 0
274 1 1 0 12.421 52.413 3.000 0 0 0
275 1 1 0 13.088 51.161 3.000 0 0 0
276 1 1 0 12.338 49.958 3.000 0 0 0
277 1 1 0 13.004 48.707 3.000 0 0 0
278 1 1 0 12.254 47.503 3.000 0 0 0
279 1 1 0 12.921 46.252 3.000 0 0 0
280 1 1 0 12.171 45.049 3.000 0 0 0
281 1 1 0 12.838 43.797 3.000 0 0 0
282 1 1 0 12.088 42.594 3.000 0 0 0
283 1 1 0 12.754 41.343 3.000 0 0 0
284 1 1 0 12.004 40.140 3.000 0 0 0
285 1 1 0 12.671 38.888 3.000 0 0 0
286 1 1 0 11.921 37.685 3.000 0 0 0
287 1 1 0 12.588 36.434 3.000 0 0 0
288 1 1 0 11.837 35.231 3.000 0 0 0
289 1 1 0 12.504 33.979 3.000 0 0 0
290 1 1 0 11.754 32.776 3.000 0 0 0
291 1 1 0 12.421 31.525 3.000 0 0 0
292 1 1 0 11.671 30.321 3.000 0 0 0
293 1 1 0 12.338 29.070 3.000 0 0 0
294 1 1 0 11.587 27.867 3.000 0 0 0
295 1 1 0 12.254 26.615 3.000 0 0 0
296 1 1 0 11.504 25.412 3.000 0 0 0
297 1 1 0 12.171 24.161 3.000 0 0 0
298 1 1 0 11.421 22.958 3.000 0 0 0
299 1 1 0 12.088 21.706 3.000 0 0 0
300 1 1 0 11.337 20.503 3.000 0 0 0
301 1 1 0 12.004 19.252 3.000 0 0 0
302 1 1 0 11.254 18.048 3.000 0 0 0
303 1 1 0 11.921 16.797 3.000 0 0 0
304 1 1 0 11.171 15.594 3.000 0 0 0
305 1 1 0 11.837 14.342 3.000 0 0 0
306 1 1 0 11.087 13.139 3.000 0 0 0
307 1 1 0 11.754 11.888 3.000 0 0 0
308 1 1 0 11.004 10.685 3.000 0 0 0
309 1 1 0 11.671 9.433 3.000 0 0 0
310 1 1 0 10.920 8.230 3.000 0 0 0
311 1 1 0 11.587 6.979 3.000 0 0 0
312 1 1 0 10.837 5.775 3.000 0 0 0
313 1 1 0 11.504 4.524 3.000 0 0 0
314 1 1 0 10.754 3.321 3.000 0 0 0
315 1 1 0 11.421 2.070 3.000 0 0 0
316 1 1 0 10.670 0.866 3.000 0 0 0
317 1 1 0 15.589 62.135 3.000 0 0 0
318 1 1 0 14.838 60.931 3.000 0 0 0
319 1 1 0 15.505 59.680 3.000 0 0 0
320 1 1 0 14.755 58.477 3.000 0 0 0
321 1 1 0 15.422 57.226 3.000 0 0 0
322 1 1 0 14.672 56.022 3.000 0 0 0
323 1 1 0 15.339 54.771 3.000 0 0 0
324 1 1 0 14.588 53.568 3.000 0 0 0
325 1 1 0 15.255 52.316 3.000 0 0 0
326 1 1 0 14.505 51.113 3.000 0 0 0
327 1 1 0 15.172 49.862 3.000 0 0 0
328 1 1 0 14.422 48.659 3.000 0 0 0
329 1 1 0 15.089 47.407 3.000 0 0 0
330 1 1 0 14.338 46.204 3.000 0 0 0
331 1 1 0 15.005 44.953 3.000 0 0 0
332 1 1 0 14.255 43.749 3.000 0 0 0
333 1 1 0 14.922 42.498 3.000 0 0 0
334 1 1 0 14.172 41.295 3.000 0 0 0
335 1 1 0 14.838 40.043 3.000 0 0 0
336 1 1 0 14.088 38.840 3.000 0 0 0
337 1 1 0 14.755 37.589 3.000 0 0 0
338 1 1 0 14.005 36.386 3.000 0 0 0
339 1 1 0 14.672 35.134 3.000 0 0 0
340 1 1 0 13.921 33.931 3.000 0 0 0
341 1 1 0 14.588 32.680 3.000 0 0 0
342 1 1 0 13.838 31.476 3.000 0 0 0
343 1 1 0 14.505 30.225 3.000 0 0 0
344 1 1 0 13.755 29.022 3.000 0 0 0
345 1 1 0 14.422 27.770 3.000 0 0 0
346 1 1 0 13.671 26.567 3.000 0 0 0
347 1 1 0 14.338 25.316 3.000 0 0 0
348 1 1 0 13.588 24.113 3.000 0 0 0
349 1 1 0 14.255 22.861 3.000 0 0 0
350 1 1 0 13.505 21.658 3.000 0 0 0
351 1 1 0 14.172 20.407 3.000 0 0 0
352 1 1 0 13.421 19.204 3.000 0 0 0
353 1 1 0 14.088 17.952 3.000 0 0 0
354 1 1 0 13.338 16.749 3.000 0 0 0
355 1 1 0 14.005 15.498 3.000 0 0 0
356 1 1 0 13.255 14.294 3.000 0 0 0
357 1 1 0 13.921 13.043 3.000 0 0 0
358 1 1 0 13.171 11.840 3.000 0 0 0
359 1 1 0 13.838 10.588 3.000 0 0 0
360 1 1 0 13.088 9.385 3.000 0 0 0
361 1 1 0 13.755 8.134 3.000 0 0 0
362 1 1 0 13.004 6.931 3.000 0 0 0
363 1 1 0 13.671 5.679 3.000 0 0 0
364 1 1 0 12.921 4.476 3.000 0 0 0
365 1 1 0 13.588 3.225 3.000 0 0 0
366 1 1 0 12.838 2.021 3.000 0 0 0
367 1 1 0 13.505 0.770 3.000 0 0 0
368 1 1 0 17.006 62.087 3.000 0 0 0
369 1 1 0 17.673 60.835 3.000 0 0 0
370 1 1 0 16.923 59.632 3.000 0 0 0
371 1 1 0 17.589 58.381 3.000 0 0 0
372 1 1 0 16.839 57.177 3.000 0 0 0
373 1 1 0 17.506 55.926 3.000 0 0 0
374 1 1 0 16.756 54.723 3.000 0 0 0
375 1 1 0 17.423 53.471 3.000 0 0 0
376 1 1 0 16.672 52.268 3.000 0 0 0
377 1 1 0 17.339 51.017 3.000 0 0 0
378 1 1 0 16.589 49.814 3.000 0 0 0
379 1 1 0 17.256 48.562 3.000 0 0 0
380 1 1 0 16.506 47.359 3.000 0 0 0
381 1 1 0 17.173 46.108 3.000 0 0 0
382 1 1 0 16.422 44.904 3.000 0 0 0
383 1 1 0 17.089 43.653 3.000 0 0 0
384 1 1 0 16.339 42.450 3.000 0 0 0
385 1 1 0 17.006 41.199 3.000 0 0 0
386 1 1 0 16.256 39.995 3.000 0 0 0
387 1 1 0 16.923 38.744 3.000 0 0 0
388 1 1 0 16.172 37.541 3.000 0 0 0
389 1 1 0 16.839 36.289 3.000 0 0 0
390 1 1 0 16.089 35.086 3.000 0 0 0
391 1 1 0 16.756 33.835 3.000 0 0 0
392 1 1 0 16.006 32.632 3.000 0 0 0
393 1 1 0 16.672 31.380 3.000 0 0 0
394 1 1 0 15.922 30.177 3.000 0 0 0
395 1 1 0 16.589 28.926 3.000 0 0 0
396 1 1 0 15.839 27.722 3.000 0 0 0
397 1 1 0 16.506 26.471 3.000 0 0 0
398 1 1 0 15.755 25.268 3.000 0 0 0
399 1 1 0 16.422 24.016 3.000 0 0 0
400 1 1 0 15.672 22.813 3.000 0 0 0
401 1 1 0 16.339 21.562 3.000 0 0 0
402 1 1 0 15.589 20.359 3.000 0 0 0
403 1 1 0 16.256 19.107 3.000 0 0 0
404 1 1 0 15.505 17.904 3.000 0 0 0
405 1 1 0 16.172 16.653 3.000 0 0 0
406 1 1 0 15.422 15.449 3.000 0 0 0
407 1 1 0 16.089 14.198 3.000 0 0 0
408 1 1 0 15.339 12.995 3.000 0 0 0
409 1 1 0 16.006 11.744 3.000 0 0 0
410 1 1 0 15.255 10.540 3.000 0 0 0
411 1 1 0 15.922 9.289 3.000 0 0 0
412 1 1 0 15.172 8.086 3.000 0 0 0
413 1 1 0 15.839 6.834 3.000 0 0 0
414 1 1 0 15.089 5.631 3.000 0 0 0
415 1 1 0 15.755 4.380 3.000 0 0 0
416 1 1 0 15.005 3.177 3.000 0 0 0
417 1 1 0 15.672 1.925 3.000 0 0 0
418 1 1 0 14.922 0.722 3.000 0 0 0
419 1 1 0 19.840 61.990 3.000 0 0 0
420 1 1 0 19.090 60.787 3.000 0 0 0
421 1 1 0 19.757 59.536 3.000 0 0 0
422 1 1 0 19.007 58.332 3.000 0 0 0
423 1 1 0 19.673 57.081 3.000 0 0 0
424 1 1 0 18.923 55.878 3.000 0 0 0
425 1 1 0 19.590 54.627 3.000 0 0 0
426 1 1 0 18.840 53.423 3.000 0 0 0
427 1 1 0 19.507 52.172 3.000 0 0 0
428 1 1 0 18.756 50.969 3.000 0 0 0
429 1 1 0 19.423 49.717 3.000 0 0 0
430 1 1 0 18.673 48.514 3.000 0 0 0
431 1 1 0 19.340 47.263 3.000 0 0 0
432 1 1 0 18.590 46.060 3.000 0 0 0
433 1 1 0 19.257 44.808 3.000 0 0 0
434 1 1 0 18.506 43.605 3.000 0 0 0
435 1 1 0 19.173 42.354 3.000 0 0 0
436 1 1 0 18.423 41.150 3.000 0 0 0
437 1 1 0 19.090 39.899 3.000 0 0 0
438 1 1 0 18.340 38.696 3.000 0 0 0
439 1 1 0 19.007 37.444 3.000 0 0 0
440 1 1 0 18.256 36.241 3.000 0 0 0
441 1 1 0 18.923 34.990 3.000 0 0 0
442 1 1 0 18.173 33.787 3.000 0 0 0
443 1 1 0 18.840 32.535 3.000 0 0 0
444 1 1 0 18.090 31.332 3.000 0 0 0
445 1 1 0 18.756 30.081 3.000 0 0 0
446 1 1 0 18.006 28.877 3.000 0 0 0
447 1 1 0 18.673 27.626 3.000 0 0 0
448 1 1 0 17.923 26.423 3.000 0 0 0
449 1 1 0 18.590 25.172 3.000 0 0 0
450 1 1 0 17.839 23.968 3.000 0 0 0
451 1 1 0 18.506 22.717 3.000 0 0 0
452 1 1 0 17.756 21.514 3.000 0 0 0
453 1 1 0 18.423 20.262 3.000 0 0 0
454 1 1 0 17.673 19.059 3.000 0 0 0
455 1 1 0 18.340 17.808 3.000 0 0 0
456 1 1 0 17.589 16.605 3.000 0 0 0
457 1 1 0 18.256 15.353 3.000 0 0 0
458 1 1 0 17.506 14.150 3.000 0 0 0
459 1 1 0 18.173 12.899 3.000 0 0 0
460 1 1 0 17.423 11.695 3.000 0 0 0
461 1 1 0 18.090 10.444 3.000 0 0 0
462 1 1 0 17.339 9.241 3.000 0 0 0
463 1 1 0 18.006 7.989 3.000 0 0 0
464 1 1 0 17.256 6.786 3.000 0 0 0
465 1 1 0 17.923 5.535 3.000 0 0 0
466 1 1 0 17.173 4.332 3.000 0 0 0
467 1 1 0 17.839 3.080 3.000 0 0 0
468 1 1 0 17.089 1.877 3.000 0 0 0
469 1 1 0 17.756 0.626 3.000 0 0 0
470 1 1 0 21.257 61.942 3.000 0 0 0
471 1 1 0 21.924 60.691 3.000 0 0 0
472 1 1 0 21.174 59.488 3.000 0 0 0
473 1 1 0 21.841 58.236 3.000 0 0 0
474 1 1 0 21.091 57.033 3.000 0 0 0
475 1 1 0 21.758 55.782 3.000 0 0 0
476 1 1 0 21.007 54.578 3.000 0 0 0
477 1 1 0 21.674 53.327 3.000 0 0 0
478 1 1 0 20.924 52.124 3.000 0 0 0
479 1 1 0 21.591 50.872 3.000 0 0 0
480 1 1 0 20.841 49.669 3.000 0 0 0
481 1 1 0 21.507 48.418 3.000 0 0 0
482 1 1 0 20.757 47.215 3.000 0 0 0
483 1 1 0 21.424 45.963 3.000 0 0 0
484 1 1 0 20.674 44.760 3.000 0 0 0
485 1 1 0 21.341 43.509 3.000 0 0 0
486 1 1 0 20.590 42.305 3.000 0 0 0
487 1 1 0 21.257 41.054 3.000 0 0 0
488 1 1 0 20.507 39.851 3.000 0 0 0
489 1 1 0 21.174 38.600 3.000 0 0 0
490 1 1 0 20.424 37.396 3.000 0 0 0
491 1 1 0 21.091 36.145 3.000 0 0 0
492 1 1 0 20.340 34.942 3.000 0 0 0
493 1 1 0 21.007 33.690 3.000 0 0 0
494 1 1 0 20.257 32.487 3.000 0 0 0
495 1 1 0 20.924 31.236 3.000 0 0 0
496 1 1 0 20.174 30.033 3.000 0 0 0
497 1 1 0 20.841 28.781 3.000 0 0 0
498 1 1 0 20.090 27.578 3.000 0 0 0
499 1 1 0 20.757 26.327 3.000 0 0 0
500 1 1 0 20.007 25.123 3.000 0 0 0
501 1 1 0 20.674 23.872 3.000 0 0 0
502 1 1 0 19.924 22.669 3.000 0 0 0
503 1 1 0 20.590 21.417 3.000 0 0 0
504 1 1 0 19.840 20.214 3.000 0 0 0
505 1 1 0 20.507 18.963 3.000 0 0 0
506 1 1 0 19.757 17.760 3.000 0 0 0
507 1 1 0 20.424 16.508 3.000 0 0 0
508 1 1 0 19.673 15.305 3.000 0 0 0
509 1 1 0 20.340 14.054 3.000 0 0 0
510 1 1 0 19.590 12.850 3.000 0 0 0
511 1 1 0 20.257 11.599 3.000 0 0 0
512 1 1 0 19.507 10.396 3.000 0 0 0
513 1 1 0 20.174 9.145 3.000 0 0 0
514 1 1 0 19.423 7.941 3.000 0 0 0
515 1 1 0 20.090 6.690 3.000 0 0 0
516 1 1 0 19.340 5.487 3.000 0 0 0
517 1 1 0 20.007 4.235 3.000 0 0 0
518 1 1 0 19.257 3.032 3.000 0 0 0
519 1 1 0 19.924 1.781 3.000 0 0 0
520 1 1 0 19.173 0.578 3.000 0 0 0
521 1 1 0 24.092 61.846 3.000 0 0 0
522 1 1 0 23.341 60.643 3.000 0 0 0
523 1 1 0 24.008 59.391 3.000 0 0 0
524 1 1 0 23.258 58.188 3.000 0 0 0
525 1 1 0 23.925 56.937 3.000 0 0 0
526 1 1 0 23.175 55.734 3.000 0 0 0
527 1 1 0 23.842 54.482 3.000 0 0 0
528 1 1 0 23.091 53.279 3.000 0 0 0
529 1 1 0 23.758 52.028 3.000 0 0 0
530 1 1 0 23.008 50.824 3.000 0 0 0
531 1 1 0 23.675 49.573 3.000 0 0 0
532 1 1 0 22.925 48.370 3.000 0 0 0
533 1 1 0 23.591 47.118 3.000 0 0 0
534 1 1 0 22.841 45.915 3.000 0 0 0
535 1 1 0 23.508 44.664 3.000 0 0 0
536 1 1 0 22.758 43.461 3.000 0 0 0
537 1 1 0 23.425 42.209 3.000 0 0 0
538 1 1 0 22.674 41.006 3.000 0 0 0
539 1 1 0 23.341 39.755 3.000 0 0 0
540 1 1 0 22.591 38.551 3.000 0 0 0
541 1 1 0 23.258 37.300 3.000 0 0 0
542 1 1 0 22.508 36.097 3.000 0 0 0
543 1 1 0 23.175 34.845 3.000 0 0 0
544 1 1 0 22.424 33.642 3.000 0 0 0
545 1 1 0 23.091 32.391 3.000 0 0 0
546 1 1 0 22.341 31.188 3.000 0 0 0
547 1 1 0 23.008 29.936 3.000 0 0 0
548 1 1 0 22.258 28.733 3.000 0 0 0
549 1 1 0 22.925 27.482 3.000 0 0 0
550 1 1 0 22.174 26.278 3.000 0 0 0
551 1 1 0 22.841 25.027 3.000 0 0 0
552 1 1 0 22.091 23.824 3.000 0 0 0
553 1 1 0 22.758 22.573 3.000 0 0 0
554 1 1 0 22.008 21.369 3.000 0 0 0
555 1 1 0 22.674 20.118 3.000 0 0 0
556 1 1 0 21.924 18.915 3.000 0 0 0
557 1 1 0 22.591 17.663 3.000 0 0 0
558 1 1 0 21.841 16.460 3.000 0 0 0
559 1 1 0 22.508 15.209 3.000 0 0 0
560 1 1 0 21.758 14.006 3.000 0 0 0
561 1 1 0 22.424 12.754 3.000 0 0 0
562 1 1 0 21.674 11.551 3.000 0 0 0
563 1 1 0 22.341 10.300 3.000 0 0 0
564 1 1 0 21.591 9.096 3.000 0 0 0
565 1 1 0 22.258 7.845 3.000 0 0 0
566 1 1 0 21.507 6.642 3.000 0 0 0
567 1 1 0 22.174 5.390 3.000 0 0 0
568 1 1 0 21.424 4.187 3.000 0 0 0
569 1 1 0 22.091 2.936 3.000 0 0 0
570 1 1 0 21.341 1.733 3.000 0 0 0
571 1 1 0 22.008 0.481 3.000 0 0 0
572 1 1 0 25.509 61.798 3.000 0 0 0
573 1 1 0 26.176 60.546 3.000 0 0 0
574 1 1 0 25.425 59.343 3.000 0 0 0
575 1 1 0 26.092 58.092 3.000 0 0 0
576 1 1 0 25.342 56.889 3.000 0 0 0
577 1 1 0 26.009 55.637 3.000 0 0 0
578 1 1 0 25.259 54.434 3.000 0 0 0
579 1 1 0 25.926 53.183 3.000 0 0 0
580 1 1 0 25.175 51.979 3.000 0 0 0
581 1 1 0 25.842 50.728 3.000 0 0 0
582 1 1 0 25.092 49.525 3.000 0 0 0
583 1 1 0 25.759 48.274 3.000 0 0 0
584 1 1 0 25.009 47.070 3.000 0 0 0
585 1 1 0 25.676 45.819 3.000 0 0 0
586 1 1 0 24.925 44.616 3.000 0 0 0
587 1 1 0 25.592 43.364 3.000 0 0 0
588 1 1 0 24.842 42.161 3.000 0 0 0
589 1 1 0 25.509 40.910 3.000 0 0 0
590 1 1 0 24.759 39.707 3.000 0 0 0
591 1 1 0 25.425 38.455 3.000 0 0 0
592 1 1 0 24.675 37.252 3.000 0 0 0
593 1 1 0 25.342 36.001 3.000 0 0 0
594 1 1 0 24.592 34.797 3.000 0 0 0
595 1 1 0 25.259 33.546 3.000 0 0 0
596 1 1 0 24.508 32.343 3.000 0 0 0
597 1 1 0 25.175 31.091 3.000 0 0 0
598 1 1 0 24.425 29.888 3.000 0 0 0
599 1 1 0 25.092 28.637 3.000 0 0 0
600 1 1 0 24.342 27.434 3.000 0 0 0
601 1 1 0 25.009 26.182 3.000 0 0 0
602 1 1 0 24.258 24.979 3.000 0 0 0
603 1 1 0 24.925 23.728 3.000 0 0 0
604 1 1 0 24.175 22.524 3.000 0 0 0
605 1 1 0 24.842 21.273 3.000 0 0 0
606 1 1 0 24.092 20.070 3.000 0 0 0
607 1 1 0 24.759 18.818 3.000 0 0 0
608 1 1 0 24.008 17.615 3.000 0 0 0
609 1 1 0 24.675 16.364 3.000 0 0 0
610 1 1 0 23.925 15.161 3.000 0 0 0
611 1 1 0 24.592 13.909 3.000 0 0 0
612 1 1 0 23.842 12.706 3.000 0 0 0
613 1 1 0 24.508 11.455 3.000 0 0 0
614 1 1 0 23.758 10.252 3.000 0 0 0
615 1 1 0 24.425 9.000 3.000 0 0 0
616 1 1 0 23.675 7.797 3.000 0 0 0
617 1 1 0 24.342 6.546 3.000 0 0 0
618 1 1 0 23.591 5.342 3.000 0 0 0
619 1 1 0 24.258 4.091 3.000 0 0 0
620 1 1 0 23.508 2.888 3.000 0 0 0
621 1 1 0 24.175 1.636 3.000 0 0 0
622 1 1 0 23.425 0.433 3.000 0 0 0
623 1 1 0 28.343 61.702 3.000 0 0 0
624 1 1 0 27.593 60.498 3.000 0 0 0
625 1 1 0 28.260 59.247 3.000 0 0 0
626 1 1 0 27.509 58.044 3.000 0 0 0
627 1 1 0 28.176 56.792 3.000 0 0 0
628 1 1 0 27.426 55.589 3.000 0 0 0
629 1 1 0 28.093 54.338 3.000 0 0 0
630 1 1 0 27.343 53.135 3.000 0 0 0
631 1 1 0 28.010 51.883 3.000 0 0 0
632 1 1 0 27.259 50.680 3.000 0 0 0
633 1 1 0 27.926 49.429 3.000 0 0 0
634 1 1 0 27.176 48.225 3.000 0 0 0
635 1 1 0 27.843 46.974 3.000 0 0 0
636 1 1 0 27.093 45.771 3.000 0 0 0
637 1 1 0 27.760 44.519 3.000 0 0 0
638 1 1 0 27.009 43.316 3.000 0 0 0
639 1 1 0 27.676 42.065 3.000 0 0 0
640 1 1 0 26.926 40.862 3.000 0 0 0
641 1 1 0 27.593 39.610 3.000 0 0 0
642 1 1 0 26.843 38.407 3.000 0 0 0
643 1 1 0 27.509 37.156 3.000 0 0 0
644 1 1 0 26.759 35.952 3.000 0 0 0
645 1 1 0 27.426 34.701 3.000 0 0 0
646 1 1 0 26.676 33.498 3.000 0 0 0
647 1 1 0 27.343 32.247 3.000 0 0 0
648 1 1 0 26.593 31.043 3.000 0 0 0
649 1 1 0 27.259 29.792 3.000 0 0 0
650 1 1 0 26.509 28.589 3.000 0 0 0
651 1 1 0 27.176 27.337 3.000 0 0 0
652 1 1 0 26.426 26.134 3.000 0 0 0
653 1 1 0 27.093 24.883 3.000 0 0 0
654 1 1 0 26.342 23.680 3.000 0 0 0
655 1 1 0 27.009 22.428 3.000 0 0 0
656 1 1 0 26.259 21.225 3.000 0 0 0
657 1 1 0 26.926 19.974 3.000 0 0 0
658 1 1 0 26.176 18.770 3.000 0 0 0
659 1 1 0 26.843 17.519 3.000 0 0 0
660 1 1 0 26.092 16.316 3.000 0 0 0
661 1 1 0 26.759 15.064 3.000 0 0 0
662 1 1 0 26.009 13.861 3.000 0 0 0
663 1 1 0 26.676 12.610 3.000 0 0 0
664 1 1 0 25.926 11.407 3.000 0 0 0
665 1 1 0 26.593 10.155 3.000 0 0 0
666 1 1 0 25.842 8.952 3.000 0 0 0
667 1 1 0 26.509 7.701 3.000 0 0 0
668 1 1 0 25.759 6.497 3.000 0 0 0
669 1 1 0 26.426 5.246 3.000 0 0 0
670 1 1 0 25.676 4.043 3.000 0 0 0
671 1 1 0 26.342 2.791 3.000 0 0 0
672 1 1 0 25.592 1.588 3.000 0 0 0
673 1 1 0 26.259 0.337 3.000 0 0 0
674 1 1 0 29.760 61.653 3.000 0 0 0
675 1 1 0 30.427 60.402 3.000 0 0 0
676 1 1 0 29.677 59.199 3.000 0 0 0
677 1 1 0 30.344 57.947 3.000 0 0 0
678 1 1 0 29.594 56.744 3.000 0 0 0
679 1 1 0 30.260 55.493 3.000 0 0 0
680 1 1 0 29.510 54.290 3.000 0 0 0
681 1 1 0 30.177 53.038 3.000 0 0 0
682 1 1 0 29.427 51.835 3.000 0 0 0
683 1 1 0 30.094 50.584 3.000 0 0 0
684 1 1 0 29.343 49.380 3.000 0 0 0
685 1 1 0 30.010 48.129 3.000 0 0 0
686 1 1 0 29.260 46.926 3.000 0 0 0
687 1 1 0 29.927 45.675 3.000 0 0 0
688 1 1 0 29.177 44.471 3.000 0 0 0
689 1 1 0 29.844 43.220 3.000 0 0 0
690 1 1 0 29.093 42.017 3.000 0 0 0
691 1 1 0 29.760 40.765 3.000 0 0 0
692 1 1 0 29.010 39.562 3.000 0 0 0
693 1 1 0 29.677 38.311 3.000 0 0 0
694 1 1 0 28.927 37.108 3.000 0 0 0
695 1 1 0 29.594 35.856 3.000 0 0 0
696 1 1 0 28.843 34.653 3.000 0 0 0
697 1 1 0 29.510 33.402 3.000 0 0 0
698 1 1 0 28.760 32.198 3.000 0 0 0
699 1 1 0 29.427 30.947 3.000 0 0 0
700 1 1 0 28.677 29.744 3.000 0 0 0
701 1 1 0 29.343 28.492 3.000 0 0 0
702 1 1 0 28.593 27.289 3.000 0 0 0
703 1 1 0 29.260 26.038 3.000 0 0 0
704 1 1 0 28.510 24.835 3.000 0 0 0
705 1 1 0 29.177 23.583 3.000 0 0 0
706 1 1 0 28.426 22.380 3.000 0 0 0
707 1 1 0 29.093 21.129 3.000 0 0 0
708 1 1 0 28.343 19.925 3.000 0 0 0
709 1 1 0 29.010 18.674 3.000 0 0 0
710 1 1 0 28.260 17.471 3.000 0 0 0
711 1 1 0 28.927 16.220 3.000 0 0 0
712 1 1 0 28.176 15.016 3.000 0 0 0
713 1 1 0 28.843 13.765 3.000 0 0 0
714 1 1 0 28.093 12.562 3.000 0 0 0
715 1 1 0 28.760 11.310 3.000 0 0 0
716 1 1 0 28.010 10.107 3.000 0 0 0
717 1 1 0 28.677 8.856 3.000 0 0 0
718 1 1 0 27.926 7.653 3.000 0 0 0
719 1 1 0 28.593 6.401 3.000 0 0 0
720 1 1 0 27.843 5.198 3.000 0 0 0
721 1 1 0 28.510 3.947 3.000 0 0 0
722 1 1 0 27.760 2.743 3.000 0 0 0
723 1 1 0 28.426 1.492 3.000 0 0 0
724 1 1 0 27.676 0.289 3.000 0 0 0
725 1 1 0 32.595 61.557 3.000 0 0 0
726 1 1 0 31.844 60.354 3.000 0 0 0
727 1 1 0 32.511 59.103 3.000 0 0 0
728 1 1 0 31.761 57.899 3.000 0 0 0
729 1 1 0 32.428 56.648 3.000 0 0 0
730 1 1 0 31.678 55.445 3.000 0 0 0
731 1 1 0 32.344 54.193 3.000 0 0 0
732 1 1 0 31.594 52.990 3.000 0 0 0
733 1 1 0 32.261 51.739 3.000 0 0 0
734 1 1 0 31.511 50.536 3.000 0 0 0
735 1 1 0 32.178 49.284 3.000 0 0 0
736 1 1 0 31.428 48.081 3.000 0 0 0
737 1 1 0 32.094 46.830 3.000 0 0 0
738 1 1 0 31.344 45.626 3.000 0 0 0
739 1 1 0 32.011 44.375 3.000 0 0 0
740 1 1 0 31.261 43.172 3.000 0 0 0
741 1 1 0 31.928 41.920 3.000 0 0 0
742 1 1 0 31.177 40.717 3.000 0 0 0
743 1 1 0 31.844 39.466 3.000 0 0 0
744 1 1 0 31.094 38.263 3.000 0 0 0
745 1 1 0 31.761 37.011 3.000 0 0 0
746 1 1 0 31.011 35.808 3.000 0 0 0
747 1 1 0 31.678 34.557 3.000 0 0 0
748 1 1 0 30.927 33.353 3.000 0 0 0
749 1 1 0 31.594 32.102 3.000 0 0 0
750 1 1 0 30.844 30.899 3.000 0 0 0
751 1 1 0 31.511 29.648 3.000 0 0 0
752 1 1 0 30.761 28.444 3.000 0 0 0
753 1 1 0 31.428 27.193 3.000 0 0 0
754 1 1 0 30.677 25.990 3.000 0 0 0
755 1 1 0 31.344 24.738 3.000 0 0 0
756 1 1 0 30.594 23.535 3.000 0 0 0
757 1 1 0 31.261 22.284 3.000 0 0 0
758 1 1 0 30.511 21.081 3.000 0 0 0
759 1 1 0 31.177 19.829 3.000 0 0 0
760 1 1 0 30.427 18.626 3.000 0 0 0
761 1 1 0 31.094 17.375 3.000 0 0 0
762 1 1 0 30.344 16.171 3.000 0 0 0
763 1 1 0 31.011 14.920 3.000 0 0 0
764 1 1 0 30.260 13.717 3.000 0 0 0
765 1 1 0 30.927 12.465 3.000 0 0 0
766 1 1 0 30.177 11.262 3.000 0 0 0
767 1 1 0 30.844 10.011 3.000 0 0 0
768 1 1 0 30.094 8.808 3.000 0 0 0
769 1 1 0 30.761 7.556 3.000 0 0 0
770 1 1 0 30.010 6.353 3.000 0 0 0
771 1 1 0 30.677 5.102 3.000 0 0 0
772 1 1 0 29.927 3.898 3.000 0 0 0
773 1 1 0 30.594 2.647 3.000 0 0 0
774 1 1 0 29.844 1.444 3.000 0 0 0
775 1 1 0 30.511 0.193 3.000 0 0 0
776 1 1 0 34.012 61.509 3.000 0 0 0
777 1 1 0 34.679 60.258 3.000 0 0 0
778 1 1 0 33.928 59.054 3.000 0 0 0
779 1 1 0 34.595 57.803 3.000 0 0 0
780 1 1 0 33.845 56.600 3.000 0 0 0
781 1 1 0 34.512 55.348 3.000 0 0 0
782 1 1 0 33.762 54.145 3.000 0 0 0
783 1 1 0 34.429 52.894 3.000 0 0 0
784 1 1 0 33.678 51.691 3.000 0 0 0
785 1 1 0 34.345 50.439 3.000 0 0 0
786 1 1 0 33.595 49.236 3.000 0 0 0
787 1 1 0 34.262 47.985 3.000 0 0 0
788 1 1 0 33.512 46.781 3.000 0 0 0
789 1 1 0 34.178 45.530 3.000 0 0 0
790 1 1 0 33.428 44.327 3.000 0 0 0
791 1 1 0 34.095 43.076 3.000 0 0 0
792 1 1 0 33.345 41.872 3.000 0 0 0
793 1 1 0 34.012 40.621 3.000 0 0 0
794 1 1 0 33.261 39.418 3.000 0 0 0
795 1 1 0 33.928 38.166 3.000 0 0 0
796 1 1 0 33.178 36.963 3.000 0 0 0
797 1 1 0 33.845 35.712 3.000 0 0 0
798 1 1 0 33.095 34.509 3.000 0 0 0
799 1 1 0 33.762 33.257 3.000 0 0 0
800 1 1 0 33.011 32.054 3.000 0 0 0
801 1 1 0 33.678 30.803 3.000 0 0 0
802 1 1 0 32.928 29.599 3.000 0 0 0
803 1 1 0 33.595 28.348 3.000 0 0 0
804 1 1 0 32.845 27.145 3.000 0 0 0
805 1 1 0 33.512 25.893 3.000 0 0 0
806 1 1 0 32.761 24.690 3.000 0 0 0
807 1 1 0 33.428 23.439 3.000 0 0 0
808 1 1 0 32.678 22.236 3.000 0 0 0
809 1 1 0 33.345 20.984 3.000 0 0 0
810 1 1 0 32.595 19.781 3.000 0 0 0
811 1 1 0 33.261 18.530 3.000 0 0 0
812 1 1 0 32.511 17.326 3.000 0 0 0
813 1 1 0 33.178 16.075 3.000 0 0 0
814 1 1 0 32.428 14.872 3.000 0 0 0
815 1 1 0 33.095 13.621 3.000 0 0 0
816 1 1 0 32.344 12.417 3.000 0 0 0
817 1 1 0 33.011 11.166 3.000 0 0 0
818 1 1 0 32.261 9.963 3.000 0 0 0
819 1 1 0 32.928 8.711 3.000 0 0 0
820 1 1 0 32.178 7.508 3.000 0 0 0
821 1 1 0 32.845 6.257 3.000 0 0 0
822 1 1 0 32.094 5.054 3.000 0 0 0
823 1 1 0 32.761 3.802 3.000 0 0 0
824 1 1 0 32.011 2.599 3.000 0 0 0
825 1 1 0 32.678 1.348 3.000 0 0 0
826 1 1 0 31.928 0.144 3.000 0 0 0
827 1 1 0 36.096 60.210 3.000 0 0 0
828 1 1 0 36.012 57.755 3.000 0 0 0
829 1 1 0 35.929 55.300 3.000 0 0 0
830 1 1 0 35.846 52.846 3.000 0 0 0
831 1 1 0 35.762 50.391 3.000 0 0 0
832 1 1 0 35.679 47.937 3.000 0 0 0
833 1 1 0 35.596 45.482 3.000 0 0 0
834 1 1 0 35.512 43.027 3.000 0 0 0
835 1 1 0 35.429 40.573 3.000 0 0 0
836 1 1 0 36.096 39.321 3.000 0 0 0
837 1 1 0 35.346 38.118 3.000 0 0 0
838 1 1 0 36.012 36.867 3.000 0 0 0
839 1 1 0 35.262 35.664 3.000 0 0 0
840 1 1 0 35.929 34.412 3.000 0 0 0
841 1 1 0 35.179 33.209 3.000 0 0 0
842 1 1 0 35.846 31.958 3.000 0 0 0
843 1 1 0 35.095 30.755 3.000 0 0 0