ITEM: TIMESTEP
231
ITEM: NUMBER OF ATOMS
11096
ITEM: BOX BOUNDS pp pp pp
0.0000000000000000e+00 9.1598251099999999e+01
0.0000000000000000e+00 1.5865282500000001e+02
0.0000000000000000e+00 1.8399999600000001e+01
ITEM: ATOMS id type x y z c_csym c_2[1] c_2[2] c_2[3] c_2[4] c_2[5] c_2[6] c_3 
1 1 5.46719e-06 -1.25175e-06 7.43572 6.04573 -12819.9 -12838.8 -7380.61 10.7261 -0.115743 0.00494865 -7.41274 
2 1 2.158 1.1787 7.44268 6.03487 -23383.1 -3169.58 -4630.65 761.842 12880.1 -23369.7 -7.41304 
3 1 3.57725 1.14627 7.45072 6.0211 -22538.9 -6631.09 -3473.49 23278.1 10444.3 -29094.8 -7.41317 
4 1 6.4148 1.08388 7.47067 6.01653 -28956.1 1464.88 3343.17 33055.6 11055 -42478.9 -7.41436 
5 1 7.83405 1.05622 7.47935 6.02386 -27014.4 -5677.41 -1897.85 66441.8 -2933.18 -24579.8 -7.41392 
44 1 0.0582035 2.45846 7.44267 6.0278 -19440.9 -7712.03 -5291.92 -8681.45 24143.6 1290.68 -7.41296 
45 1 1.47751 2.42476 7.44481 6.02741 -19080.1 -8141.98 -4451.87 -2371.5 26645.7 -13091.7 -7.41308 
46 1 2.21463 3.63806 7.45429 6.0213 -43501.9 14975 -1382.09 -14627.7 27931.2 -19921.9 -7.41341 
47 1 3.63381 3.60565 7.46062 6.01539 -40788.1 9350.04 -2883.14 6647.42 30450.2 -22399.2 -7.41345 
48 1 4.31453 2.35966 7.45917 6.02675 -42509 15854.6 1851.6 8967.59 18743.2 -38447.1 -7.41389 
49 1 5.7337 2.32947 7.46842 6.01822 -39643.1 5811.92 -3776.77 40447.1 12911.2 -28217.3 -7.41344 
50 1 6.46925 3.54404 7.47648 6.02337 -56474.3 33712.4 9222.49 16661.2 16626.8 -38871.2 -7.41506 
51 1 7.88839 3.51588 7.48329 6.02517 -49959.5 13687.8 -9344.93 48058.7 7677.77 -16305.9 -7.4134 
52 1 8.57019 2.27062 7.48441 6.01875 -37996.5 16167.3 10055.5 40736.1 12649.4 -32797.6 -7.41543 
130 1 0.113711 4.91708 7.45913 6.01737 -27357.7 -4244.86 -3387.74 -29365.6 33819.6 2575.07 -7.41331 
131 1 1.53302 4.88365 7.46065 6.02106 -24431.9 -3249.32 1046.67 -23450.7 42398.2 -10957.9 -7.41388 
132 1 2.26796 6.09812 7.47062 6.02018 -58010.9 25427.1 -1509.59 -36622.4 27421.7 -13884 -7.41369 
133 1 3.68713 6.06592 7.47457 6.0122 -50895.4 20352.5 374.478 -18256.4 36653.5 -13979.6 -7.41417 
134 1 4.36887 4.82027 7.47068 6.0205 -65854.9 39008.7 4598.46 -12584.4 22855.5 -31016.2 -7.41434 
135 1 5.78797 4.78979 7.47717 6.0145 -58817.9 23739.9 -6097.5 15932.7 23350.1 -18100.6 -7.41355 
136 1 6.5214 6.00548 7.48455 6.01657 -73294.1 52655.5 11161.9 -9759.31 12530.4 -29522.2 -7.41546 
137 1 7.94051 5.97653 7.48889 6.02155 -61164.1 26596.3 -13241.3 17954.2 10864.6 -6819.95 -7.41334 
138 1 8.62273 4.73124 7.48875 6.02163 -55282.6 39551 16564.8 16614.1 11195.9 -28414.4 -7.4162 
216 1 0.165337 7.37575 7.47634 6.01896 -32699.3 -3067.15 -6555.64 -47571.6 26596.9 2572.52 -7.41343 
217 1 1.58469 7.34295 7.47725 6.02043 -24649 682.696 7896.62 -42544.7 41472.1 -7816.38 -7.41499 
218 1 2.31784 8.55841 7.48424 6.02906 -62197.1 27469.2 -6856.92 -49809.6 14793.7 -8359.5 -7.41365 
219 1 3.73706 8.52673 7.48615 6.01505 -49763.1 24980 5894.94 -35903.3 29770 -4512.18 -7.41509 
220 1 4.42011 7.28164 7.48259 6.0207 -77558.1 48734.8 2466.56 -35116.7 14813.5 -20923.8 -7.41448 
221 1 5.83921 7.25097 7.48621 6.01449 -65062.5 33445.3 -4735.63 -11780 22418.4 -6950.02 -7.41406 
222 1 6.57115 8.46738 7.49098 6.01672 -78287.7 57213.6 8303.94 -32325.9 2148.43 -19992.2 -7.41541 
223 1 7.9903 8.43771 7.49332 6.02189 -61307.2 32804.6 -12515.6 -10293.4 8115.98 1664.06 -7.41367 
224 1 8.67328 7.19263 7.49319 6.01805 -63104.3 50038.9 18237.1 -12010.6 3858.42 -22223.8 -7.41646 
302 1 0.21388 9.83436 7.48848 6.02619 -32336.5 -3126.32 -13808.1 -50149.1 10745.6 1161.91 -7.41324 
303 1 1.63331 9.80262 7.48889 6.02222 -19477.2 2457.61 15115.4 -46713.3 29669 -2889.72 -7.41607 
306 1 4.46887 9.74307 7.49053 6.02394 -76662.4 47737.3 -3761.6 -45173.5 1727.85 -12749 -7.41425 
307 1 5.88804 9.7125 7.49205 6.01851 -60233.9 35770.2 -57.32 -28972.9 15325.9 3320.43 -7.41473 
310 1 8.72216 9.65416 7.49582 6.01873 -65150.7 51973 15444.7 -33885.9 -4354.82 -18411.2 -7.41621 
6 1 10.6721 0.99982 7.49064 6.01738 -21311.3 -1062.83 6378.52 53499.5 11852.5 -17976.4 -7.41528 
7 1 12.0914 0.974617 7.49308 6.02278 -18902.1 -6525.46 -4623.6 76058.8 -12466 -1555.39 -7.41435 
8 1 14.9305 0.919792 7.49509 6.01819 -12250.1 -3683.54 5348.77 56287 17481.8 -2919.2 -7.41535 
9 1 16.3499 0.894979 7.49592 6.01721 -9389.9 -5183.49 -6450.14 81310.1 -15168.7 -3986.89 -7.41453 
53 1 9.98942 2.24443 7.48935 6.0308 -32975.5 292.749 -8747.93 68637.3 -4888.37 -9115.21 -7.41372 
54 1 10.7248 3.45934 7.49254 6.0217 -33802.7 19076.2 17126.2 36186.2 12650.8 -18837.5 -7.41636 
55 1 12.144 3.43344 7.49437 6.03189 -24988.2 -2956.47 -17053.8 58956.5 -7429.78 982.578 -7.41338 
56 1 12.8275 2.18917 7.49439 6.01946 -18536.5 2456.56 12915.3 47789.4 15689.4 -7953.47 -7.41598 
57 1 14.2468 2.16388 7.495 6.02423 -12561.9 -8535.16 -12910.8 69293.7 -11593.7 1686.2 -7.41391 
58 1 14.9829 3.37838 7.49688 6.01732 -11573.9 -3154.53 19058.4 41811.7 22242.9 -8413.97 -7.41651 
59 1 16.4023 3.3532 7.49804 6.02158 -2280.72 -13279.6 -21386.7 68865.6 -7323.82 -5854.24 -7.41364 
60 1 17.0864 2.10935 7.49761 6.01048 -9957.35 -6350.87 11527.1 62335.4 26119.4 -10835.3 -7.41592 
139 1 10.0419 4.70409 7.49226 6.03257 -44244.4 11225.2 -17467.8 42917.4 -45.2672 -3279.17 -7.41313 
140 1 10.7759 5.91961 7.49559 6.02636 -40886.3 31059.6 23693.8 8286.01 8511.28 -18269.9 -7.41703 
141 1 12.1952 5.89252 7.49716 6.03842 -26093.4 1301.58 -25842.9 31311.6 -4213.07 1506.16 -7.41287 
142 1 12.8792 4.64836 7.49679 6.02454 -21809.3 10265 23740.3 25468 15491.7 -11898.4 -7.41699 
143 1 14.2986 4.62224 7.49767 6.03209 -9536.37 -10710.1 -25385.9 48854.5 -6241.76 -235.833 -7.41314 
144 1 15.0338 5.83704 7.50142 6.02217 -13615.2 -755.694 30032.2 18420.1 22654.7 -17303.5 -7.41744 
145 1 16.4533 5.81121 7.50371 6.02946 935.096 -13734 -33503 48632.8 -192.539 -11189.3 -7.41316 
146 1 17.1383 4.56773 7.50251 6.01068 -11293.4 -8066.73 25764.8 44594 31833.1 -19532.9 -7.41706 
225 1 10.0925 7.16428 7.49551 6.03063 -46615.5 18639.2 -21619.7 11689.8 701.249 1317.74 -7.41301 
226 1 10.8254 8.38023 7.49837 6.0242 -45082.7 36638.3 25450.5 -19314.2 2036.22 -19359.3 -7.41714 
227 1 12.2448 8.35186 7.50031 6.03759 -26213.6 8405.89 -29795.9 3315.54 -2010.24 -383.053 -7.41283 
228 1 12.9294 7.10784 7.50037 6.03068 -25522.6 16022.7 30357 -1944.5 11809 -18011.8 -7.41755 
229 1 14.3488 7.08065 7.5022 6.039 -8420.16 -6573.61 -33806.3 23661.9 -1740.86 -4967.47 -7.41284 
230 1 15.0828 8.29599 7.50724 6.02888 -22265.3 7287.62 37429 -6113.63 19692.4 -29096.4 -7.418 
231 1 16.5023 8.26952 7.51102 6.02597 -4267.75 -2597.22 -42004.4 27490.6 5549.3 -17784.9 -7.41307 
232 1 17.188 7.02629 7.51031 6.01676 -19816.1 -2088.4 38001.6 21879.9 31769.3 -31659.2 -7.41803 
311 1 10.1414 9.62477 7.4977 6.02907 -45681.8 25360.2 -21022.4 -14274 563.014 3609.31 -7.41329 
314 1 12.9778 9.56766 7.50389 6.0293 -34025.3 24451.2 32613.4 -26315.8 7450.81 -26714.8 -7.41762 
315 1 14.3973 9.53951 7.50712 6.03434 -14427.8 7056.84 -37686.4 1089.52 2746.97 -11033.6 -7.41295 
318 1 17.2352 9.48555 7.51842 6.02498 -37448.6 14678.6 47069.1 603.238 27595.6 -45052.3 -7.41874 
10 1 19.1894 0.841537 7.50113 6.00104 -10955.8 -2843.91 3171.93 90790.2 25770.8 -18637.2 -7.41546 
11 1 20.6087 0.819881 7.50584 5.99572 -7722.85 -379.066 -7167.87 132408 -17282.9 -26681.4 -7.41485 
12 1 23.4482 0.772283 7.51894 5.96741 -15154.8 3900.31 3937.84 170273 35011.1 -38766 -7.41604 
13 1 24.8676 0.757147 7.52605 5.96563 -12263 7514.15 -7030.81 220013 -22777.3 -40386 -7.41521 
61 1 18.5057 2.08553 7.50026 6.00955 -3781.85 -8094.01 -15068.7 96156.8 -10346.2 -15342 -7.41423 
62 1 19.2421 3.30007 7.50532 5.99862 -14505.2 -6221 19309.8 79154 37398.8 -25016.8 -7.41664 
63 1 20.6615 3.27838 7.51079 5.99958 -5599.75 -4308.18 -23758.5 122288 -3691.36 -27877.5 -7.41412 
64 1 21.3454 2.03464 7.51093 5.98528 -17300.5 40.1192 11904.1 122293 38461.5 -32230.2 -7.41631 
65 1 22.7647 2.01599 7.51781 5.98298 -11353 3429.78 -15971.8 170530 -11623.8 -35502 -7.41462 
66 1 23.5006 3.2315 7.52634 5.96979 -32386.5 12589.7 23305.9 157282 50882.5 -42599.4 -7.41743 
67 1 24.9198 3.21626 7.5341 5.97425 -24339.1 15102.6 -26008.6 207598 -5951.93 -39236.9 -7.41438 
68 1 25.6038 1.97295 7.53335 5.95468 -29031.5 15758.2 14716.6 211640 48598.2 -44275.2 -7.41706 
69 1 27.023 1.96133 7.54013 5.95645 -23969.5 16890.7 -17125.8 259425 -16313 -39425.3 -7.41482 
147 1 18.5576 4.54366 7.50615 6.01504 417.28 -11869.8 -29842.4 81045.3 -81.2031 -19177.3 -7.41363 
148 1 19.2929 5.75873 7.51414 6.00173 -24093.5 -1732.78 35386.1 58734.2 41750.7 -35083.3 -7.41789 
149 1 20.7122 5.73697 7.52055 6.00686 -10576.3 1927.99 -39369.5 103927 6852.36 -30866.7 -7.4137 
150 1 21.3971 4.49362 7.51955 5.98592 -29909.2 5107.33 30335.7 104601 48422.3 -39104.6 -7.41768 
151 1 22.8163 4.47493 7.52714 5.99174 -19012.3 9567.34 -33645.1 153719 2144.01 -36169.5 -7.41403 
152 1 23.5503 5.69145 7.53824 5.97677 -53974.7 28208.5 44406.4 132249 55747.4 -47829.3 -7.41904 
153 1 24.9694 5.67607 7.54622 5.98847 -41417.4 31720.6 -46029.9 182467 5138.65 -38260.4 -7.41381 
154 1 25.6542 4.433 7.54471 5.95929 -53168.3 33952 36788.5 188195 59664.9 -46828.5 -7.41876 
155 1 27.0733 4.42108 7.55176 5.97104 -43339.7 32708.5 -38039.5 235988 -1729.52 -37934.2 -7.41404 
233 1 18.6074 7.00195 7.51521 6.01758 -3936.54 -3635.27 -42392.9 61584.7 7669.94 -24452.1 -7.41337 
234 1 19.3408 8.21802 7.5244 6.01099 -42087.7 13490.6 49729 36528.6 38713 -46677.9 -7.41902 
235 1 20.7601 8.19632 7.53136 6.00831 -25211.7 20767.7 -53945.4 83694.5 12883.2 -32836.5 -7.41347 
236 1 21.4458 6.95324 7.53111 5.99423 -49252.6 19663.9 48865.4 80784.4 48379 -47594.5 -7.41911 
237 1 22.865 6.93457 7.53898 6.00134 -34317.7 27041 -51635.7 130552 10264.8 -36286.3 -7.41363 
238 1 23.5963 8.15255 7.55002 5.99096 -80003.6 51469.9 65054.9 104448 49816.9 -53050.7 -7.42061 
239 1 25.0153 8.13711 7.55764 6.00113 -63609 57937.6 -66849.9 153980 9282.21 -35410 -7.4133 
240 1 25.7012 6.89424 7.55764 5.97299 -80273 57852.8 60193.8 155766 57651.6 -49510.9 -7.42056 
241 1 27.1202 6.88197 7.56452 5.98924 -66153.3 57240.9 -60739.9 202758 4774.61 -35399.9 -7.41341 
319 1 18.6546 9.46109 7.52427 6.01281 -19073.3 17432.2 -52330.8 43285.3 12691.4 -28612.5 -7.41333 
322 1 21.4911 9.41402 7.54135 6.00791 -74535.9 43471.4 65139.6 58042.8 40932.3 -55805.3 -7.42038 
323 1 22.9102 9.39552 7.54882 6.00017 -56506.5 54219.5 -68946.1 108042 13258.3 -34115.5 -7.41327 
326 1 25.7441 9.35694 7.56734 5.99173 -108574 85664.5 82044.1 124687 46685.2 -51713.2 -7.42213 
327 1 27.163 9.34441 7.57363 5.99823 -90663.4 87912.8 -83286.5 170259 5022.09 -30746.8 -7.41275 
14 1 27.7073 0.718412 7.53923 5.93979 -20289.7 12669.9 5045.24 260455 41952 -43432.4 -7.41653 
15 1 29.1265 0.710222 7.54437 5.93993 -18396.9 14467.5 -7335.63 302484 -27892.3 -37050.3 -7.41543 
16 1 31.9666 0.679884 7.55193 5.92311 -24643.4 18717.1 5095.67 328581 45050.9 -35216.4 -7.41666 
17 1 33.3858 0.676942 7.55425 5.92387 -23545.6 18317.3 -7328.65 355839 -30523.5 -25629.7 -7.41553 
18 1 36.2263 0.652625 7.5572 5.91422 -27548.6 21598.7 5069.27 367282 45725.4 -23732.2 -7.41662 
70 1 27.7581 3.17823 7.54933 5.94338 -46904.6 34353.8 26982.3 243508 59092.7 -44216.6 -7.41824 
71 1 29.1772 3.1697 7.55474 5.95339 -40100.4 29751.9 -28556 286106 -9983.96 -35174.8 -7.41438 
72 1 29.8621 1.92725 7.55159 5.93093 -36690.4 28668.9 16110.6 292080 53866.9 -40178.1 -7.41751 
73 1 31.2812 1.92179 7.55525 5.9371 -32799.3 24305.3 -18203.1 327344 -19673.2 -30716.2 -7.41486 
74 1 32.0154 3.13989 7.5635 5.92552 -51567.5 45605.4 28237.6 307939 62169.3 -34152.5 -7.41863 
75 1 33.4344 3.13644 7.5655 5.93914 -45823.5 33601.7 -29628.6 336333 -12323 -24152.3 -7.41433 
76 1 34.1206 1.89497 7.5605 5.91726 -38887.2 33741.3 16346.6 343870 55381.2 -28781.7 -7.41762 
77 1 35.5397 1.89365 7.56151 5.92582 -35752.2 25332.5 -18132.8 365059 -21362.8 -18809 -7.41488 
78 1 36.2731 3.11254 7.56833 5.91581 -48359 46109.7 28314.8 344297 62592.1 -21973.7 -7.41872 
156 1 27.8059 5.63932 7.56279 5.95495 -74693.4 59222.4 51441.7 209606 63121.8 -45000.4 -7.4202 
157 1 29.2248 5.63022 7.56814 5.97235 -63268.9 51811 -51728.6 251794 99.8633 -33327.4 -7.41362 
158 1 29.9105 4.3879 7.56465 5.93852 -64336.6 54827.6 40290.5 261874 64861.7 -39705.1 -7.41954 
159 1 31.3295 4.38181 7.5682 5.95514 -55792.3 43130.5 -41027.4 297547 -5295.06 -29305.1 -7.41392 
160 1 32.061 5.60132 7.57787 5.93915 -77552 72733.6 54154.4 266528 65965.9 -32975.2 -7.42086 
161 1 33.4799 5.59697 7.57946 5.96002 -67276 54397.1 -54051.4 295295 -3252.36 -23101.6 -7.41346 
162 1 34.167 4.35563 7.57399 5.92535 -62344.2 59898.3 41072.7 309045 66363.2 -27084.1 -7.41985 
163 1 35.5859 4.35352 7.57429 5.94423 -54752.8 40722.7 -41483.4 331253 -7263.09 -18071.2 -7.41385 
164 1 36.3169 5.57369 7.58229 5.92906 -66994.1 69332.2 54239.1 298488 66688.3 -20232.9 -7.42111 
242 1 27.8496 8.10186 7.57475 5.97405 -103029 86986.2 76336.7 171586 54799.7 -45740.8 -7.42205 
243 1 29.2684 8.09216 7.57979 5.99017 -87307.1 80735.3 -76286.4 212642 1624.24 -29958.8 -7.41289 
244 1 29.9552 6.84999 7.57839 5.95598 -91837.8 82432.8 66455.7 219705 61733.9 -39369.6 -7.42162 
245 1 31.3741 6.84307 7.5817 5.97649 -78794.4 68699.9 -66069 254962 -757.615 -27319 -7.41313 
246 1 32.1024 8.0642 7.59047 5.96057 -102323 99765.3 81118.8 219785 57034.5 -32423.2 -7.42293 
247 1 33.5212 8.0588 7.59171 5.97836 -87632.2 80916.7 -80226.7 248084 -3888.5 -21221 -7.41262 
248 1 34.2095 6.81765 7.58815 5.94366 -84419.6 85331.3 68067.8 260152 63362.7 -25932 -7.42214 
249 1 35.6284 6.81442 7.58778 5.96528 -72425.2 61723.3 -67266.2 282582 -3965.42 -17286 -7.413 
250 1 36.3564 8.03603 7.59495 5.95031 -84175.2 91232.2 81675.2 246137 58152.4 -19515.5 -7.42336 
330 1 29.9957 9.3136 7.58811 5.97537 -118186 110391 91730.2 178957 49045.8 -39282 -7.4234 
331 1 31.4145 9.30585 7.59118 5.99018 -100968 98740.1 -91262.3 213188 -3287.93 -23830 -7.41231 
334 1 34.2478 9.28101 7.59864 5.96541 -104923 109702 94962.6 212344 50472.1 -25652.8 -7.42412 
335 1 35.6667 9.27655 7.59785 5.98169 -88643.7 87202.1 -93780.7 234347 -8466.46 -15671.1 -7.41211 
19 1 37.6454 0.652869 7.55784 5.91611 -26727.7 19776.2 -6761.34 381988 -31891 -13913 -7.41558 
20 1 40.4861 0.632147 7.55847 5.91135 -28645.8 22620.6 5121.03 385149 45301.6 -13586.1 -7.41656 
21 1 41.9052 0.634013 7.55837 5.91331 -27827.8 19437.6 -6155.17 391556 -32935.8 -4145.43 -7.41563 
22 1 44.746 0.614942 7.55806 5.91138 -27364.1 22033.5 5057.21 391568 44452.9 -4951.77 -7.41652 
79 1 37.6922 3.11224 7.56795 5.93057 -43201.3 29697.4 -29171.3 360445 -13672.7 -12968.8 -7.41432 
80 1 38.3795 1.87156 7.56266 5.91115 -36830.4 33174.8 16343.6 370092 55182.2 -17565.4 -7.41759 
81 1 39.7986 1.87258 7.56219 5.92009 -33875.6 22489.5 -17418.4 380912 -22487.2 -8262.96 -7.4149 
82 1 40.5317 3.09184 7.56717 5.91122 -39773.7 40323 28085.4 360551 61934.9 -11608.3 -7.41871 
83 1 41.9507 3.09317 7.5655 5.9242 -34777.6 21456.4 -28266.7 368331 -14720.4 -3591.3 -7.41434 
84 1 42.6389 1.85301 7.56129 5.9091 -31603.3 29428 16266 380612 54336.2 -8213.97 -7.41756 
85 1 44.058 1.85507 7.56015 5.91657 -28568.9 17279.4 -16771 384764 -23462.6 503.994 -7.41493 
86 1 44.7911 3.07434 7.56296 5.90905 -28001.8 31371.4 27790.6 365643 60902.1 -2784.52 -7.41869 
165 1 37.7358 5.57234 7.58087 5.94924 -57543.1 44338.2 -53732.7 315316 -5102.3 -12705.1 -7.4134 
166 1 38.4243 4.33191 7.57467 5.91799 -51801.5 53920.7 40748.4 332612 66236.8 -15504 -7.41992 
167 1 39.8433 4.33209 7.57285 5.93528 -44649.9 30587.6 -40583 344540 -8518.27 -8035.83 -7.41384 
168 1 40.5742 5.55239 7.57879 5.92277 -48761.8 56070.9 53467.1 312224 66355.5 -9657 -7.42117 
169 1 41.9933 5.55262 7.5755 5.94111 -39586.3 27798 -52504.7 320685 -6280.61 -3784.44 -7.41341 
170 1 42.6829 4.31289 7.57006 5.91385 -36212.4 42162.7 40204.4 341460 65407.4 -5966.18 -7.41992 
171 1 44.102 4.31411 7.56716 5.9293 -29081.9 16773.5 -39533.2 346562 -9480.02 424.677 -7.41386 
172 1 44.8333 5.53415 7.5708 5.91842 -26523.2 38143.2 52635.3 315919 65492.6 -596.814 -7.42117 
251 1 37.7753 8.03338 7.59264 5.97055 -70427.6 64193.6 -80434.4 263050 -6869.78 -12143.6 -7.41253 
252 1 38.4653 6.7933 7.5877 5.9352 -65118.7 72706.3 67474.2 279884 63770.1 -14139.5 -7.42235 
253 1 39.8843 6.79222 7.58456 5.9551 -53732.6 43901.4 -66332.2 292219 -5693.75 -8037.03 -7.41297 
254 1 40.6125 8.01373 7.58971 5.94248 -56435.3 69832.3 80570.6 256849 58399.3 -8792.21 -7.42354 
255 1 42.0316 8.01255 7.58493 5.96084 -43079.1 38729.4 -79138.4 265268 -8417.08 -3966.95 -7.41252 
256 1 42.7231 6.77338 7.5801 5.92905 -39276.7 52261.6 66328.4 286704 63371.6 -4384.73 -7.42241 
257 1 44.1422 6.77329 7.57543 5.94708 -28000.8 20661.1 -64931.5 291952 -6724.97 11.1522 -7.41298 
258 1 44.8713 7.99427 7.5784 5.93597 -23729.9 42000.6 79154.2 259050 57967.5 539.896 -7.42358 
338 1 38.5021 9.25565 7.5979 5.95773 -77086.5 90154.2 94763.9 227738 51298.2 -13874 -7.42448 
339 1 39.921 9.25315 7.59373 5.97557 -61524 61370.1 -93342.2 239916 -11147.8 -7710.12 -7.41205 
342 1 42.7591 9.23435 7.5882 5.94973 -41117.2 60237.5 93314.3 232262 51396.6 -3929.09 -7.42464 
343 1 44.1783 9.23276 7.582 5.96565 -25729.5 28145.1 -91890.2 237100 -12419.6 -415.791 -7.41205 
23 1 46.1652 0.617337 7.55764 5.91276 -26350.4 17631 -5790.44 392386 -33893.6 4245.77 -7.41565 
24 1 49.0062 0.598368 7.5569 5.91027 -23962.3 19759.2 4808.98 391189 43435.1 3475.56 -7.41649 
25 1 50.4253 0.600397 7.55628 5.91285 -22705.5 14275.7 -5660.57 386613 -34625.6 12653.6 -7.41569 
26 1 53.2666 0.58002 7.55508 5.91154 -18489 16243.2 4322.72 382973 42382.8 13142 -7.41644 
27 1 54.6858 0.580657 7.55409 5.91422 -17100.6 9994.16 -5682.13 370692 -34890.5 22404.5 -7.41576 
87 1 46.2103 3.07621 7.56076 5.92031 -22862.6 10890.7 -27560.6 367649 -15560.1 4550.42 -7.41436 
88 1 46.8989 1.83631 7.55842 5.90875 -23860.3 23747.2 16078.2 382785 53281.1 244.74 -7.41752 
89 1 48.3181 1.83846 7.55704 5.91469 -20662 10157.3 -16397.4 381673 -24220.2 8612.44 -7.41496 
90 1 49.0517 3.0574 7.55775 5.90841 -14121.5 20136.2 27447.8 364247 59778.4 5959.34 -7.41865 
91 1 50.4709 3.05892 7.55554 5.91803 -8629.52 -1257.17 -27142.7 360679 -15994.3 12802 -7.4144 
92 1 51.1596 1.81902 7.55511 5.90971 -14302.5 16476.6 15732.7 378539 52201 9319.16 -7.41748 
93 1 52.5788 1.82035 7.55368 5.91467 -10819.9 2135.63 -16253 371131 -24543.8 17493.1 -7.41502 
94 1 53.3132 3.03866 7.55281 5.91027 210.254 8012.7 26928.4 355738 58720.2 16062.9 -7.41857 
95 1 54.7326 3.03885 7.55077 5.91844 6037.61 -13085.1 -26868.5 344411 -15677.4 22362.8 -7.41449 
173 1 46.2525 5.53491 7.56675 5.93494 -17198.7 7913.54 -51371.7 318302 -7061.65 4106.43 -7.41343 
174 1 46.9429 4.29563 7.56309 5.91132 -18068.7 27463.5 39689.9 342506 64322.9 2760.13 -7.4199 
175 1 48.3621 4.29694 7.55994 5.92504 -10695.1 461.054 -38771.3 342113 -10075.4 8347.93 -7.41389 
176 1 49.0943 5.51638 7.56152 5.91555 -2567.62 17289.8 51907.5 313971 64456.1 8485.23 -7.42113 
177 1 50.5136 5.51683 7.55767 5.93019 7213.98 -13962.2 -50558.6 310549 -7278.19 12141.9 -7.41346 
178 1 51.2044 4.27773 7.55604 5.9106 1101.07 10787.5 39150.8 337935 63251.7 12221.7 -7.41983 
179 1 52.6237 4.27827 7.55324 5.92258 8961.26 -16355.4 -38269.8 331029 -10021.9 17043.1 -7.41394 
180 1 53.3571 5.49683 7.55351 5.91528 19828.4 -4460.89 51078.8 306308 63581.1 18947.7 -7.421 
181 1 54.7766 5.49603 7.55044 5.92813 30193 -34281 -49874.5 295013 -6436.35 21321.3 -7.41354 
259 1 46.2906 7.99359 7.57259 5.9524 -10247 8602.67 -77677.7 261109 -9173.5 3483.31 -7.41253 
260 1 46.9832 6.75508 7.56915 5.92434 -10786.5 27760.9 65260.7 286891 62535.4 4644.64 -7.42239 
261 1 48.4025 6.7551 7.56422 5.9404 857.216 -5547.51 -63762.7 286312 -7192.54 7651.44 -7.413 
262 1 49.1329 7.97518 7.5654 5.93084 10002.9 10591.6 77837.4 257096 57269.2 9912.91 -7.42351 
263 1 50.5524 7.9742 7.55999 5.94513 24113.8 -23877.7 -76456.3 253112 -9086.52 11030.7 -7.41256 
264 1 51.2456 6.73611 7.55849 5.92134 17400.9 696.786 64268.2 282741 61694.8 14424.1 -7.42229 
265 1 52.6651 6.7354 7.55433 5.93539 29699.2 -32267.1 -62861.5 275542 -6770.96 15922.6 -7.41304 
266 1 53.397 7.95436 7.55471 5.9282 40158.1 -21757.1 76427.2 251276 56932.3 20467.7 -7.4233 
267 1 54.8167 7.95225 7.5507 5.94045 55025.6 -54007.2 -75297.6 239367 -7530.23 19347.3 -7.41263 
346 1 47.0193 9.21451 7.57402 5.94275 -2385.65 25020.1 91649.2 231732 51002.8 5363.25 -7.42463 
347 1 48.4387 9.213 7.56749 5.95653 13481.1 -9078.15 -90376.9 230507 -12664.2 6593.17 -7.41206 
350 1 51.2828 9.19397 7.56041 5.93734 34725.5 -13174.5 89951.8 228759 50736 15229.6 -7.42447 
351 1 52.7024 9.19181 7.55509 5.94893 51362.5 -46696.9 -88972.8 220823 -11554.6 13940.2 -7.4121 
28 1 57.5271 0.557032 7.55152 5.91778 -12815 12223.2 3659.32 360121 41057.3 24821.7 -7.41635 
29 1 58.9464 0.554801 7.5494 5.92114 -11530.5 5946.74 -5543.15 335971 -34120.5 33577.9 -7.41586 
30 1 61.7875 0.525596 7.54338 5.93273 -8233.64 8410.77 3103.86 312138 38483.9 36846.9 -7.41618 
31 1 63.2068 0.518474 7.53895 5.93472 -7407.15 2800.7 -5002.01 273013 -31376.1 42394.2 -7.41587 
96 1 55.4208 1.79863 7.55152 5.91223 -4753.65 8668.84 15121.6 364172 51077.4 20223.2 -7.41739 
97 1 56.8401 1.79793 7.54975 5.9186 -1061.09 -4927.38 -16098.3 347091 -24009 27972.7 -7.41512 
98 1 57.5756 3.01539 7.54803 5.91652 11123.3 -2488.42 26027 334147 57483.1 28192.6 -7.41838 
99 1 58.9951 3.01282 7.54567 5.92478 17183.5 -20861.3 -26218.1 310987 -13957.3 33126.2 -7.41464 
100 1 59.6823 1.77189 7.54607 5.9221 1819.58 2611.79 14233.7 330916 49273.4 32772.3 -7.4172 
101 1 61.1017 1.76742 7.54302 5.92722 5481.77 -8712.02 -15377.8 299910 -21928.4 38527.5 -7.41525 
102 1 61.8381 2.9839 7.54115 5.93158 14660.1 -7936.67 24599.2 289839 55035.2 40509.8 -7.41801 
103 1 63.2576 2.97658 7.53731 5.93603 20733.9 -20293.1 -24480.7 251924 -10319.1 41468.5 -7.4148 
104 1 63.9435 1.73456 7.53547 5.94334 2322.87 502.245 13129.4 269422 45226 42821.2 -7.41682 
182 1 55.4672 4.2568 7.55022 5.91375 17622 -5319.35 38327.9 324674 62298.5 23535.8 -7.41967 
183 1 56.8867 4.25542 7.54782 5.92428 25953.6 -30097 -37662.2 308128 -8711.29 27163.2 -7.41407 
184 1 57.6213 5.47295 7.54776 5.92075 35729.5 -22779.9 49739.9 287743 62975.6 31253.2 -7.4207 
185 1 59.041 5.46957 7.54524 5.93219 46638.6 -47641.1 -48589.1 264848 -3628.56 31440.4 -7.41372 
186 1 59.7307 4.22977 7.54494 5.92475 26649.5 -16565.7 36878.9 295026 61059.7 36344.2 -7.41933 
187 1 61.1503 4.22481 7.54216 5.93196 35320.7 -35408.6 -36078.7 264938 -5376.3 37240 -7.41427 
188 1 61.886 5.44133 7.54259 5.93646 38767.7 -31467 47340.9 250013 62055.3 43579.7 -7.42012 
189 1 63.3057 5.43348 7.53948 5.94149 49888.2 -46671.3 -45436.6 212974 1677.74 39501.6 -7.41399 
190 1 63.994 4.1926 7.53706 5.9461 22372.2 -17530.1 34447.2 240895 57961.9 46640.8 -7.41868 
268 1 55.51 6.71423 7.55069 5.92228 40406.9 -24865.4 62975 271926 61307.5 25853.1 -7.42204 
269 1 56.9297 6.71176 7.54771 5.93456 53433.3 -54196.6 -61749.4 255098 -4623.34 25259.9 -7.41316 
270 1 57.6632 7.92953 7.54843 5.93124 60943.2 -48939.1 74376.8 236844 57548.9 32390.6 -7.42289 
271 1 59.0831 7.92508 7.54588 5.94196 76605.6 -74462.8 -73289.2 213815 -3388.42 28166.9 -7.41282 
272 1 59.7757 6.68668 7.54596 5.9311 52237 -42789.2 60777.7 247547 61531.8 38418.1 -7.42155 
273 1 61.1955 6.6809 7.54354 5.93965 65799.3 -63616.3 -59206.6 217790 268.513 34429.4 -7.41342 
274 1 61.9302 7.8976 7.54541 5.94429 64824.9 -62319.1 70768.2 206530 59040.6 44177.7 -7.42213 
275 1 63.3501 7.88908 7.54307 5.94838 80637.3 -76007.8 -68538.1 170165 3972.83 35457.3 -7.4132 
276 1 64.0412 6.64967 7.5412 5.95205 45279.4 -44793.2 56729.4 202641 61086.8 48848.4 -7.42066 
354 1 55.5489 9.17074 7.55133 5.93574 64163.2 -48945.7 87862.7 221200 51423.8 26250 -7.4241 
355 1 56.9688 9.16701 7.54797 5.94553 81723.6 -77577.7 -87173.2 203945 -8135.38 21815.4 -7.41223 
358 1 59.8167 9.14237 7.54775 5.94179 79315.1 -73843 84626 202583 53599.1 37890.7 -7.42346 
359 1 61.2368 9.13567 7.5458 5.94775 97301 -92608.6 -83466.3 173095 -1392.69 29394.6 -7.41254 
362 1 64.0847 9.10546 7.54633 5.95979 71786.3 -78423.2 78691.6 166346 56113.5 48179.9 -7.4224 
32 1 66.0473 0.481197 7.52773 5.95871 -6999.93 5410.13 2590.86 234360 33059.7 42189.7 -7.41585 
33 1 67.4667 0.467276 7.52111 5.96108 -6993.66 941.4 -4833.73 185412 -25875.1 39823.8 -7.41557 
34 1 70.3064 0.420976 7.50848 5.99074 -9319.92 3357.69 1635.28 145794 25431.6 31071.8 -7.41541 
35 1 71.7258 0.400209 7.5033 5.99653 -9539.11 126.539 -4820.77 102134 -19304.9 21125.8 -7.41503 
105 1 65.3629 1.72417 7.53012 5.94602 5425.74 -6800.94 -14038.8 224589 -17818.7 42656.3 -7.41524 
106 1 66.0996 2.93976 7.52879 5.95946 6342.51 -4634.75 22448.5 218419 49175.3 46104.7 -7.41736 
107 1 67.5191 2.92573 7.52303 5.96213 12016.2 -9792.18 -22014.4 170501 -5666.18 39182.8 -7.41473 
108 1 68.2035 1.68246 7.51854 5.97512 -4997.23 3148.14 11508.7 184679 37358.9 40850 -7.41626 
109 1 69.6229 1.66489 7.51236 5.97922 -2318.61 -539.086 -13033.8 136604 -12855.7 31711.1 -7.41488 
110 1 70.3594 2.87988 7.51244 5.99391 -9890.78 5549.83 19538.7 136160 38505.4 35780 -7.41663 
111 1 71.7788 2.85897 7.50728 5.9994 -4117.89 2646.77 -19881.7 92638.4 -3384.7 21391.5 -7.41426 
112 1 72.4624 1.61487 7.50289 6.00607 -14249.7 6786.43 9892.68 107925 27486.4 21643.3 -7.41579 
191 1 65.4136 4.18195 7.53263 5.94895 30878 -26866.4 -32795 197204 -280.37 41652.6 -7.41444 
192 1 66.1496 5.39769 7.53395 5.96458 23241.6 -24064.8 43126.2 188952 58095.2 50044 -7.41914 
193 1 67.5693 5.38346 7.52905 5.96533 34157.1 -27309.3 -39925 141859 7542.67 38882.4 -7.41414 
194 1 68.2555 4.14108 7.52375 5.97922 3290.94 -5490.88 30612.4 165546 49866.3 45893.2 -7.41775 
195 1 69.675 4.12338 7.51803 5.98158 11616.7 -7119.94 -28837.2 117811 3451.05 32592.7 -7.41426 
196 1 70.4107 5.33875 7.5201 5.99931 -4868.07 -2905.59 36915.9 116517 46785.9 42841.3 -7.41802 
197 1 71.8301 5.31767 7.51453 6.00213 6265.55 -2500.46 -34212.1 72104.9 8675.64 24256.4 -7.4138 
198 1 72.5147 4.07403 7.50898 6.01111 -17164.9 9757.63 26301.4 94735 35760.8 28951.2 -7.417 
277 1 65.461 6.63861 7.53772 5.95402 58781.9 -52580.6 -53538.8 159893 7509.2 39341.9 -7.41377 
278 1 66.1961 7.85459 7.54062 5.97027 45247 -53627 63923.2 156188 58380.5 51847.9 -7.4209 
279 1 67.616 7.84015 7.53648 5.96914 60589.8 -52749.3 -59199.7 109726 12364 36972.4 -7.4136 
280 1 68.3047 6.59912 7.53153 5.98439 17751.8 -26116.1 49613.9 138802 55238.9 50677.6 -7.41937 
281 1 69.7244 6.58131 7.5261 5.9841 30875.8 -23265.1 -45144 91058.6 12807.5 33787.1 -7.41385 
282 1 70.4591 7.79705 7.52889 6.00431 8883.32 -24532.5 52858.7 93562.5 48809.1 49626.7 -7.41937 
283 1 71.8787 7.77588 7.5227 6.00346 24066.9 -18567.4 -47620.3 47842.1 15308 27538.9 -7.41354 
284 1 72.565 6.53319 7.5168 6.01651 -12628.4 267.107 40587.1 74882.3 39480.1 38637.7 -7.41818 
363 1 65.5047 9.09396 7.54374 5.95955 89336.3 -82710.4 -75146.3 124605 8164.78 34551 -7.41307 
366 1 68.3505 9.05609 7.54001 5.98987 39706.1 -56890.2 67586.1 112738 53398.6 53363.9 -7.42084 
367 1 69.7704 9.03825 7.5347 5.98608 56366.5 -48977.7 -61209.7 64922.8 16095.4 33424.4 -7.41349 
370 1 72.6127 8.99173 7.52479 6.02248 1936.7 -22525.1 52112.7 54643.5 38499.2 48135.9 -7.41917 
36 1 74.5651 0.347351 7.49716 6.01468 -12517.7 792.891 1459.86 87401.5 19509.1 7965.82 -7.41511 
37 1 75.9844 0.322775 7.49578 6.01908 -12130.4 -2842.19 -2552.36 60388.5 -14508 2209.16 -7.41477 
38 1 78.8236 0.268014 7.49403 6.02003 -14051.2 -6533.27 2077.37 77376.2 15675.2 1134.91 -7.41498 
39 1 80.243 0.242936 7.49205 6.01852 -13292.3 -11193.4 -57.3047 56036.1 -10538.8 11612.6 -7.41473 
113 1 73.8817 1.59158 7.49955 6.01363 -11063.2 1964.88 -11450 72415.2 -10226.2 9342.84 -7.41437 
114 1 74.6178 2.80632 7.50087 6.01748 -18531.8 9801.94 17382.5 80053.1 26010 13365.8 -7.41628 
115 1 76.0371 2.78142 7.49857 6.02383 -11643.7 -1250.65 -17063.1 52418.7 -5412.84 1371.87 -7.41378 
116 1 76.7207 1.53727 7.4965 6.01926 -14675.1 1509.25 9400.2 75532.4 19717.8 2627.04 -7.41566 
117 1 78.1401 1.51211 7.49528 6.02282 -10670.9 -9925.65 -8274.27 53975.4 -9493.06 930.087 -7.41419 
118 1 78.8764 2.72653 7.49582 6.01874 -6681.43 -6563.59 15444.6 67694.5 18122.1 5434.37 -7.41621 
119 1 80.2958 2.70094 7.49332 6.02189 393.613 -28875.4 -12515.3 45865.4 -5499.28 6196.89 -7.41367 
120 1 80.9797 1.45709 7.49098 6.01672 -4716.63 -16409.5 8303.67 74856.1 16239.5 11856.6 -7.41541 
121 1 82.3991 1.43142 7.48621 6.01449 -1397.03 -30295.3 -4735.46 48498.5 -5190.18 22890 -7.41406 
199 1 73.934 4.05044 7.50473 6.01809 -8021.88 4200.53 -25482.7 57987.5 1531.25 11298.5 -7.41368 
200 1 74.6693 5.26564 7.50662 6.02263 -20009.3 10682.4 30986.7 62649.4 28980.9 23029.8 -7.41737 
201 1 76.0886 5.2401 7.50284 6.03115 -7438.02 -2510.3 -29242.8 32687.7 2456.99 3408.42 -7.41317 
202 1 76.7729 3.99622 7.49999 6.02202 -15093.8 6081.91 22993.8 60928.3 21417.3 9643.72 -7.4168 
203 1 78.1922 3.97034 7.4977 6.02907 -4782.04 -15631.3 -21022.4 37882.2 -3407.12 -1317.22 -7.41329 
204 1 78.9281 5.18496 7.49837 6.02419 -526.384 -7926.64 25450.2 45052.5 15747.5 11443 -7.41714 
205 1 80.3476 5.15822 7.49551 6.03063 12473.9 -40464.2 -21619.8 22382.6 -1491.73 -51.5167 -7.41301 
206 1 81.0326 3.91496 7.49319 6.01805 11302 -24400.6 18237 55044.5 17317.3 14453.4 -7.41646 
207 1 82.4522 3.88842 7.48888 6.02155 20197.7 -54796.9 -13241.2 28976 474.136 12819.3 -7.41334 
285 1 73.9844 6.50925 7.51124 6.02102 1356.25 -1725.28 -37494.4 35884.4 9969.08 15706.8 -7.41333 
286 1 74.7187 7.72486 7.51266 6.02796 -14019.6 -636.267 40918.5 41602.3 28352.2 34775 -7.4182 
287 1 76.1382 7.69863 7.50712 6.03432 2663.44 -10003.6 -37686.2 8712.12 8181.57 7895.82 -7.41295 
288 1 76.8235 6.45528 7.50389 6.0293 -12942.7 3461.86 32613.7 38500.8 19410.3 19810 -7.41762 
289 1 78.243 6.42834 7.50031 6.03759 2633.36 -20442.4 -29795.8 13294.4 1336.83 -1549.4 -7.41283 
290 1 78.978 7.64325 7.50037 6.03068 3937.2 -13449.4 30356.9 18978.6 9694.13 19232.5 -7.41755 
291 1 80.3976 7.61511 7.49716 6.03843 21597 -46363.9 -25842.8 -3804.31 802.242 -4401.71 -7.41287 
292 1 81.0838 6.37241 7.49559 6.02635 20210 -30084.2 23693.7 27030.7 11566.6 16505.8 -7.41703 
371 1 74.0323 8.96756 7.51775 6.01805 18978.3 -18687.5 -46688.3 13138.7 15029 20912.2 -7.41325 