ITEM: TIMESTEP
0
ITEM: NUMBER OF ATOMS
11096
ITEM: BOX BOUNDS pp pp pp
0.0000000000000000e+00 9.1598251099999999e+01
0.0000000000000000e+00 1.5865282500000001e+02
0.0000000000000000e+00 1.8399999600000001e+01
ITEM: ATOMS id type x y z c_csym c_2[1] c_2[2] c_2[3] c_2[4] c_2[5] c_2[6] c_3 
1 1 0 0 7.5 6.04911 10706.1 10702.3 -64794.8 31.4197 0.0457311 0.00526038 -7.41189 
2 1 2.14632 1.20105 7.5 6.04916 9595.38 11449.2 -61937.1 -1689.11 11428.9 -20489.2 -7.41204 
3 1 3.56619 1.18198 7.5 6.04918 11547.1 8560.98 -58706.1 3655.35 10722.5 -31049.4 -7.41221 
4 1 6.40593 1.14386 7.5 6.04918 9336.89 7862.19 -46745 -4976.18 9888.42 -49316 -7.41282 
5 1 7.82581 1.12479 7.5 6.04918 10874.8 5001.64 -41777.2 7405.97 5684.89 -47855 -7.41309 
44 1 0.0330203 2.45929 7.5 6.04912 7758.28 12814.9 -62097 -91.5982 22954.9 135.313 -7.41204 
45 1 1.45289 2.44023 7.5 6.04915 12310.3 8375.98 -61116.3 1739.83 23285.1 -13200.2 -7.41208 
46 1 2.17934 3.66034 7.5 6.04915 6080.42 13457.6 -56760.7 -1314.67 31091.7 -19044.2 -7.41231 
47 1 3.59921 3.64127 7.5 6.0492 12500.4 6244.08 -53980 4497.75 31288.5 -28479.7 -7.41246 
48 1 4.29264 2.4021 7.5 6.0492 7913.68 10922.8 -53685.8 -2957.32 20131.2 -37081.5 -7.41246 
49 1 5.71251 2.38303 7.5 6.0492 11911 5763.88 -50021.9 6276.65 18321 -41390 -7.41266 
50 1 6.43895 3.60315 7.5 6.0492 6049.22 9928 -41337.5 -3876.66 24474.8 -46477.9 -7.4131 
51 1 7.85883 3.58408 7.5 6.0492 12112.8 3201.09 -40123.2 8661.34 21132.3 -42938.1 -7.41318 
52 1 8.55225 2.3449 7.5 6.0492 7609.84 6755.96 -33630.1 -5898.09 15285.6 -52466.4 -7.41349 
130 1 0.0660406 4.91858 7.5 6.04912 3794.67 14772.8 -54921.3 -178.978 40206.7 636.951 -7.41241 
131 1 1.48591 4.89952 7.5 6.04915 12637.2 5973.82 -53055.8 2084.69 41978.2 -12178.1 -7.41249 
132 1 2.21236 6.11963 7.5 6.04915 1935.24 15334.5 -48163.8 -1006.82 43235.4 -16065.8 -7.41276 
133 1 3.63223 6.10057 7.5 6.0492 12509.6 4033.42 -44730.3 5029.54 45293.6 -24226.2 -7.41293 
134 1 4.32566 4.86139 7.5 6.0492 4119.98 12979.5 -46664.1 -2196.03 34572.7 -33314.4 -7.41283 
135 1 5.74553 4.84232 7.5 6.0492 12508.6 3804.77 -44469.1 7191.85 34139 -36037.6 -7.41295 
136 1 6.47198 6.06244 7.5 6.0492 2275.81 12054.1 -33472.8 -2998.85 32890.3 -40265.1 -7.4135 
137 1 7.89185 6.04337 7.5 6.0492 12602.4 1746.49 -34998.7 9389.59 31452.1 -35085 -7.41345 
138 1 8.58527 4.8042 7.5 6.0492 4236.54 8948.47 -26889.7 -4743.54 24217.8 -47605.1 -7.41383 
216 1 0.0990608 7.37787 7.5 6.04912 -394.186 16476.8 -45311.7 -257.506 48185.8 1255.38 -7.41292 
217 1 1.51893 7.35881 7.5 6.04915 12255.7 3579.96 -40949.2 2289.08 52266.5 -10628 -7.41311 
218 1 2.24538 8.57892 7.5 6.04915 -1956.62 16965.4 -38432.5 -851.707 45664.9 -12293.2 -7.41327 
219 1 3.66525 8.55986 7.5 6.0492 12165 1915.51 -32527 5203.45 50411.5 -18756.9 -7.41355 
220 1 4.35868 7.32068 7.5 6.0492 136.166 14878.3 -37647.1 -1693.51 40754.2 -27446.9 -7.4133 
221 1 5.77855 7.30161 7.5 6.0492 12485.7 2009.13 -35462.8 7631.57 42641.2 -28545.1 -7.41342 
222 1 6.505 8.52173 7.5 6.0492 -1234.79 14058.7 -25142.9 -2505.12 33468.7 -32099.2 -7.41393 
223 1 7.92487 8.50266 7.5 6.0492 12780.6 549.93 -27483.8 9497.88 34851.9 -25356.6 -7.41383 
224 1 8.61829 7.26349 7.5 6.0492 783.151 11178.6 -19248 -3960.23 27012.8 -39798.4 -7.41422 
302 1 0.132081 9.83716 7.5 6.04912 -3847.4 17909.5 -35704.3 -323.72 46016.5 1701.29 -7.41342 
303 1 1.55195 9.8181 7.5 6.04915 11842.2 1271.11 -26765.9 2332.65 53103.1 -8581.63 -7.41384 
306 1 4.3917 9.77997 7.5 6.0492 -3147.55 16555.3 -28894.2 -1487.89 37995.2 -20730 -7.41375 
307 1 5.81157 9.7609 7.5 6.0492 12409.2 390.189 -24602.4 7540.43 42979.4 -19843.7 -7.41396 
310 1 8.65131 9.72278 7.5 6.0492 -2052 13294.5 -12507.6 -3604.61 23361.7 -30785.4 -7.41457 
6 1 10.6656 1.08666 7.5 6.04918 8810.95 4174.85 -25519.7 -7899.79 8718.13 -50108.5 -7.41391 
7 1 12.0854 1.0676 7.5 6.04918 10105.6 2716.54 -23158.5 9914.05 -1389.06 -37297.7 -7.41405 
8 1 14.9252 1.02947 7.5 6.04918 8313.01 3439.4 -9081.29 -9948.91 9473.75 -29129.5 -7.41474 
9 1 16.345 1.01041 7.5 6.04918 9605.4 3739.16 -11525.7 10899.1 -8131.4 -14185.1 -7.41462 
53 1 9.97212 2.32584 7.5 6.0492 11287.2 2674.78 -32547.9 9514.02 8687.69 -43252.3 -7.41357 
54 1 10.6986 3.54595 7.5 6.0492 5858.41 6136.08 -19500.1 -6716.36 16741.3 -47716.2 -7.41421 
55 1 12.1184 3.52689 7.5 6.0492 11743.5 1611.32 -25496.8 10908.2 7570.16 -32266.2 -7.41394 
56 1 12.8119 2.28771 7.5 6.0492 7175.02 4175.99 -13083.3 -8582.72 11741.6 -40834.7 -7.41454 
57 1 14.2317 2.26865 7.5 6.0492 10777.8 2351.96 -18529.2 11006.4 -1627.89 -23957.3 -7.41428 
58 1 14.9582 3.48876 7.5 6.0492 5619.1 4940.17 -1943.6 -9246.12 12730.9 -28762.5 -7.41509 
59 1 16.3781 3.4697 7.5 6.0492 11649.2 3286.82 -17338.4 11212.8 -3791.92 -10715.7 -7.41433 
60 1 17.0715 2.23052 7.5 6.0492 6870.79 4715.88 -504.811 -10322.5 12126.4 -17626.3 -7.41516 
139 1 10.0051 4.78513 7.5 6.0492 12374.7 1482.58 -31379.4 10439.5 19062.6 -36438.9 -7.41364 
140 1 10.7316 6.00524 7.5 6.0492 2644.39 8388.26 -12427.9 -5750.84 20498.8 -41822 -7.41456 
141 1 12.1515 5.98618 7.5 6.0492 12864.3 1058.66 -25549.4 11339.7 13409.3 -24803.6 -7.41394 
142 1 12.8449 4.747 7.5 6.0492 4258.97 6196.77 -6198.5 -7622.78 15476.6 -37713.3 -7.41488 
143 1 14.2648 4.72794 7.5 6.0492 12407.4 1925.66 -21825.4 11423.2 3724.19 -18641.1 -7.41412 
144 1 14.9912 5.94805 7.5 6.0492 2884.51 6838.08 5130.28 -8611.01 13405.6 -26352.7 -7.41544 
145 1 16.4111 5.92899 7.5 6.0492 13330.7 3396.17 -21600.4 11091.2 -782.944 -6515.93 -7.41411 
146 1 17.1045 4.68981 7.5 6.0492 4234.97 6110.87 7295.16 -9898.46 13380.6 -17875 -7.41555 
225 1 10.0382 7.24442 7.5 6.0492 12981.6 666.442 -27684.9 10752.6 24340 -27267.6 -7.41383 
226 1 10.7646 8.46453 7.5 6.0492 -288.256 10669.3 -5837.88 -5180.59 19035.1 -33994.3 -7.4149 
227 1 12.1845 8.44547 7.5 6.0492 13696.2 889.103 -23772.9 11148.4 15035.7 -16021.5 -7.41402 
228 1 12.8779 7.20629 7.5 6.0492 1395.97 8407.49 456.066 -6939.58 15379.6 -32338.5 -7.41521 
229 1 14.2978 7.18723 7.5 6.0492 13660.8 1965.28 -23331.3 11314.9 6380.58 -12109.7 -7.41404 
230 1 15.0242 8.40734 7.5 6.0492 449.817 8834.3 11037.3 -8180.79 11116.6 -23083.6 -7.41574 
231 1 16.4441 8.38828 7.5 6.0492 14681.7 3857.14 -24257.2 10560.3 352.236 -2295.82 -7.41397 
232 1 17.1375 7.1491 7.5 6.0492 1763.75 7714.94 14264.4 -9529.1 12419.7 -17497.4 -7.4159 
311 1 10.0712 9.70371 7.5 6.0492 13472.5 140.651 -22417.2 10409.2 24036.9 -17026.9 -7.41409 
314 1 12.9109 9.66558 7.5 6.0492 -946.425 10585.5 5608.37 -6578.07 11482 -26284.8 -7.41547 
315 1 14.3308 9.64652 7.5 6.0492 14685.4 2312.17 -23352.3 10694.6 6179.76 -5402.32 -7.41403 
318 1 17.1705 9.60839 7.5 6.0492 -265.224 9299.45 19534.1 -9228.13 9421.36 -17429.3 -7.41617 
10 1 19.1848 0.972278 7.5 6.04918 8174.3 5359.87 -1930.82 -10633.8 12769.1 -7508.8 -7.41507 
11 1 20.6047 0.953213 7.5 6.04918 9675.55 6454.59 -8002.76 10469.7 -12938.8 313.171 -7.41476 
12 1 23.4444 0.915085 7.5 6.04918 8603.56 6947.68 -409.081 -9845.13 17795.2 -2266.12 -7.41512 
13 1 24.8643 0.89602 7.5 6.04918 10376.2 7538.39 -6987.96 9054.98 -15651.1 -3649.04 -7.41477 
61 1 18.4914 2.21145 7.5 6.0492 10701.4 4905.34 -12677.6 10879.6 -9109.91 -3602.13 -7.41454 
62 1 19.2178 3.43157 7.5 6.0492 5541.39 6104.65 6688.36 -10574 14808.6 -9487.74 -7.41551 
63 1 20.6377 3.4125 7.5 6.0492 12032.3 6454.14 -15876.9 10176.6 -9678.35 1853.2 -7.41435 
64 1 21.3311 2.17333 7.5 6.0492 6966.96 6511.47 3768.03 -10546.5 16666.1 -3717.53 -7.41535 
65 1 22.751 2.15426 7.5 6.0492 11217.5 7378.35 -11986.7 9662.1 -12561.2 1158.82 -7.41453 
66 1 23.4774 3.37438 7.5 6.0492 5841.54 6945.07 9678.21 -10190.8 21645.8 -5602.65 -7.41564 
67 1 24.8973 3.35531 7.5 6.0492 12872.1 7740.01 -15484 8591.29 -10511.4 -3282.16 -7.41433 
68 1 25.5907 2.11613 7.5 6.0492 7590.66 6565.62 5768.23 -9254.06 23279.5 -8164.77 -7.41543 
69 1 27.0106 2.09707 7.5 6.0492 12193.4 6892.69 -9723.18 7977.93 -13205.8 -10629.2 -7.41461 
147 1 18.5244 4.67075 7.5 6.0492 12765.7 4997.68 -19043.7 10667.6 -6030 -1185.59 -7.41422 
148 1 19.2508 5.89086 7.5 6.0492 3015.59 7187.75 14884.3 -10387.3 15177.4 -11408.7 -7.41593 
149 1 20.6707 5.87179 7.5 6.0492 14039.7 6824.76 -22278.7 9662.43 -6734.65 2419.3 -7.41403 
150 1 21.3641 4.63262 7.5 6.0492 4344.17 7044.68 13098 -10610.7 18609.9 -6902.2 -7.41583 
151 1 22.784 4.61355 7.5 6.0492 13499.5 7674.11 -19563.9 9136.11 -8631.5 1218.8 -7.41414 
152 1 23.5104 5.83367 7.5 6.0492 3232.39 7138.25 19737.7 -10285.8 23860.7 -10212.4 -7.41617 
153 1 24.9303 5.8146 7.5 6.0492 14896.8 8063.15 -22170.4 8125.71 -5571.02 -4638.89 -7.41398 
154 1 25.6237 4.57542 7.5 6.0492 4778.79 6403.13 16729.1 -9509.16 27703.6 -12369.4 -7.41601 
155 1 27.0436 4.55636 7.5 6.0492 14423.5 7177.99 -17209.5 7620.62 -6737.75 -11300 -7.41423 
233 1 18.5574 7.13004 7.5 6.0492 14458.2 5445.11 -23839 10164.8 -3938.3 828.536 -7.41397 
234 1 19.2838 8.35015 7.5 6.0492 807.939 8337.41 21829.5 -10146.4 13738.4 -13805.1 -7.41629 
235 1 20.7037 8.33108 7.5 6.0492 15599.8 7359.62 -26917 9040.51 -4439.64 1872.87 -7.41378 
236 1 21.3971 7.09191 7.5 6.0492 1948.41 7698.8 21733 -10518.3 18866.7 -10938.4 -7.41628 
237 1 22.817 7.07284 7.5 6.0492 15303.4 8087.8 -25351.5 8588.25 -5083.64 -176.722 -7.41384 
238 1 23.5435 8.29296 7.5 6.0492 954.302 7332.63 29044.8 -10142.9 24216.4 -16045.5 -7.41667 
239 1 24.9633 8.27389 7.5 6.0492 16309 8326.83 -26826.7 7814.92 -1277.9 -7395.19 -7.41374 
240 1 25.6568 7.03471 7.5 6.0492 2198.17 6266.32 27673.6 -9512.18 30026.3 -17958.5 -7.41659 
241 1 27.0766 7.01565 7.5 6.0492 15999.5 7375.88 -22630.5 7454.79 -1014 -13421.5 -7.41395 
319 1 18.5904 9.58933 7.5 6.0492 15761.9 6072.96 -26955.4 9452.13 -2878.89 2010.12 -7.4138 
322 1 21.4302 9.5512 7.5 6.0492 -40.7661 8304.42 28988.9 -10251 17535.4 -16023.9 -7.41666 
323 1 22.85 9.53213 7.5 6.0492 16541 8477.01 -29160.6 8132.91 -2071.04 -2842.62 -7.41364 
326 1 25.6898 9.494 7.5 6.0492 28.3331 6068.63 37922.7 -9221.34 30135 -24621.3 -7.41715 
327 1 27.1097 9.47494 7.5 6.0492 16861.4 7391.92 -26006.5 7575.87 3578.59 -16433.8 -7.41378 
14 1 27.704 0.857892 7.5 6.04918 9552.7 5717.73 2571.76 -7982.61 22889.7 -14074.3 -7.41525 
15 1 29.1239 0.838828 7.5 6.04918 11467.7 5269.77 -2004.57 7200.32 -17197.5 -19491.5 -7.41501 
16 1 31.9636 0.800699 7.5 6.04918 10729 1802.15 11300.6 -5708.6 26619.5 -30363.4 -7.41571 
17 1 33.3835 0.781635 7.5 6.04918 12552.3 720.301 9090.28 5312.34 -18635 -32748.5 -7.4156 
18 1 36.2232 0.743506 7.5 6.04918 11770.9 -2768.35 24524.6 -3553.23 28498.3 -37272.5 -7.41642 
70 1 27.737 3.31718 7.5 6.0492 6591.4 5280.42 13755.5 -8350.16 29598.6 -17246.3 -7.41584 
71 1 29.1569 3.29812 7.5 6.0492 13877.5 5496.09 -10322.7 7013.18 -9220.73 -19211.9 -7.41458 
72 1 29.8503 2.05894 7.5 6.0492 8627.86 3706.66 11753.5 -7026.55 29185 -23793.9 -7.41574 
73 1 31.2702 2.03988 7.5 6.0492 13259.9 3216.42 -1492.54 6256.77 -13260.3 -26902.9 -7.41504 
74 1 31.9967 3.25999 7.5 6.0492 7644.05 1323.06 23091.7 -5845.28 35328.7 -32248.3 -7.41634 
75 1 33.4165 3.24093 7.5 6.0492 14662.1 926.804 982.346 5561.91 -8744.27 -31914.9 -7.41518 
76 1 34.11 2.00175 7.5 6.0492 9776.23 -778.815 23334.9 -4620.54 32653.6 -36113.8 -7.41635 
77 1 35.5298 1.98268 7.5 6.0492 14055.2 -1600.09 11767.4 4603.53 -14227.5 -34130.2 -7.41575 
78 1 36.2563 3.2028 7.5 6.0492 8709.31 -3045.13 36550.6 -3458.28 37660.9 -37627 -7.41705 
156 1 27.7701 5.77647 7.5 6.0492 3730.28 4936.44 25702.9 -8467.09 34106.8 -21826.1 -7.41648 
157 1 29.1899 5.75741 7.5 6.0492 15615.3 5697.77 -16533 6992.19 -1968.14 -20290 -7.41426 
158 1 29.8834 4.51823 7.5 6.0492 5582.03 3279.66 23967.1 -7181.24 35913.7 -26996.3 -7.41639 
159 1 31.3032 4.49917 7.5 6.0492 15177.7 3456.63 -8588.89 6368.17 -4540.02 -26896.5 -7.41467 
160 1 32.0297 5.71928 7.5 6.0492 4531.81 943.277 36406.7 -5824.43 41100 -34780 -7.41705 
161 1 33.4495 5.70022 7.5 6.0492 15889.9 1148.8 -5081.83 6057.67 -334.551 -31539.8 -7.41487 
162 1 34.143 4.46104 7.5 6.0492 6591.17 -1070 36251.5 -4568.77 40312.5 -37322.4 -7.41703 
163 1 35.5628 4.44197 7.5 6.0492 15492.7 -1302.61 4639.23 5112.61 -4703.1 -33096.1 -7.41539 
164 1 36.2893 5.66209 7.5 6.0492 5456.34 -3123.28 50579 -3312.59 43324.3 -37752.8 -7.41779 
242 1 27.8031 8.23576 7.5 6.0492 1197.91 4567.77 37694.6 -8306.22 35912.6 -27457.8 -7.41713 
243 1 29.2229 8.2167 7.5 6.0492 16582.3 5724.99 -20720.5 7278.78 3817.49 -22184.6 -7.41405 
244 1 29.9164 6.97752 7.5 6.0492 2713.05 2857.56 36999.4 -7120.52 39659.5 -31118.4 -7.41709 
245 1 31.3362 6.95846 7.5 6.0492 16257.8 3567.47 -13669 6785.81 2561.61 -27559.1 -7.41442 
246 1 32.0627 8.17857 7.5 6.0492 1717.86 586.492 50530.3 -5600.61 43121.4 -37593.5 -7.41781 
247 1 33.4826 8.15951 7.5 6.0492 16241.8 1264.07 -9603.48 6892.11 5544.21 -31093.5 -7.41465 
248 1 34.176 6.92033 7.5 6.0492 3482.27 -1288.93 50653.2 -4408.19 44132.1 -38573.4 -7.41781 
249 1 35.5959 6.90126 7.5 6.0492 15952 -996.859 -946.676 5931.35 2302.9 -31916.6 -7.41511 
250 1 36.3223 8.12138 7.5 6.0492 2441.13 -3081.79 65947 -3073.48 44429.3 -37457.5 -7.41862 
330 1 29.9494 9.43681 7.5 6.0492 275.781 2415.18 50103.8 -6787.98 40092.4 -35695.3 -7.4178 
331 1 31.3693 9.41775 7.5 6.0492 16551.4 3492.22 -17126.8 7546.96 7437.36 -28249 -7.41424 
334 1 34.209 9.37962 7.5 6.0492 810.499 -1443.88 65748.5 -4076.44 43634.9 -39526.1 -7.41863 
335 1 35.6289 9.36055 7.5 6.0492 15634.1 -715.747 -5783.19 7041.13 6053.76 -30068.6 -7.41487 
19 1 37.6431 0.724442 7.5 6.04918 13325.7 -3777.54 23186.2 3531.76 -20382 -32751.3 -7.41635 
20 1 40.4829 0.686314 7.5 6.04918 12452.6 -6106.16 37086 -1700.69 28893 -28857.7 -7.41709 
21 1 41.9027 0.667249 7.5 6.04918 13720.7 -6641.11 34611.8 1816.22 -22148.4 -18106.1 -7.41697 
22 1 44.7425 0.629121 7.5 6.04918 12737.5 -7514.29 43510.8 -69.2413 28415 -8425.54 -7.41743 
79 1 37.6761 3.18373 7.5 6.0492 15028.4 -3542.9 14932 4026.21 -10139.6 -31460.8 -7.41594 
80 1 38.3696 1.94456 7.5 6.0492 10721.1 -4794.85 37005.6 -2530.09 33671.3 -34889.8 -7.41708 
81 1 39.7894 1.92549 7.5 6.0492 14458.5 -5389.02 25139.5 2905.1 -16124.5 -26356.8 -7.41648 
82 1 40.5159 3.1456 7.5 6.0492 9512.52 -6157.61 49145.3 -1562.92 37586.4 -28167.5 -7.41771 
83 1 41.9358 3.12654 7.5 6.0492 15092.9 -6342.75 25985 2189.61 -12439.7 -16935.4 -7.41654 
84 1 42.6292 1.88736 7.5 6.0492 11281.8 -7114.68 47052.3 -842.858 33308.6 -19257.9 -7.41761 
85 1 44.0491 1.8683 7.5 6.0492 14593.7 -7240 33133.7 1074.49 -17955.9 -6615.76 -7.41691 
86 1 44.7755 3.08841 7.5 6.0492 9896.63 -7454.22 55493.9 -89.9175 36828.6 -7368.26 -7.41805 
165 1 37.7092 5.64302 7.5 6.0492 15683.2 -3110.33 8313.12 4740.37 -2009.71 -29998 -7.41561 
166 1 38.4026 4.40385 7.5 6.0492 7529.06 -4784.15 50182.3 -2366.27 41025.3 -34398.6 -7.41777 
167 1 39.8225 4.38478 7.5 6.0492 15424.9 -4938.01 17518 3446.48 -7036.73 -24959.6 -7.4161 
168 1 40.5489 5.60489 7.5 6.0492 6231.25 -5883.99 63398.7 -1423.8 42547.5 -26915.8 -7.41846 
169 1 41.9688 5.58583 7.5 6.0492 15320 -5657.43 18548.9 2658.75 -5156.9 -15659.4 -7.41617 
170 1 42.6622 4.34665 7.5 6.0492 8148.05 -6868.36 60234.6 -747.223 40151.5 -18061.7 -7.41829 
171 1 44.0821 4.32759 7.5 6.0492 15300.2 -6669.48 25026.2 1261.18 -9445.48 -5805.11 -7.41651 
172 1 44.8085 5.5477 7.5 6.0492 6629.36 -6997.75 69711.4 -88.5732 41582.8 -6060.17 -7.41879 
251 1 37.7422 8.10231 7.5 6.0492 15421.7 -2577.43 2432.06 5721.27 2729.06 -27977.1 -7.41531 
252 1 38.4356 6.86314 7.5 6.0492 4293.94 -4586.97 65220.8 -2186.97 44004.9 -33388.5 -7.41857 
253 1 39.8555 6.84407 7.5 6.0492 15332 -4260.95 10787.8 4199.59 -1074.94 -23201.4 -7.41576 
254 1 40.5819 8.06418 7.5 6.0492 3116.14 -5394.16 79266.3 -1266.11 42552.4 -25124.9 -7.41931 
255 1 42.0018 8.04512 7.5 6.0492 14629.1 -4665.02 11138.3 3253.6 -1723.88 -14078 -7.41581 
256 1 42.6952 6.80594 7.5 6.0492 4875.65 -6343.19 75426.1 -668.534 42470.1 -16456.4 -7.4191 
257 1 44.1151 6.78688 7.5 6.0492 14916.6 -5726.98 17395 1493.53 -4270.55 -5096.3 -7.41613 
258 1 44.8415 8.00699 7.5 6.0492 3481.13 -6274.64 85642.4 -91.4491 41357.4 -4698 -7.41964 
338 1 38.4686 9.32243 7.5 6.0492 1475.99 -4233.01 81338.6 -1936.45 42051.8 -31756.6 -7.41944 
339 1 39.8885 9.30336 7.5 6.0492 14518 -3378.74 3844.11 5127.15 970.578 -20752.5 -7.41542 
342 1 42.7282 9.26523 7.5 6.0492 1990.43 -5595.52 91879.6 -574.395 39644.4 -14557.2 -7.41998 
343 1 44.1481 9.24617 7.5 6.0492 13855.8 -4427.85 8980.55 1757.88 -3264.72 -4352.28 -7.41571 
23 1 46.1624 0.610056 7.5 6.04918 13823.8 -7503.78 38600 104.856 -23403.5 4852.07 -7.41719 
24 1 49.0021 0.571928 7.5 6.04918 12663.8 -6985.51 40940.5 1502.68 27424.4 15164.3 -7.4173 
25 1 50.422 0.552864 7.5 6.04918 13675.2 -6406.16 33546.7 -1624.73 -23823.3 26257.4 -7.41691 
26 1 53.2617 0.514735 7.5 6.04918 12221.4 -4481.67 30380.9 3163.31 25976.5 31870.8 -7.41673 
27 1 54.6816 0.495671 7.5 6.04918 13191.3 -3321.27 21674.1 -3427.89 -23340.4 36771.6 -7.41627 
87 1 46.1954 3.06935 7.5 6.0492 15109.9 -7182.42 29734.8 101.393 -13970.8 5378.93 -7.41675 
88 1 46.8888 1.83017 7.5 6.0492 11413.6 -7534.79 49046.1 625.67 32568.2 4146.29 -7.41772 
89 1 48.3087 1.81111 7.5 6.0492 14604.1 -7127.06 32510.1 -821.083 -18778.3 16544.5 -7.41688 
90 1 49.0351 3.03122 7.5 6.0492 9809.72 -6960.79 52770.1 1273.49 36297.4 16232.6 -7.41791 
91 1 50.455 3.01215 7.5 6.0492 15167.6 -6120.14 24742 -1963.44 -13867.8 26053 -7.41647 
92 1 51.1484 1.77298 7.5 6.0492 11116.5 -6067.83 42021.8 2138.89 31666.4 25519.9 -7.41734 
93 1 52.5683 1.75391 7.5 6.0492 14448 -5029.31 23585.6 -2664.56 -18403.7 33180.6 -7.41639 
94 1 53.2947 2.97403 7.5 6.0492 9259.45 -4615.41 42020 2870.37 35542.8 33091.2 -7.41734 
95 1 54.7146 2.95496 7.5 6.0492 15078 -3064.38 13038.9 -3794.45 -12615.4 36154 -7.41583 
173 1 46.2284 5.52864 7.5 6.0492 15228.8 -6409.01 21922.6 15.8954 -6930.93 5458.23 -7.41636 
174 1 46.9218 4.28946 7.5 6.0492 8307.72 -7237.07 62111.1 539.871 39598.5 5243.92 -7.41839 
175 1 48.3417 4.2704 7.5 6.0492 15384 -6577.13 24350.7 -1117.99 -10046.3 16342.5 -7.41647 
176 1 49.0681 5.49051 7.5 6.0492 6540.61 -6568.8 66829.7 1110.54 41790.9 17056.7 -7.41864 
177 1 50.488 5.47144 7.5 6.0492 15545.4 -5489.27 17268.5 -2544.58 -5996.07 25004 -7.4161 
178 1 51.1814 4.23227 7.5 6.0492 7974.13 -5913.69 54902.6 1919.07 39558.1 26481.4 -7.41801 
179 1 52.6013 4.2132 7.5 6.0492 15602.4 -4604.79 15761.8 -3224.25 -8701.26 32346.5 -7.416 
180 1 53.3278 5.43332 7.5 6.0492 5985.31 -4493.99 55806.9 2647.64 42134.5 34004.1 -7.41807 
181 1 54.7476 5.41425 7.5 6.0492 15975.5 -2664.67 6218.7 -4485.24 -3485.09 34987.7 -7.41549 
259 1 46.2614 7.98793 7.5 6.0492 14433.4 -5263 13927.1 -114.83 -3797.55 5107.05 -7.41596 
260 1 46.9548 6.74875 7.5 6.0492 5030.55 -6642.63 77214.6 451.179 42264.7 6199.46 -7.41919 
261 1 48.3747 6.72969 7.5 6.0492 15081.9 -5682.54 16764.3 -1550.69 -4496.59 15391.1 -7.4161 
262 1 49.1012 7.9498 7.5 6.0492 3392.28 -5933.67 82590.5 938.165 42563.6 17312.7 -7.41948 
263 1 50.521 7.93073 7.5 6.0492 15007 -4604.42 10032 -3330.85 -1753.56 22952.2 -7.41574 
264 1 51.2145 6.69156 7.5 6.0492 4705.44 -5530.12 69764.2 1700.37 43468.8 26905.5 -7.4188 
265 1 52.6343 6.67249 7.5 6.0492 15725 -4015.39 9057.33 -4058.24 -1743.5 30596.4 -7.41567 
266 1 53.3608 7.89261 7.5 6.0492 2880.87 -4217.37 71143 2377.75 44502.3 34177.7 -7.41889 
267 1 54.7806 7.87354 7.5 6.0492 15971.4 -2236.26 436.705 -5489.88 2578.97 32956 -7.4152 
346 1 46.9879 9.20804 7.5 6.0492 2125.34 -5815.23 93626.3 356.512 39878.1 6738.7 -7.42007 
347 1 48.4077 9.18898 7.5 6.0492 14094.3 -4462.21 8524.03 -2095.8 -3035.99 13643.2 -7.41568 
350 1 51.2475 9.15085 7.5 6.0492 1817.59 -4963.88 85857.6 1445.21 42662.3 26388.2 -7.41967 
351 1 52.6673 9.13178 7.5 6.0492 15110.2 -3293.29 2457.2 -5132.21 1491.93 27692.3 -7.41534 
28 1 57.5213 0.457542 7.5 6.04918 11387.2 -227.82 16266.2 5023.42 24032.7 34506.6 -7.41597 
29 1 58.9412 0.438478 7.5 6.04918 12306.4 1210.77 8142.72 -5400.3 -21927.1 31880.3 -7.41555 
30 1 61.7809 0.40035 7.5 6.04918 10265.5 4445.24 4348.77 7076.84 21587.2 22997.1 -7.41534 
31 1 63.2008 0.381285 7.5 6.04918 11155.5 5404.05 -1527.54 -7514.59 -19497.9 15958.9 -7.41504 
96 1 55.408 1.71578 7.5 6.0492 10396.9 -2686.14 28892.3 3916.8 30128.5 35878.3 -7.41664 
97 1 56.8279 1.69672 7.5 6.0492 13946 -1056.7 10155.8 -4463.02 -17291.3 35876.5 -7.41566 
98 1 57.5543 2.91683 7.5 6.0492 8328.15 -561.754 27696.7 4897.24 33387 36289.1 -7.41658 
99 1 58.9742 2.89777 7.5 6.0492 14584.1 1495.05 -509.654 -5450.29 -11381.7 31196.5 -7.4151 
100 1 59.6676 1.65859 7.5 6.0492 9343.78 1956.25 15124.9 6023.56 27392.7 31116.6 -7.41591 
101 1 61.0875 1.63953 7.5 6.0492 13027.5 3626.42 -2077.31 -6329.88 -15930.9 24149.7 -7.41501 
102 1 61.814 2.85964 7.5 6.0492 7226.03 4019.47 15455.3 7236.55 29088.1 25577.7 -7.41593 
103 1 63.2338 2.84058 7.5 6.0492 13664 5710.28 -10391.6 -7136.61 -10846.3 15199.1 -7.41458 
104 1 63.9273 1.6014 7.5 6.0492 8205.9 6005.73 5797.67 8235.21 23383 15780.6 -7.41542 
182 1 55.4411 4.17507 7.5 6.0492 7212.32 -2794.12 41508 3739.42 38595.9 37340.6 -7.41731 
183 1 56.8609 4.15601 7.5 6.0492 15608.5 -728.628 2610.11 -4873.87 -6904.4 35175.7 -7.41528 
184 1 57.5874 5.37612 7.5 6.0492 5114.94 -768.206 40975.5 4776.96 40253.6 38385.3 -7.41729 
185 1 59.0072 5.35706 7.5 6.0492 16061.4 1767.18 -7028.4 -5801.72 -1853.18 30918.5 -7.41477 
186 1 59.7007 4.11788 7.5 6.0492 6204.14 1628.11 27288.1 6056.07 35055 33742.6 -7.41656 
187 1 61.1205 4.09882 7.5 6.0492 15128.3 3956.62 -9753.34 -6285.4 -6316.03 23967.5 -7.41461 
188 1 61.847 5.31893 7.5 6.0492 4189.48 3668.49 27803.5 7302.98 34612.8 29406.6 -7.41659 
189 1 63.2669 5.29987 7.5 6.0492 15588.8 6011.54 -17211.2 -6945.47 -2654.39 15789.3 -7.41423 
190 1 63.9603 4.06069 7.5 6.0492 5236.44 5713.37 17149.1 8470.7 28671.4 19533.7 -7.41603 
268 1 55.4741 6.63436 7.5 6.0492 4003.78 -2791.64 55876.6 3513.88 43642.9 38507.9 -7.41808 
269 1 56.8939 6.6153 7.5 6.0492 16344.9 -445.901 -3177.56 -5611.49 1387.42 34175.7 -7.41499 
270 1 57.6204 7.83541 7.5 6.0492 2140.16 -927.872 55419.3 4522.12 43619.6 40275 -7.41807 
271 1 59.0403 7.81635 7.5 6.0492 16703.5 1890.48 -11779.9 -6494.83 5413.73 30633.8 -7.41453 
272 1 59.7337 6.57717 7.5 6.0492 3158.99 1314.2 40697.3 5943.99 39987.9 36911.6 -7.41728 
273 1 61.1536 6.55811 7.5 6.0492 16465.7 4147.1 -15335.8 -6518.49 1969.48 24538.3 -7.41433 
274 1 61.88 7.77822 7.5 6.0492 1446.88 3297.53 40656.7 7138.24 37491.2 33952.7 -7.41729 
275 1 63.2999 7.75916 7.5 6.0492 16807.8 6152.46 -21957.1 -7022.44 4184.14 17369.7 -7.41398 
276 1 63.9933 6.51998 7.5 6.0492 2448.94 5428.67 28982.2 8481.33 31903.6 24659.6 -7.41666 
354 1 55.5071 9.09365 7.5 6.0492 1198.67 -2698.95 71217.9 3178.56 44574.1 38847.7 -7.41891 
355 1 56.927 9.07459 7.5 6.0492 16302.1 -257.191 -7875.61 -6675.04 6622.23 32463 -7.41476 
358 1 59.7667 9.03646 7.5 6.0492 531.46 997.388 54568.7 5620.34 41666.8 40001.2 -7.41804 
359 1 61.1866 9.0174 7.5 6.0492 17046.4 4127.17 -19091.1 -7088.42 8126.35 25380.4 -7.41414 
362 1 64.0263 8.97927 7.5 6.0492 72.9788 5098.34 40546.3 8213.64 32812.1 30590 -7.41729 
32 1 66.0406 0.343157 7.5 6.04918 9161.7 7281.96 -1731.75 9070.11 18626.2 6676.43 -7.41504 
33 1 67.4604 0.324092 7.5 6.04918 10090.9 7033.1 -5079.07 -9448.64 -16079.4 2107.72 -7.41487 
34 1 70.3002 0.285964 7.5 6.04918 8458.37 6889.62 -3414.68 10496.7 15108.5 111.356 -7.41498 
35 1 71.7201 0.2669 7.5 6.04918 9481.79 5521.92 -5800.3 -10634.1 -12009.1 4100.23 -7.41487 
105 1 65.3471 1.58233 7.5 6.0492 11902.5 6733.14 -8669.5 -8257.69 -14334.5 7109.22 -7.41467 
106 1 66.0736 2.80245 7.5 6.0492 6274.36 7038.33 8720 9373.34 23194.4 9783.97 -7.41558 
107 1 67.4935 2.78338 7.5 6.0492 12617.3 7207.74 -13923.5 -8885.93 -10454.1 829.724 -7.41442 
108 1 68.1869 1.54421 7.5 6.0492 7343.24 7414.86 2095.56 10011.8 18720.1 2695.87 -7.41525 
109 1 69.6068 1.52514 7.5 6.0492 10976.6 6531.57 -9814.33 -9932.51 -11995 -398.593 -7.41465 
110 1 70.3332 2.74525 7.5 6.0492 5771.27 7157.46 5871.02 10562.3 17554 3001.06 -7.41546 
111 1 71.7531 2.72619 7.5 6.0492 11858.2 5316.35 -13778.6 -10363.3 -8603.29 1744.58 -7.41447 
112 1 72.4465 1.48701 7.5 6.0492 7041.8 5985.69 -234.94 10711.7 14515.4 4972.21 -7.41516 
191 1 65.3802 4.04162 7.5 6.0492 14235.1 7078.8 -16697.3 -7791.13 -7162.6 6952.69 -7.41426 
192 1 66.1066 5.26174 7.5 6.0492 3489.6 6945.26 19625.8 9519.54 26181.7 14592.1 -7.41616 
193 1 67.5265 5.24267 7.5 6.0492 14741.8 7565.63 -21120 -8341.48 -4920.71 951.62 -7.41405 
194 1 68.2199 4.0035 7.5 6.0492 4599.07 7549.67 12183.1 10200.2 21292.3 6584.77 -7.41577 
195 1 69.6398 3.98443 7.5 6.0492 13296.5 6746.68 -17692.9 -9426.34 -7675.47 -1713.82 -7.41424 
196 1 70.3662 5.20454 7.5 6.0492 3180.13 7745.93 15019.8 10500.5 18473.2 6904.37 -7.41593 
197 1 71.7861 5.18548 7.5 6.0492 13902.1 5554.73 -20393.8 -9928.39 -5330.8 -498.998 -7.41413 
198 1 72.4795 3.9463 7.5 6.0492 4439.42 6848.5 8279.61 10474.7 16157.8 7528.64 -7.41559 
277 1 65.4132 6.50091 7.5 6.0492 15991.8 7383.4 -22740.7 -7459.22 -628.083 8220.23 -7.41395 
278 1 66.1396 7.72103 7.5 6.0492 1018.3 6855.13 30227 9407.89 27224.8 20722.6 -7.41673 
279 1 67.5595 7.70196 7.5 6.0492 16320.4 7932.2 -26373.8 -7886.08 -44.3067 2391 -7.41378 
280 1 68.2529 6.46279 7.5 6.0492 2058.61 7792.76 21981.4 10174.9 22170.1 11891.2 -7.41629 
281 1 69.6728 6.44372 7.5 6.0492 15188.8 7161.7 -23911.1 -8845.01 -3684.72 -2044.65 -7.41393 
282 1 70.3992 7.66383 7.5 6.0492 875.394 8435.29 23226.4 10283.5 17557.3 11798.5 -7.41636 
283 1 71.8191 7.64477 7.5 6.0492 15527.4 6052.63 -25312.1 -9325.42 -2677.9 -2223.11 -7.41388 
284 1 72.5125 6.40559 7.5 6.0492 1973.2 7964.74 16147.2 10155.4 15809.5 10399 -7.41599 
363 1 65.4462 8.96021 7.5 6.0492 17092.6 7543.92 -26721 -7364.81 4741.15 10594.1 -7.41374 
366 1 68.2859 8.92208 7.5 6.0492 -92.4491 8019.78 30759.6 9917.22 21285.7 18343.9 -7.41676 
367 1 69.7058 8.90301 7.5 6.0492 16570.9 7639.97 -28227.7 -8279.19 -322.795 -1245.96 -7.4137 
370 1 72.5456 8.86488 7.5 6.0492 -130.697 9135.94 22549.6 9790.53 13362.3 13837.5 -7.41632 
36 1 74.5598 0.228771 7.5 6.04918 8392.86 4502.6 -6888.88 10809.2 11107.8 11969.5 -7.41484 
37 1 75.9797 0.209707 7.5 6.04918 9479.33 3072.98 -10693.9 -10549.1 -7885.54 24070.9 -7.41466 
38 1 78.8194 0.171578 7.5 6.04918 8917.14 3313.93 -18315.5 9707.91 6990.89 35092.6 -7.41428 
39 1 80.2393 0.152514 7.5 6.04918 9937.44 2947.29 -24601.9 -9008.56 -4304.63 47143.1 -7.41396 
113 1 73.8664 1.46795 7.5 6.0492 10576 3858.54 -10988 -10804.2 -8262.95 11051.2 -7.41463 
114 1 74.5928 2.68806 7.5 6.0492 5830.16 5466.66 754.503 10248.4 14408 13841.1 -7.41522 
115 1 76.0127 2.669 7.5 6.0492 11620.1 2279.5 -16604.3 -10952.6 -3690.14 20467.5 -7.41437 
116 1 76.7061 1.42982 7.5 6.0492 7351.51 4120.67 -8144.18 9960.57 11835.7 24080.3 -7.41479 
117 1 78.126 1.41076 7.5 6.0492 10743.1 1907.06 -18969.7 -10353.7 -2908.43 35047.5 -7.41425 
118 1 78.8524 2.63087 7.5 6.0492 6332.43 4901.03 -12507.6 8449.06 14980.1 35624.6 -7.41457 
119 1 80.2723 2.6118 7.5 6.0492 11831.8 1498.48 -27483.8 -10045.6 4533.49 42861 -7.41383 
120 1 80.9657 1.37263 7.5 6.0492 8069.15 4766.6 -25142.7 7875.48 11064.3 45034.3 -7.41393 
121 1 82.3856 1.35356 7.5 6.0492 11238.1 3258.33 -35463 -8350.38 3400.17 51201 -7.41342 
199 1 73.8994 3.92724 7.5 6.0492 12677.2 3690.86 -17424.9 -10746.6 -5017.53 7522.71 -7.41431 
200 1 74.6258 5.14735 7.5 6.0492 3225.29 6896.41 8323.22 9683.59 15695.4 14958.1 -7.4156 
201 1 76.0457 5.12829 7.5 6.0492 13335.6 2088.68 -20858.4 -11043 -249.897 14808.7 -7.41416 
202 1 76.7391 3.88911 7.5 6.0492 4693.29 5716.94 -1147.52 9063.88 15990.7 24329.3 -7.41513 
203 1 78.159 3.87005 7.5 6.0492 12492 1120.97 -22417.2 -10975.7 2727.23 29330.1 -7.41409 
204 1 78.8855 5.09016 7.5 6.0492 3443.09 6937.55 -5837.91 7334.81 19922.4 33482.1 -7.4149 
205 1 80.3053 5.07109 7.5 6.0492 13057.4 589.865 -27684.9 -10706.7 11444.4 34712.9 -7.41383 
206 1 80.9987 3.83192 7.5 6.0492 5153.31 6808.66 -19248.1 6482.96 20960 43293.1 -7.41422 
207 1 82.4186 3.81285 7.5 6.0492 12595 1755.04 -34998.8 -9396.26 14658.5 44780.9 -7.41345 
285 1 73.9324 6.38653 7.5 6.0492 14389 3957.54 -22283.6 -10384.7 -2508.71 3372.22 -7.41406 
286 1 74.6589 7.60664 7.5 6.0492 829.052 8519.01 14863.7 9179.7 14284.2 15769.4 -7.41593 
287 1 76.0787 7.58758 7.5 6.0492 14667.5 2329.33 -23352.3 -10702.8 1588.66 8053.03 -7.41403 
288 1 76.7722 6.3484 7.5 6.0492 2008.58 7630.51 5608.34 8284.19 17022.3 23086.2 -7.41547 
289 1 78.192 6.32934 7.5 6.0492 13748.1 837.984 -23772.9 -11120.4 6357.12 21032.1 -7.41402 
290 1 78.9185 7.54945 7.5 6.0492 640.944 9153.29 456.011 6507.58 20316.1 29488.4 -7.41521 
291 1 80.3383 7.53039 7.5 6.0492 13829.3 93.4116 -25549.4 -10782.8 14775.9 24014.7 -7.41394 
292 1 81.0318 6.29121 7.5 6.0492 1978.67 9063.88 -12427.9 5362.38 25969.5 38663.6 -7.41456 
371 1 73.9654 8.84582 7.5 6.0492 15720.7 4506.68 -25442.4 -9739.31 -1049.64 -584.314 -7.41389 
374 1 76.8052 8.80769 7.5 6.0492 -340.141 9633.48 11037.3 7720.92 14432.7 21169.1 -7.41574 
375 1 78.225 8.78863 7.5 6.0492 14692.1 934.428 -23331.3 -10719.5 7297 11580.6 -7.41404 
378 1 81.0648 8.7505 7.5 6.0492 -886.544 11341.7 -6198.54 4651.84 24922.4 32259.8 -7.41488 
40 1 83.079 0.114385 7.5 6.04918 9740.5 5362.2 -37646.7 7278.08 3392.54 49017.7 -7.4133 
41 1 84.4989 0.0953212 7.5 6.04918 10519.1 6109.96 -44729.9 -6221.75 -1666.36 51338.7 -7.41293 
42 1 87.3386 0.0571927 7.5 6.04918 10492.9 9143.11 -56760.3 3898.02 946.92 36448.5 -7.41231 
43 1 88.7585 0.0381284 7.5 6.04916 10878.4 9922.14 -61118.4 -2632.32 -211.182 26766.6 -7.41208 
122 1 83.112 2.57368 7.5 6.0492 7012.1 7317.63 -33472.9 5733.47 18425.4 48616.4 -7.4135 
123 1 84.5319 2.55461 7.5 6.0492 12209 4102.96 -44469.1 -7362.35 14140 47584.1 -7.41295 
124 1 85.2253 1.31543 7.5 6.0492 8862.68 8239.17 -46664.3 4936.85 11564.8 46598.1 -7.41283 
125 1 86.6452 1.29637 7.5 6.0492 11703 7044.1 -53980.5 -4958.86 9019.8 41336.6 -7.41246 
126 1 87.3717 2.51648 7.5 6.0492 7601.49 11223.1 -53685.9 2779.81 22047.9 35974.9 -7.41246 
127 1 88.7915 2.49742 7.5 6.04915 12444.8 7577.24 -58706.4 -3166.1 21528.3 24810.4 -7.41221 
128 1 89.485 1.25824 7.5 6.04915 9386.93 11544.9 -61937.9 1641.65 12029.6 20142.3 -7.41204 
129 1 90.9048 1.23918 7.5 6.04911 11676.7 9406.65 -63857.5 -702.944 11911.7 6711.57 -7.41194 