ITEM: TIMESTEP
127
ITEM: NUMBER OF ATOMS
19496
ITEM: BOX BOUNDS pp pp pp
0.0000000000000000e+00 1.2124284700000000e+02
0.0000000000000000e+00 2.0999877200000000e+02
0.0000000000000000e+00 1.5000000000000000e+01
ITEM: ATOMS id type x y z c_csym c_2[1] c_2[2] c_2[3] c_2[4] c_2[5] c_2[6] c_3 
194 1 0.850581 8.58268 2.8501 6.02082 -165732 -148517 -657.628 -15094.1 10113.1 -1903.79 -7.41143 
195 1 0.122192 7.36629 2.84764 6.02564 -152643 -162074 1195.07 -10965.2 12317.7 -647.225 -7.41149 
196 1 0.811073 6.12698 2.84555 6.02384 -163531 -150930 49.957 -8132.3 8120.68 -1749.85 -7.41134 
197 1 0.0821337 4.91088 2.84367 6.02735 -153958 -160602 681.956 -4987.62 8290.74 -437.305 -7.41133 
198 1 0.770589 3.67135 2.84227 6.02649 -160998 -153419 372.714 -3203.02 5345.72 -1549.14 -7.41126 
199 1 0.0412735 2.45545 2.84113 6.02914 -155463 -159036 481.442 -1170.64 4103.17 -214.29 -7.41124 
200 1 0.72949 1.21581 2.84054 6.02935 -158454 -156056 451.583 -610.335 1884.42 -1294.06 -7.41122 
201 1 -1.92705e-06 2.02527e-07 2.84025 6.03075 -157249 -157335 450.472 125.199 -0.30194 0.490179 -7.41121 
366 1 2.26824 8.55898 2.85059 6.02247 -159314 -155175 1366.93 -12177.7 13888.3 -2666.71 -7.41159 
367 1 2.95715 7.31964 2.84863 6.02244 -170858 -143396 76.1122 -11165.6 9070.67 -5792.62 -7.41144 
368 1 2.22873 6.10322 2.84609 6.02444 -158668 -155908 723.69 -5175.56 10008.6 -2952.26 -7.4114 
369 1 2.91721 4.86368 2.84476 6.02482 -166548 -147973 468.705 -5199.04 6736.3 -5496.69 -7.41135 
370 1 2.18825 3.64757 2.84283 6.02629 -157995 -156617 453.146 -231.908 5876.88 -3175.14 -7.41129 
371 1 2.87648 2.40792 2.84227 6.02753 -162022 -152702 541.891 -1444.01 3665.9 -5078.65 -7.41128 
372 1 2.14715 1.19201 2.84113 6.02804 -157426 -157108 424.614 2285.26 1706.3 -3337.71 -7.41123 
537 1 5.10253 8.51299 2.8529 6.02076 -179606 -134640 501.544 -12784.9 9860.97 -9690.73 -7.4116 
538 1 4.37478 7.29617 2.84986 6.02005 -165101 -149400 427.763 -4203.35 11256.6 -4873.36 -7.4115 
539 1 5.0633 6.05662 2.84864 6.02321 -173687 -140765 887.038 -5832.53 8009.34 -9347.65 -7.4115 
540 1 4.33485 4.84018 2.84608 6.02294 -162481 -151998 173.618 1966.31 7262.78 -5560.12 -7.41137 
541 1 5.02311 3.60054 2.84556 6.02586 -167349 -147309 878.006 -943.894 5410.15 -8834.39 -7.4114 
542 1 4.29413 2.3844 2.84367 6.02514 -159932 -154655 234.436 5729.99 3136.75 -6143.47 -7.4113 
543 1 4.98233 1.14475 2.84394 6.02627 -160615 -154074 620.707 1483.01 2148.41 -8129.17 -7.41133 
708 1 6.52013 8.49 2.85467 6.01536 -172877 -141372 -330.078 -2191.21 12027.5 -6166.56 -7.4116 
709 1 7.2087 7.25045 2.85359 6.02012 -182053 -132370 1742.85 -5243.8 9119.08 -12931 -7.41171 
710 1 6.4809 6.03359 2.85058 6.01877 -168544 -145656 -497.911 5100.61 8216.86 -7285.83 -7.41146 
711 1 7.16922 4.79396 2.85011 6.02355 -174112 -140415 1589.78 740.436 7035.25 -12364.4 -7.41159 
712 1 6.44074 3.57749 2.84763 6.02204 -164083 -150270 -274.632 10165.6 4214.28 -8285.26 -7.41138 
713 1 7.12899 2.33787 2.84789 6.02458 -165715 -148906 1100.54 4393.78 4252.37 -11569.8 -7.41149 
714 1 6.39999 1.1217 2.84608 6.02372 -159486 -155057 196.504 12660.6 226.311 -9138.03 -7.41137 
879 1 9.35332 8.4454 2.85927 6.01584 -191076 -123374 3114.16 -3734.84 10055.1 -16145.9 -7.41198 
880 1 8.62628 7.22807 2.85596 6.01451 -175749 -138172 -1662.37 8979.87 8754.18 -8364.74 -7.41154 
881 1 9.31468 5.98846 2.85557 6.01985 -182039 -132550 2771.26 3379.78 8495.97 -15541.9 -7.41185 
882 1 8.58682 4.77158 2.85267 6.01872 -169709 -144385 -1225.12 15349.7 4916.38 -9732.13 -7.41147 
883 1 9.27514 3.53199 2.85292 6.02301 -172417 -142314 2005.4 8339.3 6235.09 -14696.5 -7.41171 
884 1 8.54662 2.31549 2.85057 6.02167 -163405 -150799 -452.337 19205.3 1027 -10947.6 -7.41146 
885 1 9.23504 1.076 2.85152 6.01993 -162105 -152446 974.607 10700.2 3339.22 -13588.1 -7.41159 
9774 2 0.567082 8.60569 6.54989 6.02359 -149552 -165082 1589.13 14940.5 14225.4 90.4495 -7.41159 
9775 2 0.606603 6.15039 6.55444 6.02589 -151549 -163213 877.915 8137.24 10356 -267.74 -7.4114 
9776 2 0.647084 3.69505 6.55773 6.02759 -153643 -161003 541.781 3307.99 6231.41 -635.271 -7.41128 
9777 2 0.688178 1.23965 6.55946 6.02933 -156039 -158671 451.415 709.828 2062.97 -984.684 -7.41122 
9778 2 -1.54689e-06 -2.31183e-06 6.55975 6.03077 -157281 -157376 450.348 -57.2183 0.0831648 -0.0897302 -7.41121 
9942 2 1.9848 8.62941 6.54942 6.01877 -155875 -158374 -498.249 12463 10418 -3472.87 -7.41146 
9943 2 2.71354 7.41323 6.55136 6.02325 -143953 -170505 887.313 11327.7 12100.9 -2261.46 -7.41149 
9944 2 2.0243 6.17416 6.55392 6.02296 -156364 -158203 173.431 5492.98 8447.04 -3508.28 -7.41137 
9945 2 2.75348 4.9582 6.55524 6.02489 -148003 -166488 468.78 5446.97 8129.11 -3084.67 -7.41135 
9946 2 2.06477 3.71885 6.55717 6.02629 -156650 -158038 453.038 552.481 5688.89 -3500.72 -7.41129 
9947 2 2.7942 2.50301 6.55773 6.02653 -152392 -162154 372.631 1710.66 4014.5 -3853.95 -7.41126 
9948 2 2.10585 1.26346 6.55887 6.02913 -157023 -157660 481.351 -2125.12 2237.74 -3445.66 -7.41124 
9949 2 2.83534 0.0476502 6.55859 6.02796 -157214 -157487 452.467 306.542 -5.14342 -4528 -7.41124 
10113 2 4.8212 8.6754 6.5471 6.02077 -134932 -179396 501.929 13202.7 13324.5 -3694.13 -7.4116 
10114 2 4.13128 7.43674 6.55014 6.02001 -149662 -164774 427.531 4778.54 9848.4 -7310.39 -7.4115 
10115 2 4.86042 6.22077 6.55137 6.0225 -140596 -173710 76.3655 6348.16 9553.21 -4958.42 -7.41144 
10116 2 4.17119 4.98174 6.55391 6.02445 -152022 -162553 723.534 -1358.97 7561.26 -7190.57 -7.41141 
10117 2 4.9006 3.76589 6.55445 6.02393 -146866 -167515 49.8984 1445.83 5575.44 -6156.51 -7.41134 
10118 2 4.21189 2.52656 6.55633 6.02737 -154457 -160133 681.754 -5282.69 4523.92 -6961.01 -7.41133 
10119 2 4.94136 1.31073 6.55606 6.02478 -153700 -161006 285.72 -1255.42 1593.37 -7228.59 -7.41131 
10120 2 4.25301 0.0711931 6.55716 6.02621 -157202 -157450 460.396 -6870.5 880.726 -6612.62 -7.41129 
10284 2 6.23899 8.69847 6.54532 6.0174 -141637 -172910 1115.91 3086.55 11022.5 -10890.8 -7.4117 
10285 2 6.96808 7.48247 6.54644 6.02063 -131838 -182234 -759.965 6080.63 10501.7 -6215.69 -7.41152 
10286 2 6.27818 6.24385 6.54941 6.02242 -145701 -168889 1367.22 -4222.14 9253.88 -10694 -7.41159 
10287 2 7.00754 5.02797 6.54991 6.02078 -139876 -174471 -657.212 -14.1555 6705.52 -7806 -7.41143 
10288 2 6.31832 3.78897 6.55236 6.02555 -150077 -164426 1195.13 -9514.83 6719.25 -10343.6 -7.41149 
10289 2 7.04776 2.5731 6.55212 6.02137 -148344 -166128 -203.396 -3991.6 2834.55 -9265.38 -7.41139 
10290 2 6.35905 1.33379 6.55391 6.02452 -154758 -159764 746.736 -12433.5 3499.15 -9826.3 -7.41141 
10291 2 7.08837 0.117825 6.55288 6.02241 -157037 -157510 441.807 -5511.14 -895.349 -10533 -7.41142 
10455 2 9.07655 8.74307 6.5408 6.0182 -122215 -191399 -2119.2 4851.93 11024.7 -6900.96 -7.4116 
10456 2 8.38589 7.50492 6.54402 6.02073 -138096 -176394 2480.69 -7798.72 10703.3 -13894 -7.41184 
10457 2 9.11517 6.28899 6.54447 6.01772 -131504 -182408 -1849.76 -2380.2 7420.73 -8810.72 -7.41151 
10458 2 8.4253 5.05039 6.5473 6.02247 -144300 -170422 2133.91 -14382.6 8719.45 -13453.4 -7.41171 
10459 2 9.15469 3.83447 6.5471 6.01725 -141359 -172778 -1137.59 -7549.04 3697.77 -10605.8 -7.41148 
10460 2 8.46547 2.5955 6.54941 6.02248 -150600 -164001 1413.55 -18630.7 6009.29 -12818.7 -7.41159 
10461 2 9.19477 1.37949 6.54848 6.01796 -151620 -162736 -136.48 -10425 39.5783 -12215.8 -7.41151 
10462 2 8.50604 0.14021 6.55014 6.02223 -156992 -157414 488.895 -20338 2693.28 -11982 -7.4115 
1050 1 10.7709 8.42381 2.8619 6.01023 -183591 -129707 -3372.42 13352.3 8933.58 -8883.03 -7.41161 
1051 1 11.4594 7.18424 2.86159 6.01586 -190606 -124002 4480.29 6739.89 9779.41 -18309.9 -7.41215 
1052 1 10.7322 5.96689 2.85843 6.01481 -176355 -137181 -2694.26 20940 5270.82 -10543.6 -7.41154 
1053 1 11.4207 4.72733 2.85867 6.01986 -179928 -134835 3412.33 12820.9 8051.52 -17429.4 -7.41199 
1054 1 10.6927 3.51043 2.85595 6.01895 -168900 -145212 -1588.39 26097.4 1513.69 -12065.7 -7.41154 
1055 1 11.3812 2.27098 2.85681 6.01777 -168438 -146127 1983.02 16553.6 5658.5 -16286.2 -7.41183 
1056 1 10.6527 1.05445 2.85467 6.02033 -160926 -153296 -217.974 28605.5 -2145.66 -13412.6 -7.4116 
1221 1 13.6033 8.38142 2.86787 6.01175 -199342 -115334 6734.05 10614.9 10890.6 -20659.4 -7.41251 
1222 1 12.8769 7.16355 2.86458 6.01088 -183683 -129409 -4712.89 26684.3 5339.72 -10833.2 -7.41159 
1223 1 13.5655 5.92406 2.86481 6.01612 -187932 -126864 5360.42 17906.5 9683.86 -19747.8 -7.41232 
1224 1 12.8382 4.7067 2.86187 6.01619 -175029 -138497 -3266.98 33203.3 1724.24 -12586 -7.41161 
1225 1 13.5268 3.46731 2.86263 6.01588 -175616 -138934 3528.23 22905.4 7805.85 -18586.1 -7.41212 
1226 1 12.7989 2.25038 2.86016 6.01859 -165936 -147895 -1455.31 37117.1 -1847.67 -14184.6 -7.41168 
1227 1 13.4877 1.01118 2.8615 6.01228 -162893 -151392 1415.06 25322.4 5307.5 -17166.2 -7.41194 
1392 1 15.0208 8.3617 2.87086 6.00724 -191073 -121177 -7271.44 32476.9 5199.38 -10727.5 -7.41161 
1393 1 15.7095 7.1223 2.87109 6.01233 -196039 -118704 7847.03 23219.3 11124.4 -21662.6 -7.41269 
1394 1 14.983 5.90443 2.86803 6.01266 -181675 -131118 -5499.67 40246 1720.58 -12635.7 -7.41164 
1395 1 15.6718 4.66512 2.86871 6.01293 -183416 -131225 5629.14 29536.4 9754.98 -20490.2 -7.41246 
1396 1 14.9444 3.44774 2.86603 6.01714 -171709 -141360 -3259.87 45551.6 -1755.7 -14414 -7.41173 
1397 1 15.6334 2.20861 2.86721 6.01002 -170019 -144252 3027.89 33268.5 7734.87 -19080.8 -7.41223 
1398 1 14.9053 0.991638 2.86502 6.01461 -161608 -151965 -735.102 48035 -5055.01 -16035.7 -7.41188 
1563 1 17.8527 8.3221 2.87729 6.00865 -203950 -110770 10838.3 28607.4 12371.9 -23192.5 -7.41309 
1564 1 17.127 7.1037 2.8742 6.00932 -188407 -123518 -8259.18 47001.2 1572.42 -12340.4 -7.41165 
1565 1 17.816 5.8645 2.8748 6.01006 -191168 -123631 8268.59 36081.9 11494.9 -22017.1 -7.41283 
1566 1 17.0893 4.64663 2.87202 6.01514 -178173 -134574 -5624.58 53642.9 -1810.39 -14231.1 -7.41176 
1567 1 17.7784 3.40758 2.87304 6.00815 -177497 -136953 5214.74 41250.1 9953.78 -20627.2 -7.41257 
1568 1 17.051 2.19017 2.87068 6.0127 -167410 -145779 -2598.12 57611.5 -5070.56 -15991.1 -7.41192 
1569 1 17.7404 0.951368 2.87215 6.00441 -163368 -150584 1870.3 43620.8 7794.61 -19026.8 -7.4123 
10626 2 10.4944 8.76477 6.53807 6.01802 -129663 -184779 4123.03 -11688 11888.2 -16736.9 -7.41214 
10627 2 11.2236 7.54876 6.53848 6.01387 -122302 -190903 -3581.71 -5280 7779.1 -9256.67 -7.41157 
10628 2 10.533 6.31063 6.54152 6.01875 -137194 -177383 3575.07 -19502.3 10465.3 -16218.9 -7.41199 
10629 2 11.2623 5.09464 6.54137 6.01309 -133292 -180294 -2594.03 -11721.7 4213.65 -11309.2 -7.41156 
10630 2 10.5724 3.85606 6.544 6.01853 -144930 -169605 2556.97 -25187.1 8312.56 -15495.4 -7.41184 
10631 2 11.3017 2.63999 6.5432 6.01343 -144859 -169105 -1216.49 -15953 656.918 -13200.9 -7.4116 
10632 2 10.6125 1.40104 6.54532 6.01953 -152859 -161547 1229.61 -28302 5489.64 -14559.3 -7.4117 
10633 2 11.3415 0.184794 6.54383 6.01498 -156717 -157635 374.336 -17635.6 -2700.09 -14872.8 -7.4117 
10797 2 13.3329 8.80714 6.53225 6.01021 -112900 -199747 -5863.81 -8639.01 7852.81 -9266.61 -7.41161 
10798 2 12.6415 7.56952 6.53533 6.01482 -129317 -185263 5555.8 -24749.4 11938.3 -18618.8 -7.41232 
10799 2 13.3706 6.35344 6.53523 6.00895 -124603 -188338 -4603.34 -16241.2 4441.06 -11490.9 -7.41161 
10800 2 12.6801 5.11532 6.53804 6.01426 -138215 -176208 4234.99 -31754.4 10353.7 -17821.9 -7.41214 
10801 2 13.4093 3.89918 6.53738 6.00882 -137092 -176240 -2851.53 -21827.5 996.112 -13585.9 -7.41167 
10802 2 12.7194 2.66062 6.53978 6.01494 -147452 -166880 2499.48 -36293.9 8069.64 -16815 -7.41196 
10803 2 13.4484 1.44431 6.5385 6.00993 -150069 -163853 -780.338 -24904.4 -2315.15 -15492.4 -7.41178 
10804 2 12.7591 0.20539 6.5404 6.01691 -156769 -157317 534.485 -38176 5179.46 -15599.5 -7.4118 
10968 2 14.7508 8.82697 6.52902 6.01085 -121282 -193308 8073.76 -29817.5 13145.6 -20659.8 -7.4127 
10969 2 15.4798 7.61077 6.52897 6.00512 -115595 -196332 -7154.44 -20853.5 4449.03 -11284.5 -7.41163 
10970 2 14.7885 6.37314 6.53181 6.00991 -130982 -183332 6463.25 -38071.3 12114.2 -19799.2 -7.41249 
10971 2 15.5176 5.15689 6.53129 6.00453 -128788 -183838 -5051.6 -27813.6 1116.54 -13502.2 -7.41171 
10972 2 14.827 3.91878 6.53383 6.0102 -141179 -173169 4334.92 -44148.9 10380.4 -18737.8 -7.41227 
10973 2 15.5559 2.70239 6.53277 6.0051 -142446 -170855 -2522.46 -32325.9 -2139.81 -15567.1 -7.41184 
10974 2 14.8661 1.46386 6.53493 6.01178 -151497 -162608 1867.58 -47545.2 7987.56 -17480.8 -7.41206 
10975 2 15.5947 0.247223 6.5333 6.00692 -156360 -157583 240.376 -34218.2 -5148.27 -17435.9 -7.41202 
11139 2 17.5899 8.86658 6.52279 6.00154 -106708 -204099 -10203.1 -25520.9 4299.08 -10809.2 -7.41161 
11140 2 16.8978 7.62946 6.52555 6.00569 -123442 -190728 9221.8 -44032.1 13591.9 -21439.3 -7.41288 
11141 2 17.6267 6.41308 6.52517 6.00047 -120199 -191286 -7787.05 -33604.1 1077.79 -13081.6 -7.41171 
11142 2 16.9354 5.17544 6.52774 6.00551 -134288 -179701 6734.1 -51475.7 12399.4 -20337.6 -7.41263 
11143 2 17.6642 3.95894 6.52689 6.0005 -134394 -177895 -4842.01 -39600 -2116.11 -15232 -7.41186 
11144 2 16.9737 2.72084 6.52917 6.00661 -145330 -168423 3798.76 -56385.9 10521 -19056 -7.41237 
11145 2 17.7022 1.50413 6.52782 6.00181 -148954 -164263 -1554.09 -43002.4 -5129.32 -17222.9 -7.41206 
11146 2 17.0123 0.265642 6.52972 6.00902 -156489 -157050 616.22 -58493.4 8032.57 -17603.9 -7.41213 
1734 1 19.2702 8.30456 2.88021 6.00629 -195041 -116003 -11490.2 53415.5 1337.37 -11802.2 -7.41162 
1735 1 19.9594 7.06547 2.88075 6.00744 -198813 -116186 11394.9 42619.2 13012.4 -23183.4 -7.41323 
1736 1 19.2335 5.8471 2.87794 6.01206 -184497 -127354 -8508.97 61280.6 -1953.35 -13749.9 -7.41175 
1737 1 19.9228 4.60815 2.87882 6.00506 -185056 -129539 7941.53 49011.1 11942.7 -21821.5 -7.41293 
1738 1 19.196 3.39028 2.87636 6.01108 -173438 -139088 -5031.1 66611.6 -5171.28 -15588.6 -7.41193 
1739 1 19.8855 2.15155 2.87763 6.00215 -170769 -143257 4094.5 52858.6 10221.3 -20274.4 -7.41262 
1740 1 19.158 0.93411 2.8756 6.00667 -162090 -150835 -1256.62 69047.3 -8153.48 -17304.9 -7.41217 
1905 1 22.1021 8.26805 2.88643 6.00432 -205867 -109283 14934 48865.1 14297.5 -23997.2 -7.41365 
1906 1 21.3769 7.04916 2.88364 6.00923 -190726 -120360 -11845.9 68390 -2135.26 -13059.5 -7.4117 
1907 1 22.0664 5.81035 2.88439 6.00219 -192485 -122448 11144 56540.6 13685.7 -22675.4 -7.41332 
1908 1 21.3403 4.59199 2.8819 6.00976 -179548 -132298 -7981.01 75064.4 -5304.43 -14928 -7.41191 
1909 1 22.03 3.35336 2.88298 6.00031 -178311 -136125 6861.91 61725 12404 -21189.2 -7.41298 
1910 1 21.3032 2.13547 2.88087 6.00467 -168101 -144434 -3713.3 78956.8 -8299.28 -16693.8 -7.41216 
1911 1 21.9932 0.897107 2.8823 5.9965 -163480 -150049 2290.9 64061.4 10501.7 -19549.2 -7.41264 
2076 1 23.5195 8.25282 2.88903 6.00625 -196489 -113786 -15549.1 74774.4 -2322.07 -12223.4 -7.41163 
2077 1 24.2093 7.01416 2.88968 5.99966 -199365 -115877 14735.6 63584 15166.7 -23194.3 -7.41373 
2078 1 23.4839 5.7953 2.88718 6.00723 -185541 -125652 -11370.9 82801.7 -5433.14 -14084.9 -7.41185 
2079 1 24.1739 4.55681 2.88811 5.99737 -185530 -129220 10095.8 70106 14320.2 -21777.7 -7.41336 
2080 1 23.4476 3.33844 2.88595 6.00305 -174163 -137794 -6687.57 88069.6 -8428.05 -15857.6 -7.41212 
2081 1 24.1378 2.10017 2.88717 5.99452 -171078 -142878 5068.58 73889.5 12819 -20228.2 -7.41298 
2082 1 23.4108 0.882247 2.88541 5.99846 -162282 -150096 -1708.22 90367.3 -11152.5 -17538.6 -7.41243 
2247 1 26.3515 8.21951 2.89463 5.99743 -205641 -109918 18619.2 69887.9 16376.8 -23381.8 -7.41414 
2248 1 25.6268 7.00018 2.89215 6.00502 -191098 -119468 -15106.2 89542.5 -5531.35 -13114.4 -7.41176 
2249 1 26.317 5.76183 2.89293 5.99465 -192186 -122934 13705.2 77782 15956.7 -22045.2 -7.41375 
2250 1 25.5914 4.543 2.89075 6.00174 -179917 -131529 -10092.5 96224.8 -8508.22 -14861.5 -7.41204 
2251 1 26.2818 3.30485 2.89178 5.99286 -178149 -136167 8308.25 83035.8 14861.7 -20590.8 -7.41334 
2252 1 25.5554 2.08648 2.88998 5.99661 -168393 -143667 -4681.55 100048 -11281.9 -16528.2 -7.41237 
2253 1 26.2461 0.848582 2.89127 5.98913 -163578 -149600 2634.55 85332.3 13148.4 -19030.6 -7.41293 
2418 1 27.769 8.20657 2.89675 6.00312 -196068 -113814 -19086.4 95374.7 -5588.07 -12057.8 -7.41164 
2420 1 27.7345 5.7491 2.89524 5.99987 -185147 -125596 -13830.9 103463 -8525.85 -13754.2 -7.41193 
2422 1 27.6993 3.29227 2.89427 5.99506 -173947 -137521 -8082.38 108676 -11324.9 -15378.7 -7.41227 
2424 1 27.6638 0.836085 2.8939 5.99054 -162445 -149563 -2050.82 110932 -13839 -16933.9 -7.41266 
11310 2 19.0079 8.88423 6.51942 6.0017 -115989 -197965 12456.9 -49481.7 14792.4 -22749.9 -7.41329 
11311 2 19.7366 7.6677 6.51918 5.99688 -111920 -198491 -11001 -39201.6 930.948 -12432.3 -7.41168 
11312 2 19.0445 6.43055 6.52168 6.00103 -127234 -186519 9656.94 -58234.8 14118.8 -21623.5 -7.41302 
11313 2 19.7732 5.21393 6.52105 5.99636 -126266 -185045 -7694.26 -46587.6 -2193.55 -14608.2 -7.41184 
11314 2 19.082 3.97628 6.52335 6.00159 -138855 -174772 6306.35 -64652.8 12752.8 -20332.3 -7.41273 
11315 2 19.8104 2.75947 6.52228 5.99702 -141159 -171204 -3939.82 -51484.8 -5199.02 -16655 -7.41207 
11316 2 19.1199 1.5214 6.52429 6.00349 -150582 -162803 2597.39 -68314.2 10730.5 -18889.6 -7.41244 
11317 2 19.848 0.304316 6.52274 5.99899 -156084 -157205 61.0975 -53634 -7928.46 -18548.9 -7.41233 
11481 2 21.8474 8.92078 6.51345 5.99351 -103798 -205146 -14613.6 -44431.1 712.918 -11633.4 -7.41161 
11482 2 21.1545 7.68411 6.5158 5.99683 -120408 -193049 13036.6 -64280.1 15538.2 -22598.7 -7.41343 
11483 2 21.883 6.46733 6.51538 5.9925 -118315 -191677 -11009.1 -53139.9 -2329.75 -13788.8 -7.4118 
11484 2 21.191 5.23015 6.51762 5.99684 -132255 -180964 9334.01 -72153.8 14671.5 -21314.2 -7.41311 
11485 2 21.9194 4.01322 6.51682 5.99264 -133347 -177937 -6858.23 -59591.3 -5311.02 -15838.1 -7.41203 
11486 2 21.2282 2.77559 6.51886 5.99816 -144403 -168909 5167.76 -77343.9 13122.2 -19894.6 -7.41278 
11487 2 21.9562 1.55841 6.51762 5.99396 -148536 -164031 -2355.64 -63206.2 -8086.97 -17762.3 -7.41232 
11488 2 21.2657 0.320381 6.51938 6.00079 -156361 -156607 744.898 -79665.8 10957.7 -18351.9 -7.41246 
11652 2 23.2654 8.93611 6.51022 5.99302 -113679 -199345 16781.7 -69666.4 16654.9 -23258.4 -7.41386 
11653 2 23.9936 7.71916 6.50999 5.98929 -110706 -197906 -14699.8 -59210.2 -2495.42 -12840 -7.41171 
11654 2 23.3009 6.48245 6.51211 5.99247 -125811 -187165 12800.1 -78851.8 16267.6 -21998.3 -7.41351 
11655 2 24.0291 5.26537 6.51156 5.98875 -125578 -184363 -10229.1 -67059.6 -5434.03 -14851.9 -7.41196 
11656 2 23.3372 4.02818 6.51355 5.99316 -138153 -174915 8255.52 -85555.9 15188 -20616.1 -7.41315 
11657 2 24.0651 2.8109 6.51263 5.98941 -140879 -170614 -5307.69 -72217.7 -8233.84 -16759.3 -7.41227 
11658 2 23.3739 1.57329 6.51441 5.99516 -150324 -162515 3348.54 -89440.9 13451.5 -19127.3 -7.41278 
11659 2 24.1015 0.355732 6.51307 5.99128 -156029 -156795 -138.021 -74610.4 -10746.6 -18553 -7.41261 
11823 2 26.105 8.96947 6.50495 5.98658 -103737 -203338 -18667.2 -64496.4 -2671.14 -11807.8 -7.4116 
11824 2 25.4115 7.73321 6.50689 5.98857 -119703 -192825 16608 -84563 17539.2 -22381.3 -7.41394 
11825 2 26.1395 6.51597 6.50658 5.98547 -118429 -190079 -13958.1 -73697.6 -5545.96 -13753.5 -7.41186 
11826 2 25.4469 5.27922 6.50847 5.98862 -131887 -180556 11769.3 -92718.3 16918.4 -21050.4 -7.41354 
11827 2 26.1747 4.06181 6.50784 5.98549 -133474 -176710 -8705.75 -80462.6 -8343.45 -15609.8 -7.41218 
11828 2 25.4829 2.82462 6.50959 5.98995 -144280 -168274 6468.54 -98186.3 15616.9 -19625.3 -7.41314 
11829 2 26.2103 1.60697 6.50859 5.98671 -148620 -163234 -3107.17 -84420 -10927.2 -17369.2 -7.41253 
11830 2 25.5191 0.369395 6.51013 5.99259 -156382 -155983 912.488 -100766 13699.6 -18116.9 -7.41274 
11994 2 27.523 8.9825 6.50205 5.98523 -114071 -197983 20653.8 -89252.5 18490 -22460.5 -7.41436 
11996 2 27.5574 6.52875 6.50369 5.98462 -126248 -185842 15607.6 -98824.5 18310.8 -21195.2 -7.41395 
11998 2 27.5925 4.07441 6.505 5.98528 -138456 -173700 10006.5 -105785 17441.7 -19844.8 -7.41351 
12000 2 27.6281 1.61948 6.50583 5.98724 -150572 -161669 4051.06 -109872 15920.9 -18422.5 -7.41308 
2417 1 28.493 9.42638 2.89918 5.99561 -210880 -104786 22688.4 75410.7 17311.4 -23247.5 -7.41457 
2419 1 28.4595 6.96839 2.89741 5.99237 -198218 -117235 17586.6 84717.5 17301.7 -21999.5 -7.41415 
2421 1 28.4251 4.51108 2.8961 5.99011 -184735 -130037 11912.1 91375.8 16611.6 -20645.7 -7.41371 
2423 1 28.3902 2.05448 2.89536 5.98743 -170658 -142930 5865.93 95107 15270.3 -19200.7 -7.41326 
2588 1 29.9104 9.41439 2.90097 6.00159 -200028 -108778 -23207.5 100040 -5598.74 -10948.9 -7.4115 
2589 1 30.6013 8.1764 2.90153 5.99044 -203303 -112312 21638.6 90598.1 18354.6 -21655.7 -7.41455 
2590 1 29.8769 6.95667 2.89938 5.99787 -189807 -120258 -17798 109513 -8475.04 -12576.4 -7.41179 
2591 1 30.5678 5.71881 2.90009 5.98771 -190685 -124524 15776.3 98703.6 18061.4 -20406.1 -7.41409 
2592 1 29.8427 4.49957 2.89824 5.99385 -179136 -131895 -11807.6 116252 -11273 -14136.5 -7.41215 
2593 1 30.5338 3.2619 2.89915 5.98602 -177356 -136904 9454.05 104030 17098.1 -19076.7 -7.41362 
2594 1 29.8078 2.04308 2.89766 5.98882 -168042 -143442 -5438.24 119902 -13856.2 -15634 -7.41254 
2595 1 30.4993 0.805653 2.89877 5.98255 -163426 -149285 2874.08 106184 15527.9 -17677.5 -7.41315 
2759 1 32.7424 9.38578 2.90528 5.98901 -207388 -108347 25764.6 95471.9 19121.6 -21039.3 -7.41495 
2760 1 32.0187 8.16563 2.90315 5.9962 -193673 -115666 -21893.9 114338 -8358.52 -11359.7 -7.41165 
2761 1 32.7099 6.92795 2.90375 5.98581 -195627 -119865 19802.1 104900 19210.9 -19894.5 -7.41447 
2762 1 31.9853 5.70829 2.90189 5.99286 -183676 -126819 -15752.7 122472 -11129 -12841 -7.412 
2763 1 32.6767 4.47076 2.90264 5.98361 -183064 -131470 13296.4 111726 18624.7 -18679.9 -7.41398 
2764 1 31.9513 3.25154 2.90111 5.9875 -173218 -137874 -9145.07 127770 -13751.8 -14263.2 -7.4124 
2765 1 32.6429 2.01421 2.90204 5.98112 -170063 -143172 6444.99 115536 17400.3 -17406.4 -7.41348 
2766 1 31.9169 0.795378 2.90089 5.98317 -162373 -149000 -2273.18 129885 -16087.5 -15632.5 -7.41284 
2930 1 34.1599 9.37587 2.90657 5.99492 -196510 -111813 -26027.3 117885 -8183.52 -10134.2 -7.41148 
2931 1 34.8515 8.13838 2.90707 5.98435 -199614 -115969 23897.5 109885 20067.6 -19139.8 -7.41485 
2932 1 34.1274 6.91833 2.90521 5.99119 -187302 -122428 -19820.7 127384 -10901 -11524 -7.41183 
2933 1 34.819 5.68096 2.90582 5.98167 -188108 -126906 17297.5 118147 19852.1 -18037.1 -7.41434 
2934 1 34.0942 4.46135 2.90426 5.98653 -177550 -133044 -13067.4 134163 -13532.6 -12858.7 -7.41223 
2935 1 34.786 3.22415 2.90502 5.97951 -175927 -137946 10268.3 123542 18980.1 -16885.3 -7.41382 
2936 1 34.0605 2.00494 2.90382 5.98177 -167499 -143555 -5962.46 137855 -15948.6 -14144 -7.41268 
2937 1 34.7525 0.76795 2.90473 5.97671 -163430 -149028 3002.82 125666 17519.1 -15690.3 -7.41331 
3101 1 36.9924 9.35 2.91007 5.98334 -202411 -113205 27987 113684 20645.9 -18175.1 -7.41522 
3102 1 36.2689 8.12958 2.90821 5.98989 -190033 -118854 -23924.2 130956 -10600.1 -10214.7 -7.41166 
3103 1 36.9609 6.89239 2.9087 5.9802 -192076 -123213 21370.1 123259 20787.4 -17180.4 -7.41471 
3104 1 36.2365 5.67242 2.90712 5.98592 -181244 -128860 -17111.8 139156 -13213 -11452.6 -7.41205 
3105 1 36.9286 4.43536 2.90773 5.97805 -181032 -133423 14250.4 130200 20267.5 -16144.6 -7.41417 
3106 1 36.2035 3.21579 2.90648 5.98071 -171944 -138760 -9866.79 144428 -15677 -12644.2 -7.4125 
3107 1 36.8957 1.97889 2.90722 5.97502 -169361 -143668 6811.94 134011 19129.2 -15074.4 -7.41363 
3108 1 36.1701 0.759672 2.90634 5.97669 -162447 -148712 -2378.92 146539 -17860.1 -13796.3 -7.41298 
11995 2 28.2507 7.76507 6.50196 5.98274 -111689 -195226 -17943.8 -79543.1 -5635.5 -12584.1 -7.41174 
11997 2 28.285 5.31118 6.50334 5.98209 -126504 -182174 -12450.1 -87784.3 -8404.17 -14363.8 -7.41206 
11999 2 28.3199 2.85665 6.50431 5.98265 -141482 -169159 -6518.12 -93271.7 -11027.9 -16060.1 -7.41242 
12001 2 28.3551 0.401435 6.50477 5.98441 -156281 -156096 -346.163 -95780.2 -13365.4 -17671.4 -7.41283 
12165 2 30.3626 9.01274 6.49772 5.98076 -105942 -199294 -22084.5 -84385.3 -5693.26 -11377.9 -7.41159 
12166 2 29.6686 7.77684 6.49927 5.98123 -120891 -190395 19663.2 -103722 19369.8 -21054.8 -7.41436 
12167 2 30.396 6.55909 6.49917 5.97951 -120183 -186939 -16437.6 -94062.3 -8408.46 -13062.4 -7.41191 
12168 2 29.7028 5.32273 6.5007 5.98119 -132991 -178701 13855.2 -112213 18925 -19788.2 -7.4139 
12169 2 30.4301 4.10483 6.50031 5.9793 -134592 -174523 -10267.2 -101114 -11041.4 -14673.4 -7.41228 
12170 2 29.7376 2.86806 6.50176 5.98243 -145001 -166997 7601.18 -117850 17806.5 -18458.3 -7.41344 
12171 2 30.4646 1.64992 6.50103 5.98029 -149155 -161982 -3765.31 -105211 -13462.2 -16210.9 -7.4127 
12172 2 29.7727 0.412796 6.50233 5.98498 -156705 -155191 1101.43 -120515 16080.1 -17073.2 -7.41298 
12336 2 31.7806 9.02359 6.49524 5.97852 -116534 -194254 23837 -107412 20108.6 -20642.3 -7.41477 
12337 2 32.5077 7.80564 6.49537 5.97751 -114614 -190768 -20568.7 -99163.4 -8357.08 -11738.2 -7.41175 
12338 2 31.8139 6.56967 6.49674 5.97777 -128125 -182875 17910.8 -117293 20071.2 -19465.5 -7.4143 
12339 2 32.541 5.3516 6.49662 5.97665 -128584 -178914 -14250.8 -107755 -10969.5 -13249.3 -7.41212 
12340 2 31.8479 4.11521 6.49796 5.97825 -139679 -171623 11453.6 -124489 19353.3 -18233.4 -7.41381 
12341 2 32.5748 2.89696 6.49754 5.97695 -142660 -167053 -7517.1 -113427 -13438.6 -14695.5 -7.41254 
12342 2 31.8823 1.6602 6.49879 5.98005 -151175 -160346 4660.32 -128719 17995.8 -16954.7 -7.41332 
12343 2 32.6088 0.441696 6.49801 5.97844 -156630 -155176 -556.055 -116075 -15629.1 -16079.5 -7.41299 
12507 2 34.6201 9.05093 6.49194 5.97626 -110225 -193604 -24753.6 -103258 -8249.19 -10418 -7.41157 
12508 2 33.9256 7.81532 6.49313 5.97506 -123990 -186447 22076 -121098 20896.4 -18896.5 -7.4147 
12509 2 34.6525 6.59707 6.49327 5.97469 -123419 -182585 -18372.4 -113132 -10817.5 -11820.2 -7.41194 
12510 2 33.9588 5.36104 6.49447 5.9748 -135178 -175583 15507.3 -129807 20571.1 -17764.1 -7.41419 
12511 2 34.6855 4.14265 6.49434 5.97428 -136947 -171359 -11498.4 -120450 -13301.8 -13163.4 -7.41235 
12512 2 33.9925 2.90625 6.4955 5.97583 -146292 -164874 8516.97 -135609 19587.2 -16592.7 -7.41367 
12513 2 34.7189 1.68765 6.49504 5.97505 -150338 -160203 -4312.72 -124676 -15581.4 -14452.1 -7.41281 
12514 2 34.0265 0.45093 6.49609 5.97816 -157173 -154234 1297.25 -138329 18011 -15386.4 -7.41316 
12678 2 36.038 9.05981 6.48989 5.97308 -120858 -188835 26265.5 -123594 21421 -18107.1 -7.41508 
12679 2 36.7645 7.84135 6.49025 5.97357 -119163 -185071 -22546.6 -117213 -10592 -10413.6 -7.41175 
12680 2 36.0703 6.60566 6.4913 5.9721 -131395 -178726 19668 -133595 21473.2 -17074 -7.41457 
12681 2 36.7968 5.3871 6.49143 5.97247 -131977 -174768 -15615.9 -125978 -13064.5 -11647 -7.41216 
12682 2 36.1033 4.15104 6.49248 5.97235 -142087 -168657 12572 -140982 20861.3 -16009.2 -7.41403 
12683 2 36.8296 2.93232 6.49231 5.9722 -144774 -164480 -8296.09 -131860 -15397.7 -12831.3 -7.41261 
12684 2 36.1366 1.69593 6.49329 5.97389 -152441 -158732 5161.93 -145367 19627.7 -14916.5 -7.4135 
12685 2 36.8627 0.476992 6.49278 5.97298 -157250 -154144 -761.719 -134561 -17464.7 -13972 -7.41311 
3272 1 38.4099 9.34192 2.91092 5.98904 -191574 -116225 -27992.4 133216 -10238.7 -8935.53 -7.41148 
3273 1 39.1022 8.10493 2.91132 5.97918 -194859 -120563 25443.5 127071 21446.1 -16142.5 -7.41506 
3274 1 38.3783 6.88463 2.90971 5.98527 -183812 -125496 -21195.8 142702 -12807.2 -10071.8 -7.41186 
3275 1 39.0706 5.64772 2.91019 5.97657 -184900 -129725 18309.7 135419 21272.7 -15216.7 -7.41451 
3276 1 38.3461 4.42782 2.90889 5.98005 -175598 -134648 -13894.3 149569 -15288.5 -11163.8 -7.4123 
3277 1 39.0385 3.19104 2.90948 5.97388 -174451 -139220 10781.4 140816 20463.2 -14264 -7.41396 
3278 1 38.3133 1.97149 2.90854 5.9756 -166939 -143958 -6269.41 153217 -17559.3 -12218.8 -7.41278 
3279 1 39.006 0.734894 2.90925 5.97135 -163347 -148770 3037.66 142985 19087.4 -13287.6 -7.41341 
3443 1 41.243 9.31845 2.91369 5.97872 -196520 -118750 29456.6 129452 21847 -14956.4 -7.41541 
3444 1 40.5197 8.09784 2.91205 5.98437 -185402 -122990 -25254.2 144808 -12331.7 -8736.42 -7.41167 
3445 1 41.2123 6.86111 2.91243 5.97565 -187788 -127068 22378 139127 22008.9 -14134.2 -7.41486 
3446 1 40.4881 5.6409 2.91107 5.97972 -178154 -131391 -17969.9 153045 -14802.8 -9725.98 -7.41209 
3447 1 41.1808 4.40426 2.91154 5.97274 -178364 -135509 14835 146084 21529.2 -13290.5 -7.41429 
3448 1 40.456 3.1844 2.91051 5.97493 -170558 -139833 -10287.6 158381 -17129.9 -10680.6 -7.41257 
3449 1 41.1488 1.94789 2.91108 5.97018 -168507 -144187 6999.76 149913 20453.6 -12430.7 -7.41373 
3450 1 40.4236 0.728334 2.91042 5.97127 -162486 -148346 -2384.22 160415 -19185.6 -11607.1 -7.41308 
3614 1 42.6605 9.31193 2.91417 5.98402 -185824 -121362 -29233.3 145469 -11802.7 -7463.35 -7.41148 
3615 1 43.3535 8.07539 2.91447 5.97512 -189418 -125406 26401.9 141404 22492.3 -12923.8 -7.4152 
3616 1 42.6298 6.8549 2.91306 5.97971 -179729 -129140 -22030.2 155054 -14238.8 -8348.44 -7.41189 
3617 1 43.3227 5.61841 2.91341 5.97195 -181298 -132941 18909.7 149863 22338.7 -12183.5 -7.41463 
3618 1 42.5983 4.39828 2.91231 5.97459 -173090 -136707 -14361.5 161910 -16590.9 -9200.95 -7.41235 
3619 1 43.2913 3.16188 2.91275 5.96916 -172562 -140602 11054.6 155316 21570.8 -11431.8 -7.41405 
3620 1 42.5664 1.94205 2.912 5.97057 -166116 -144426 -6396.67 165661 -18740.9 -10027.4 -7.41285 
3621 1 43.2595 0.705793 2.91253 5.96718 -163366 -148478 3000.3 157536 20258.3 -10669.7 -7.41348 
3785 1 45.4943 9.29042 2.91633 5.97508 -189814 -124749 30337.5 142260 22740.8 -11608.7 -7.41553 
3786 1 44.771 8.0697 2.91486 5.97987 -180056 -127705 -26027.1 155612 -13611.6 -7044.2 -7.41168 
3787 1 45.4642 6.83337 2.91513 5.97154 -182953 -131287 22953.6 152074 22905 -10967.1 -7.41496 
3788 1 44.7402 5.61299 2.91395 5.97456 -174663 -134516 -18434.1 163944 -15962.6 -7794.53 -7.41213 
3789 1 45.4334 4.37672 2.91427 5.96837 -175489 -138034 15139.5 159104 22448 -10316.9 -7.41437 