ITEM: TIMESTEP
0
ITEM: NUMBER OF ATOMS
19496
ITEM: BOX BOUNDS pp pp pp
0.0000000000000000e+00 1.2124284700000000e+02
0.0000000000000000e+00 2.0999877200000000e+02
0.0000000000000000e+00 1.5000000000000000e+01
ITEM: ATOMS id type x y z c_csym c_2[1] c_2[2] c_2[3] c_2[4] c_2[5] c_2[6] c_3 
194 1 0.796 8.588 3 6.02438 -165217 -182442 -153851 -10977.6 17279.2 -2042.39 -7.40787 
195 1 0.075 7.368 3 6.02216 -155866 -196070 -154281 -9042.42 17932.8 -171.068 -7.40827 
196 1 0.771 6.133 3 6.02109 -153069 -151676 -156012 4407.07 13062.8 -1881.66 -7.40765 
197 1 0.05 4.912 3 6.02501 -151203 -158901 -156650 8572.64 11975.6 -75.463 -7.40794 
198 1 0.746 3.677 3 6.02088 -149875 -151824 -157573 5960.26 8168.47 -1789.25 -7.40789 
199 1 0.025 2.456 3 6.02501 -153010 -156832 -158092 8520.05 5918.21 -26.7461 -7.40785 
200 1 0.721 1.221 3 6.02088 -147103 -156302 -158432 5584.49 2743.27 -1659.55 -7.40762 
201 1 0 0 3 6.0265 -149929 -148141 -158552 -1610.03 -10.5645 26.5095 -7.40748 
366 1 2.214 8.574 3 6.02597 -146526 -161293 -152537 12288.2 20600.1 -3985.45 -7.40764 
367 1 2.91 7.339 3 6.02444 -154941 -151633 -154348 7175.8 15284.4 -7441.38 -7.40762 
368 1 2.189 6.118 3 6.02246 -137628 -145126 -155362 -3919.48 14712.3 -4362.96 -7.40741 
369 1 2.886 4.883 3 6.02426 -183779 -119590 -156207 6462.07 10828.9 -7243.48 -7.40787 
370 1 2.164 3.662 3 6.0234 -129120 -129597 -157193 8046.22 8660.23 -4632.43 -7.4071 
371 1 2.861 2.427 3 6.02425 -133587 -125797 -157385 6482.99 5752.44 -7115.94 -7.40707 
372 1 2.139 1.206 3 6.02194 -132041 -136473 -158069 13357.2 2794.05 -4864.96 -7.40704 
537 1 5.05 8.545 3 6.02332 -147136 -153174 -151615 -12184.7 17302.5 -12968.8 -7.40776 
538 1 4.328 7.325 3 6.02159 -125646 -134805 -153435 -21771.2 17135 -8083.79 -7.4072 
539 1 5.025 6.089 3 6.02159 -137001 -123491 -153802 -30712.3 13316.9 -12663.9 -7.40717 
540 1 4.303 4.869 3 6.02193 -184004 -160669 -155740 -4508.52 11218.2 -8747.2 -7.4081 
541 1 5 3.634 3 6.02152 -143875 -139926 -155581 -9798.09 8574.08 -12191.1 -7.40727 
542 1 4.279 2.413 3 6.023 -144578 -159793 -156897 11780.5 5350.25 -9319.52 -7.40768 
543 1 4.975 1.178 3 6.023 -153701 -161463 -156618 -1850.15 3316.03 -11717.5 -7.40754 
708 1 6.468 8.531 3 6.023 -140234 -163729 -150890 13758.6 19238.1 -11195.1 -7.4082 
709 1 7.164 7.296 3 6.02243 -155354 -149462 -150563 -336.875 15582.2 -17870.5 -7.4081 
710 1 6.443 6.075 3 6.02597 -143944 -160860 -153510 15674.9 13443.9 -12247.8 -7.40788 
711 1 7.139 4.84 3 6.02597 -152686 -152545 -152602 4358.16 11281.4 -17529.8 -7.40795 
712 1 6.418 3.619 3 6.02243 -146007 -157782 -155068 10577.2 7581.67 -13231.1 -7.40783 
713 1 7.114 2.384 3 6.02257 -147905 -154171 -154147 2435.93 6389.47 -16864 -7.40819 
714 1 6.393 1.163 3 6.02122 -151735 -163640 -155641 16435.5 1722.97 -14171.8 -7.4076 
879 1 9.303 8.502 3 6.023 -154471 -151813 -146200 1493.1 17683.9 -22874.2 -7.40835 
880 1 8.582 7.281 3 6.02152 -135437 -148730 -150900 1870.88 15083.5 -15279.8 -7.40755 
881 1 9.279 6.046 3 6.02193 -193098 -153088 -148716 -15241 13965.3 -22386.1 -7.40852 
882 1 8.557 4.826 3 6.02159 -127861 -132493 -152640 -19377.1 9393.41 -16605.9 -7.40724 
883 1 9.254 3.59 3 6.02159 -133979 -127150 -150697 -32943.7 9555.13 -21690.6 -7.40736 
884 1 8.532 2.37 3 6.02332 -137262 -162854 -153503 -1211.77 3622.69 -17799.7 -7.40762 
885 1 9.229 1.135 3 6.02446 -133751 -135459 -152153 -4198.3 4536.92 -20761.9 -7.40743 
9774 2 0.622 8.603 6.4 6.0244 -136463 -171026 -152718 9019.08 20723 -1134.57 -7.40775 
9775 2 0.647 6.147 6.4 6.0265 -130249 -136408 -155569 -8344.18 14877.2 -1269.68 -7.40726 
9776 2 0.672 3.691 6.4 6.02515 -132807 -134507 -157476 -9946.35 8834.84 -1443.57 -7.40703 
9777 2 0.697 1.235 6.4 6.0243 -179130 -127164 -158418 -8243.89 2880.39 -1571.83 -7.40781 
9778 2 0 0 6.4 6.02539 -149683 -147893 -158556 10949.1 11.5259 -22.4075 -7.40748 
9942 2 2.04 8.617 6.4 6.02457 -154811 -147461 -153524 -9484.63 17362.3 -5429.23 -7.40819 
9943 2 2.761 7.396 6.4 6.02243 -143410 -160775 -153854 -2509.19 17616.2 -5097.01 -7.4079 
9944 2 2.065 6.161 6.4 6.02322 -153236 -149818 -155686 -9828.76 13207.6 -5326.52 -7.40794 
9945 2 2.786 4.94 6.4 6.02152 -145825 -160789 -156216 -4420.93 11796.1 -5653.49 -7.40742 
9946 2 2.09 3.705 6.4 6.02325 -158498 -186470 -157289 7854.88 8352 -5244.08 -7.40794 
9947 2 2.811 2.485 6.4 6.02248 -139694 -143931 -157513 41380.8 5736.74 -6202.51 -7.40714 
9948 2 2.114 1.249 6.4 6.02002 -181807 -122433 -158061 24075.9 2963.94 -5113.06 -7.40756 
9949 2 2.836 0.029 6.4 6.02297 -134403 -134003 -157913 24715.5 -172.703 -6650.33 -7.40708 
10113 2 4.876 8.646 6.4 6.02426 -173937 -131226 -151587 -4636.76 19847.5 -8603.64 -7.40802 
10114 2 4.179 7.411 6.4 6.02246 -148949 -134040 -153389 3081.6 15555.6 -10833.2 -7.40753 
10115 2 4.9 6.19 6.4 6.023 -141379 -162084 -154224 -3478.14 14161.1 -9602.32 -7.408 
10116 2 4.204 4.955 6.4 6.02243 -155670 -150074 -155402 -9803.52 11060.3 -10598.7 -7.40758 
10117 2 4.925 3.734 6.4 6.02444 -145373 -159104 -156000 -5567.71 8233.59 -10369.7 -7.40774 
10118 2 4.229 2.499 6.4 6.02597 -153097 -153157 -156672 -11516.3 6078.88 -10262.3 -7.40749 
10119 2 4.95 1.278 6.4 6.02434 -147331 -156550 -156775 -745.733 2363.24 -11098.3 -7.40769 
10120 2 4.254 0.043 6.4 6.02389 -147025 -162829 -157266 -8982.42 512.542 -9810.92 -7.40817 
10284 2 6.293 8.66 6.4 6.02426 -188092 -117396 -150178 -13173.4 17746.9 -16119.3 -7.40811 
10285 2 7.015 7.439 6.4 6.0234 -124899 -135527 -151916 -97.4077 16073.2 -12640 -7.4073 
10286 2 6.318 6.204 6.4 6.02332 -145169 -155134 -152463 3935.79 13821.8 -15823.8 -7.40771 
10287 2 7.04 4.984 6.4 6.02159 -126879 -133350 -153851 31924.8 10304.1 -13936.2 -7.40717 
10288 2 6.343 3.748 6.4 6.02159 -134368 -126076 -154218 20947.1 9118.34 -15404.6 -7.40715 
10289 2 7.065 2.528 6.4 6.02332 -137344 -160558 -154929 14867.7 4464.08 -15094.6 -7.40778 
10290 2 6.368 1.293 6.4 6.02246 -142478 -140599 -155271 1465.36 3897.79 -14929.6 -7.40738 
10291 2 7.089 0.072 6.4 6.02152 -141025 -132505 -154913 10667.7 -1083.96 -16015.5 -7.40752 
10455 2 9.129 8.689 6.4 6.02457 -139886 -162270 -149125 -270.792 17602.9 -15204.4 -7.40851 
10456 2 8.433 7.454 6.4 6.02243 -153372 -150107 -148628 -12452.9 16225.9 -20874.4 -7.40843 
10457 2 9.154 6.233 6.4 6.02597 -145890 -160891 -151237 -288.594 12123 -16889.2 -7.40781 
10458 2 8.458 4.998 6.4 6.02444 -153087 -152500 -150911 -16095 11983.1 -20277.8 -7.40805 
10459 2 9.179 3.777 6.4 6.02243 -147863 -158032 -152410 1090.3 6481.32 -18419 -7.40778 
10460 2 8.483 2.542 6.4 6.02169 -148508 -155444 -152517 -14411.4 7135.96 -19609.3 -7.4081 
10461 2 9.204 1.321 6.4 6.02297 -139961 -143319 -152762 14561.2 867.672 -19602.8 -7.40754 
10462 2 8.507 0.086 6.4 6.02424 -134373 -134239 -153395 -10908.1 1889.86 -18776.9 -7.40745 
1050 1 10.721 8.488 3 6.02426 -125850 -134205 -148142 18299.3 16348.3 -17391.6 -7.40765 
1051 1 11.418 7.253 3 6.0234 -138464 -122974 -143777 -1912.17 16236.9 -26966.9 -7.40791 
1052 1 10.696 6.032 3 6.02426 -174901 -128952 -150116 18003.9 10862.9 -19108.1 -7.40824 
1053 1 11.393 4.797 3 6.02246 -146372 -138253 -146345 -14357.9 12423.2 -26170.4 -7.40795 
1054 1 10.672 3.576 3 6.02444 -145537 -161338 -150881 18418.9 5318.14 -20744 -7.40783 
1055 1 11.368 2.341 3 6.02597 -154683 -155134 -148386 1137.71 7878.39 -25258.6 -7.40774 
1056 1 10.647 1.12 3 6.02238 -147113 -165389 -150910 19625.2 -223.294 -22127.6 -7.4083 
1221 1 13.557 8.459 3 6.02457 -156924 -151148 -137931 -2245.18 18445.2 -31083.8 -7.40886 
1222 1 12.836 7.238 3 6.02152 -141134 -161502 -146900 17462.8 11979.9 -21083.6 -7.40852 
1223 1 13.532 6.003 3 6.02457 -152230 -153354 -140996 -1049.83 15040.8 -30339.2 -7.40888 
1224 1 12.811 4.782 3 6.02152 -143644 -161872 -147918 15703.2 6596.5 -22987 -7.40813 
1225 1 13.507 3.547 3 6.02303 -157514 -187715 -143597 -18899.5 11005.7 -29327.1 -7.40904 
1226 1 12.786 2.327 3 6.02219 -148552 -159383 -148096 -15975.5 1211.46 -24678.2 -7.40787 
1227 1 13.482 1.091 3 6.01874 -149675 -165740 -145608 -41152 6399.13 -28038.2 -7.4084 
1392 1 14.975 8.445 3 6.02457 -136562 -147248 -144200 8055.44 12571.8 -22187.4 -7.40808 
1393 1 15.672 7.21 3 6.02172 -186067 -122343 -134711 -3064.65 17457.4 -33988.6 -7.40904 
1394 1 14.95 5.989 3 6.02441 -127864 -132338 -145168 19909.1 7363.35 -24399.8 -7.40783 
1395 1 15.647 4.754 3 6.02303 -135446 -127094 -137845 -3693.03 14025.2 -32970.2 -7.40827 
1396 1 14.925 3.533 3 6.02584 -129877 -131686 -145079 22322 2110.86 -26516.6 -7.40772 
1397 1 15.622 2.298 3 6.02447 -133142 -129262 -140512 857.586 9928.31 -31699.9 -7.40808 
1398 1 14.9 1.077 3 6.02431 -130984 -135938 -144272 25673.4 -3018.32 -28327.7 -7.40836 
1563 1 17.811 8.416 3 6.02444 -139378 -124977 -127494 -3313.44 19634.7 -37142.8 -7.40901 
1564 1 17.089 7.195 3 6.02172 -174168 -130595 -141946 20577 7848.39 -25351.8 -7.4086 
1565 1 17.786 5.96 3 6.02457 -147874 -140287 -131315 -15765 16644.6 -36128.8 -7.40885 
1566 1 17.065 4.739 3 6.02013 -141073 -165009 -142082 19488.4 2880.37 -27601.4 -7.40848 
1567 1 17.761 3.504 3 6.0246 -162096 -188393 -134618 -21018.7 13146.7 -34836.2 -7.40915 
1568 1 17.04 2.284 3 6.02072 -145290 -158895 -141285 -13771.3 -2071.66 -29659.7 -7.40883 
1569 1 17.736 1.048 3 6.02306 -144350 -132006 -137395 -27238.2 9003.68 -33307.9 -7.40858 
10626 2 10.547 8.703 6.4 6.02332 -148177 -153898 -143723 2610.41 18426.1 -25449.1 -7.40824 
10627 2 11.269 7.483 6.4 6.0202 -173365 -132309 -148463 35253.2 13360.9 -19080.6 -7.40808 
10628 2 10.572 6.247 6.4 6.02248 -147632 -138275 -146434 31495.8 14636.6 -25005.8 -7.4078 
10629 2 11.293 5.027 6.4 6.02303 -150217 -194955 -149766 18848.5 7924.27 -20947.6 -7.40846 
10630 2 10.597 3.792 6.4 6.02152 -153237 -154914 -148469 -14748.4 10415.4 -24293 -7.40788 
10631 2 11.318 2.571 6.4 6.023 -144533 -158654 -150163 841.621 2476.45 -22608.6 -7.40833 
10632 2 10.622 1.336 6.4 6.02243 -149807 -155283 -150088 -13163.4 5511.23 -23308.2 -7.4081 
10633 2 11.343 0.115 6.4 6.02456 -150459 -164614 -149749 -2041.19 -2875.34 -24047.6 -7.40816 
10797 2 13.383 8.732 6.4 6.02597 -136881 -147942 -145526 13554.2 14248.3 -20544.9 -7.40788 
10798 2 12.686 7.497 6.4 6.023 -187094 -120482 -140997 -20653.8 17240.9 -29201.5 -7.40866 
10799 2 13.408 6.276 6.4 6.0234 -127176 -132868 -146884 -191.674 8978.77 -22788.1 -7.40773 
10800 2 12.711 5.041 6.4 6.02429 -137465 -125477 -143635 -19549.2 13447.5 -28434.5 -7.4078 
10801 2 13.433 3.82 6.4 6.02447 -127900 -131880 -147298 3637.86 3656.07 -24798.9 -7.4077 
10802 2 12.736 2.585 6.4 6.02582 -134283 -127015 -145910 -18395.5 9013.25 -27341.8 -7.40778 
10803 2 13.458 1.364 6.4 6.02248 -129658 -128962 -146732 3707.36 -1543.55 -26590.8 -7.40792 
10804 2 12.761 0.129 6.4 6.02485 -143957 -150189 -147489 -314.869 4072.33 -26071.4 -7.4079 
10968 2 14.801 8.746 6.4 6.0246 -165214 -183889 -134820 1430.32 19473.4 -32864.7 -7.40936 
10969 2 15.522 7.526 6.4 6.02219 -139991 -163912 -143847 38648.7 9818.95 -23859.3 -7.40857 
10970 2 14.826 6.29 6.4 6.02219 -152022 -154870 -137895 16457.3 16120.8 -32146.2 -7.40894 
10971 2 15.547 5.07 6.4 6.0246 -152447 -193131 -144315 22844.2 4644.49 -26232.1 -7.40879 
10972 2 14.851 3.835 6.4 6.02013 -148607 -157426 -140538 -17291.1 12193.6 -31156.9 -7.40879 
10973 2 15.572 2.614 6.4 6.02457 -149002 -158511 -143840 3444.68 -408.473 -28337.7 -7.40829 
10974 2 14.876 1.379 6.4 6.02013 -147318 -158975 -142761 -17143.5 7750.2 -29885.7 -7.40854 
10975 2 15.597 0.158 6.4 6.02541 -143068 -151877 -142554 12497.4 -5347.71 -30155 -7.4082 
11139 2 17.637 8.775 6.4 6.02303 -126409 -135682 -141058 3112.75 10101.9 -24408.3 -7.40784 
11140 2 16.94 7.54 6.4 6.02447 -141177 -125498 -131119 -19953.1 18612.3 -35499.9 -7.40843 
11141 2 17.662 6.319 6.4 6.02169 -174175 -130765 -141371 6109.09 5189.53 -26996.9 -7.40864 
11142 2 16.965 5.084 6.4 6.02457 -146838 -139570 -134387 -6881.94 15302.5 -34457.6 -7.40879 
11143 2 17.686 3.863 6.4 6.02013 -142642 -162716 -140900 6897.07 317.805 -29303.2 -7.40867 
11144 2 16.99 2.628 6.4 6.02457 -154115 -155387 -137494 -20290 11338.7 -33020.2 -7.40867 
11145 2 17.711 1.407 6.4 6.01957 -144424 -160058 -139455 6172.19 -4447.09 -31455.2 -7.40895 
11146 2 17.015 0.172 6.4 6.02306 -151167 -165347 -139698 -14641.5 6888.86 -31480.4 -7.40877 
1734 1 19.229 8.402 3 6.0246 -148349 -195244 -139425 5414.88 8029.4 -25452.1 -7.40929 
1735 1 19.925 7.167 3 6.02152 -151394 -158344 -123909 -5295.1 19120.1 -38800.7 -7.40979 
1736 1 19.204 5.946 3 6.02457 -144603 -160946 -139052 20936.3 3263.42 -28026 -7.40879 
1737 1 19.9 4.711 3 6.02013 -150408 -157079 -127864 -6060.44 16051.6 -37539.8 -7.40967 
1738 1 19.179 3.49 3 6.02457 -148017 -158930 -138105 22170.3 -1576.72 -30369.4 -7.40876 
1739 1 19.875 2.255 3 6.02243 -147569 -160809 -131341 -7007.79 12374.2 -35978.8 -7.40922 
1740 1 19.154 1.034 3 6.02516 -143917 -152739 -136305 13439.8 -6265.64 -32508.6 -7.40846 
1905 1 22.065 8.373 3 6.023 -189181 -125839 -115691 -2047.58 21321.2 -41001.2 -7.40994 
1906 1 21.343 7.152 3 6.0234 -126372 -133692 -136371 21201.9 3225.63 -27929.4 -7.40836 
1907 1 22.04 5.917 3 6.02429 -136277 -129274 -120181 -4371.15 18822.2 -39778.2 -7.40946 
1908 1 21.318 4.696 3 6.02447 -127430 -133369 -135209 21962.7 -1443.38 -30478.8 -7.40843 
1909 1 22.015 3.461 3 6.02582 -134511 -130780 -124315 -4714.24 15712.5 -38271.8 -7.40908 
1910 1 21.293 2.24 3 6.02248 -129062 -132929 -133329 21650.4 -6029.21 -32830.9 -7.40851 
1911 1 21.99 1.005 3 6.02385 -134404 -139243 -127784 -10593.7 12058.9 -36542.8 -7.40889 
2076 1 23.482 8.359 3 6.0202 -172790 -133349 -133945 -9845.49 3062.66 -27336.6 -7.40895 
2077 1 24.179 7.123 3 6.02248 -148069 -144972 -111829 -52230.2 21245.5 -41505.6 -7.40989 
2078 1 23.458 5.903 3 6.02303 -149610 -196869 -132580 6206.62 -1375.07 -29986.7 -7.40949 
2079 1 24.154 4.668 3 6.02152 -153515 -160733 -116846 -7059.92 18516.2 -40023.2 -7.40979 
2080 1 23.433 3.447 3 6.023 -143896 -161457 -130563 23703.8 -5810.21 -32478.6 -7.40951 
2081 1 24.129 2.212 3 6.02243 -149908 -160220 -121237 -9535.59 15415.1 -38267.2 -7.40983 
2082 1 23.408 0.991 3 6.02456 -147457 -168880 -127636 27637.1 -10029.6 -34762.5 -7.4097 
2247 1 26.318 8.33 3 6.0249 -156666 -158806 -103062 -3342.19 23394.3 -42775.7 -7.41096 
2248 1 25.597 7.109 3 6.0249 -143447 -162514 -130372 26172.7 -1664.43 -29079.6 -7.40931 
2249 1 26.293 5.874 3 6.023 -152796 -160288 -108332 -3891.63 21273.5 -41382.7 -7.41073 
2250 1 25.572 4.653 3 6.02243 -147100 -161274 -128025 22573.7 -5919.03 -31733.6 -7.40923 
2251 1 26.268 3.418 3 6.023 -149306 -162880 -113322 -6516.64 18568.4 -39704 -7.41034 
2252 1 25.547 2.197 3 6.0219 -139751 -147145 -124842 9594.53 -10065.7 -34190.1 -7.40922 
2253 1 26.244 0.962 3 6.02385 -181843 -138492 -118034 -10358.2 15410.2 -37799.3 -7.41006 
2418 1 27.736 8.316 3 6.02248 -134667 -150849 -128588 -23402.4 -2043.07 -27834.5 -7.40888 
2420 1 27.711 5.86 3 6.02332 -134431 -167861 -125909 7812.7 -6213.31 -30573 -7.40931 
2422 1 27.686 3.404 3 6.02426 -128649 -134766 -122475 24869 -10285.9 -33138.2 -7.4092 
2424 1 27.661 0.948 3 6.02428 -180512 -139261 -118398 28861.3 -14034.1 -35530.5 -7.41004 
11310 2 19.055 8.789 6.4 6.01928 -154365 -157496 -123831 15591.3 20886.4 -38208.9 -7.40956 
11311 2 19.776 7.569 6.4 6.02457 -143920 -180489 -138653 35959.6 5439.14 -27077.3 -7.40873 
11312 2 19.079 6.334 6.4 6.02172 -184221 -126644 -127398 -19276.7 18067.8 -37238.8 -7.40935 
11313 2 19.801 5.113 6.4 6.02441 -127723 -133217 -137945 6300.91 683.896 -29729.2 -7.40826 
11314 2 19.104 3.878 6.4 6.02303 -135021 -128663 -130839 -19593.2 14665.5 -35946.3 -7.40869 
11315 2 19.826 2.657 6.4 6.02429 -128325 -132345 -136425 5181.62 -3994.61 -32101.6 -7.40848 
11316 2 19.129 1.422 6.4 6.0234 -132977 -129895 -133885 -19044 10718.6 -34368.3 -7.40848 
11317 2 19.851 0.201 6.4 6.02428 -181547 -136984 -134204 494.406 -8315 -34206.1 -7.40896 
11481 2 21.89 8.818 6.4 6.02243 -139148 -165463 -136075 8980.76 5597.96 -26603.3 -7.40896 
11482 2 21.194 7.583 6.4 6.02457 -155907 -154922 -119616 -18792.5 20508 -39556.8 -7.41008 
11483 2 21.915 6.362 6.4 6.02152 -140723 -162691 -135307 8399.39 968.25 -29441.3 -7.40923 
11484 2 21.219 5.127 6.4 6.02457 -151806 -157058 -123731 -21349.4 17594.8 -38258.2 -7.40992 
11485 2 21.94 3.906 6.4 6.02152 -143433 -163698 -133649 9684.8 -3589.97 -32050.8 -7.40899 
11486 2 21.244 2.671 6.4 6.02303 -156939 -192831 -127450 -4124.85 14111.1 -36686.3 -7.4098 
11487 2 21.965 1.451 6.4 6.02248 -141004 -145488 -131126 53546.6 -8039.75 -34400.6 -7.40883 
11488 2 21.268 0.215 6.4 6.02235 -174870 -102622 -130675 -1624.47 10149.2 -34919.4 -7.40896 
11652 2 23.308 8.833 6.4 6.02303 -138396 -131119 -111125 -19808.2 22697.5 -41499 -7.40975 
11653 2 24.03 7.612 6.4 6.02426 -125198 -135536 -132661 6766.99 788.515 -28797.2 -7.40859 
11654 2 23.333 6.377 6.4 6.0234 -138097 -129008 -115740 -19279.9 20435.8 -40205.4 -7.40959 
11655 2 24.055 5.156 6.4 6.02426 -174434 -131208 -131069 6666.21 -3569.37 -31508.3 -7.40938 
11656 2 23.358 3.921 6.4 6.02246 -145844 -143551 -120084 -7868.39 17426.4 -38654.2 -7.40953 
11657 2 24.079 2.7 6.4 6.02444 -145256 -164451 -128477 5741.08 -7795.89 -33992 -7.40918 
11658 2 23.383 1.465 6.4 6.02597 -151772 -160174 -124161 -22520 13938.8 -36828.2 -7.40941 
11659 2 24.104 0.244 6.4 6.02596 -145467 -168900 -125230 5726.13 -11781.2 -36258.6 -7.41009 
11823 2 26.144 8.861 6.4 6.02243 -143680 -163035 -131102 9480.75 660.142 -27584.3 -7.40905 
11824 2 25.448 7.626 6.4 6.023 -154120 -160383 -107223 -21294 22792.9 -41619 -7.41071 
11825 2 26.169 6.405 6.4 6.02152 -134745 -151019 -129031 21748.9 -3624.54 -30467.2 -7.40887 
11826 2 25.472 5.17 6.4 6.02193 -192598 -160721 -112105 -5563.84 20347.9 -40157.7 -7.41072 
11827 2 26.194 3.95 6.4 6.02159 -127377 -136002 -126001 42521.3 -7901.42 -33137.7 -7.40885 
11828 2 25.497 2.714 6.4 6.02159 -133352 -133751 -116822 11219.3 17385 -38422.8 -7.4094 
11829 2 26.219 1.494 6.4 6.02332 -136991 -167574 -122329 23810.6 -11785.9 -35586 -7.40949 
11830 2 25.522 0.259 6.4 6.02395 -133676 -140407 -120900 -17232.5 13931.7 -36435.1 -7.4093 
11994 2 27.562 8.876 6.4 6.02152 -158238 -160858 -97988 -20038.9 24943.6 -42644.5 -7.41092 
11996 2 27.587 6.42 6.4 6.02243 -154903 -159571 -103467 -18822.6 23018.1 -41221 -7.41093 
11998 2 27.612 3.964 6.4 6.0249 -150409 -160982 -108800 -26217 20463.2 -39523.4 -7.41083 
12000 2 27.637 1.508 6.4 6.023 -148555 -164219 -113849 -24712.5 17398 -37633.4 -7.41015 
2417 1 28.457 9.536 3 6.02172 -163153 -195086 -93491.5 -22581.7 25264.8 -43603.8 -7.41184 
2419 1 28.433 7.08 3 6.02159 -137224 -132815 -99328.2 -39974.5 23703.8 -42288.1 -7.41067 
2421 1 28.408 4.625 3 6.02447 -133536 -136267 -105287 -7116.32 21427.9 -40688.1 -7.41011 
2423 1 28.383 2.169 3 6.0234 -132845 -134314 -110735 -8903.23 18690.2 -38819 -7.40987 
2588 1 29.875 9.522 3 6.02426 -123998 -133988 -127227 25084.3 -2579.85 -26313.7 -7.40925 
2589 1 30.572 8.287 3 6.02353 -148976 -147739 -90003.3 -20532.7 25714.6 -42762.9 -7.41135 
2590 1 29.851 7.066 3 6.02444 -142442 -166453 -124295 25933.7 -6552.1 -29032.6 -7.40943 
2591 1 30.547 5.831 3 6.02597 -157940 -162267 -96271.9 -4205.47 24009.6 -41223.3 -7.41091 
2592 1 29.826 4.61 3 6.02243 -142266 -163649 -120657 22811.1 -10544.8 -31686 -7.41011 
2593 1 30.522 3.375 3 6.02457 -150930 -162395 -102323 -8157.07 21664.1 -39453.7 -7.41113 
2594 1 29.801 2.154 3 6.02096 -143887 -163861 -116425 22489.2 -14316 -34113.7 -7.41033 
2595 1 30.497 0.919 3 6.02346 -149109 -172183 -108237 -11315 18944.3 -37462 -7.41075 
2759 1 32.711 9.493 3 6.02457 -157900 -163108 -80038.4 -6308.27 27544.5 -42778.9 -7.41235 
2760 1 31.99 8.272 3 6.02152 -140719 -166619 -123213 21585 -7115.25 -27281.2 -7.40961 
2761 1 32.686 7.037 3 6.02303 -160605 -196765 -86978.4 -22678.3 26311.5 -41320.9 -7.41246 
2762 1 31.965 5.817 3 6.02219 -145610 -165030 -119236 -10068.6 -10912.2 -29979.8 -7.40963 
2763 1 32.661 4.581 3 6.01928 -149407 -167897 -93665.4 -40977 24446.1 -39690.1 -7.41139 
2764 1 31.94 3.361 3 6.02457 -146990 -181980 -114395 -5700.1 -14562.4 -32480.1 -7.41018 
2765 1 32.637 2.126 3 6.02172 -180254 -134087 -100259 -7092.39 22052.5 -37902.8 -7.41109 
2766 1 31.915 0.905 3 6.02389 -125612 -110242 -109166 10596.3 -18027.1 -34801.6 -7.40969 
2930 1 34.129 9.479 3 6.02597 -134761 -150828 -122829 11095.5 -7587.76 -25344 -7.40937 
2931 1 34.826 8.244 3 6.02303 -138711 -135561 -77133 -6284.36 28231.7 -41069 -7.41215 
2932 1 34.104 7.023 3 6.02584 -125174 -136977 -118593 24766 -11412.2 -28013 -7.40956 
2933 1 34.801 5.788 3 6.02447 -135987 -137724 -84361 -6504.5 26855.6 -39506.3 -7.4115 
2934 1 34.079 4.567 3 6.02303 -129032 -137860 -113545 26095.1 -15055.1 -30523.3 -7.40949 
2935 1 34.776 3.332 3 6.02447 -136087 -137840 -91649.8 -4794.93 24949.2 -37788.3 -7.41081 
2936 1 34.054 2.111 3 6.02299 -176930 -134607 -107691 22646.9 -18470 -32888.9 -7.41064 
2937 1 34.751 0.876 3 6.02487 -142324 -158552 -98671.3 -21698.3 22473.7 -35829.5 -7.41109 
3101 1 36.965 9.45 3 6.02597 -149904 -152157 -66990.8 -17644.3 29857.4 -40311 -7.41288 
3102 1 36.244 8.229 3 6.02013 -139616 -168004 -118124 21928.4 -11823.9 -25809.7 -7.41005 
3103 1 36.94 6.994 3 6.02457 -157461 -166100 -74818.1 -4368.03 28936.5 -38878.7 -7.41246 
3104 1 36.219 5.773 3 6.02013 -139762 -168728 -112717 22233.6 -15431.2 -28281.7 -7.41046 
3105 1 36.915 4.538 3 6.0246 -160185 -199384 -82617.7 -24049.2 27443.4 -37294 -7.41251 
3106 1 36.194 3.318 3 6.02219 -142637 -167838 -106812 -11240.3 -18755.1 -30678.1 -7.41081 
3107 1 36.89 2.082 3 6.02338 -147945 -166958 -90338.8 -39970.7 25347.2 -35513.7 -7.4119 
3108 1 36.169 0.862 3 6.02462 -149952 -173091 -100471 -8746.68 -21896.5 -32846.5 -7.41112 
11995 2 28.283 7.655 6.4 6.023 -140070 -164386 -127013 7843.88 -3854.18 -29053.4 -7.40973 
11997 2 28.308 5.199 6.4 6.02457 -142584 -164100 -124022 5939.43 -7933.5 -31837 -7.40978 
11999 2 28.333 2.743 6.4 6.0249 -145885 -162961 -120213 5723.75 -11855.1 -34424.1 -7.40993 
12001 2 28.358 0.287 6.4 6.0223 -142526 -156088 -115740 17002 -15469.2 -36737.2 -7.40982 
12165 2 30.398 8.904 6.4 6.02447 -123709 -136956 -125991 9239.53 -4244.36 -27456.1 -7.40899 
12166 2 29.701 7.669 6.4 6.02581 -139134 -133286 -94091 -22563.4 25342 -41949.8 -7.41091 
12167 2 30.423 6.448 6.4 6.02303 -123708 -139271 -122710 8828.44 -8210.08 -30250.1 -7.40906 
12168 2 29.726 5.213 6.4 6.02332 -144880 -165847 -100122 -4794.54 23314.7 -40304.9 -7.41086 
12169 2 30.448 3.993 6.4 6.0202 -174809 -134863 -118473 41558.6 -12111.7 -32875.4 -7.40988 
12170 2 29.751 2.757 6.4 6.02248 -144111 -148976 -105892 24031.5 20734.3 -38464.8 -7.41025 
12171 2 30.472 1.537 6.4 6.02303 -151776 -199345 -113693 24899.2 -15675.9 -35245.2 -7.41059 
12172 2 29.776 0.302 6.4 6.02265 -150408 -170372 -111275 -16367.3 17735.2 -36349.5 -7.41047 
12336 2 31.816 8.919 6.4 6.02013 -154996 -162555 -84389.6 -19846 27350.9 -42147.6 -7.4123 
12337 2 32.537 7.698 6.4 6.02457 -143939 -164063 -121687 7779.64 -8576.13 -28360 -7.40974 
12338 2 31.841 6.463 6.4 6.02243 -152339 -164903 -91109.2 -20128 25867.2 -40600.9 -7.41168 
12339 2 32.562 5.242 6.4 6.026 -138772 -150859 -117112 18530.4 -12365.3 -31005.6 -7.40947 
12340 2 31.865 4.007 6.4 6.023 -185114 -132718 -97495 -24920.3 23777.7 -38918.5 -7.41104 
12341 2 32.587 2.786 6.4 6.0234 -128481 -136608 -112116 9442.34 -15865.7 -33500.9 -7.40982 
12342 2 31.89 1.551 6.4 6.02428 -131875 -135964 -103398 -23700.5 21108.3 -36959 -7.41045 
12343 2 32.612 0.33 6.4 6.02194 -131461 -145255 -106246 3692.64 -19167.2 -35807.4 -7.4102 
12507 2 34.651 8.947 6.4 6.02013 -137157 -170538 -121388 9428.78 -8831.68 -26291.2 -7.40972 
12508 2 33.955 7.712 6.4 6.0246 -166481 -195951 -81233.1 -4388.23 27940.2 -40556.4 -7.41238 
12509 2 34.676 6.492 6.4 6.02072 -139752 -167752 -116563 41914.9 -12637.5 -28935.2 -7.41022 
12510 2 33.98 5.256 6.4 6.02219 -153076 -165597 -88216.4 14067.6 26342.3 -38898.6 -7.41172 
12511 2 34.701 4.036 6.4 6.0246 -150026 -198911 -111159 24295.5 -16208 -31459.7 -7.41099 
12512 2 34.005 2.801 6.4 6.02152 -147191 -167405 -94998 -21327.3 24157.7 -37063.1 -7.41153 
12513 2 34.726 1.58 6.4 6.02457 -146434 -166168 -105080 8179.53 -19506 -33759.9 -7.41081 
12514 2 34.03 0.345 6.4 6.02069 -147770 -175036 -101601 -16801.3 21555 -35048.7 -7.41106 
12678 2 36.069 8.962 6.4 6.02303 -139851 -137866 -71032.3 -19708.5 29826.8 -40067.7 -7.41231 
12679 2 36.791 7.741 6.4 6.02447 -126267 -139497 -116561 4801.34 -13018.1 -26720.1 -7.40931 
12680 2 36.094 6.506 6.4 6.02447 -139250 -138596 -78652.2 -23595.6 28687.8 -38527.9 -7.41161 
12681 2 36.816 5.285 6.4 6.02303 -125838 -139128 -110845 7771.67 -16541.3 -29178.7 -7.4099 
12682 2 36.119 4.05 6.4 6.02444 -135140 -137200 -86343.3 -21470 26961.9 -36817.5 -7.4115 
12683 2 36.841 2.829 6.4 6.02172 -175956 -136050 -104386 7341.8 -19782 -31449 -7.41087 
12684 2 36.144 1.594 6.4 6.02401 -143227 -151719 -93630.5 -10040 24662.4 -34938.5 -7.4111 
12685 2 36.865 0.373 6.4 6.01844 -146277 -177511 -97612.7 3667.36 -22738.5 -33545.6 -7.4113 
3272 1 38.383 9.436 3 6.0246 -149625 -198857 -118694 4481.21 -12252 -23522.2 -7.41032 
3273 1 39.079 8.201 3 6.02013 -152076 -171272 -65069.2 -5124.58 30686.9 -37738.9 -7.41335 
3274 1 38.358 6.98 3 6.02457 -145593 -165983 -113088 23385.7 -15800.7 -25946.5 -7.41014 
3275 1 39.054 5.745 3 6.02013 -150783 -170656 -73496.6 -6228.59 29638.1 -36303.3 -7.41275 
3276 1 38.333 4.524 3 6.02457 -137591 -151843 -106526 10234 -19200.6 -28271.3 -7.41047 
3277 1 39.03 3.289 3 6.02169 -181552 -137463 -81473.3 -5674.85 27955.7 -34793.9 -7.41226 
3278 1 38.308 2.068 3 6.02447 -131169 -139976 -99649.3 23642.5 -22302.9 -30448.2 -7.4103 
3279 1 39.005 0.833 3 6.02357 -132865 -148664 -89510.2 -5535.58 25808.1 -33025 -7.41121 
3443 1 41.219 9.407 3 6.02426 -189331 -139415 -54961 -254.87 32023.6 -36224.6 -7.41375 
3444 1 40.497 8.186 3 6.0234 -125256 -139183 -113540 20307.2 -16230.5 -23423.7 -7.40974 
3445 1 41.194 6.951 3 6.02426 -137527 -142377 -63715.2 -2479.65 31470.4 -34940.4 -7.41275 
3446 1 40.472 5.73 3 6.02303 -126072 -140197 -106898 21062.4 -19561.1 -25652.7 -7.41014 
3447 1 41.169 4.495 3 6.02441 -135537 -141608 -72515.6 -3988.56 30264 -33513.6 -7.41222 
3448 1 40.447 3.274 3 6.02172 -174637 -139826 -99712.7 21049.3 -22662.1 -27770.7 -7.41102 
3449 1 41.144 2.039 3 6.02401 -150571 -188189 -81246 -33934.4 28452.6 -31935.2 -7.41217 
3450 1 40.423 0.819 3 6.01984 -145909 -180507 -92259.1 -9145.32 -25431.4 -29751.9 -7.41149 
3614 1 42.636 9.393 3 6.02193 -180466 -169804 -114722 5016.83 -16412.5 -20830.9 -7.41056 
3615 1 43.333 8.158 3 6.02152 -147623 -159445 -54103.8 -16072 32929 -32981.2 -7.41342 
3616 1 42.612 6.937 3 6.023 -140805 -170892 -108066 21144.8 -19708 -22889.3 -7.41065 
3617 1 43.308 5.702 3 6.02243 -153105 -171186 -63388.6 -5791.55 32126.1 -31760.3 -7.41337 
3618 1 42.587 4.481 3 6.02457 -142495 -169470 -100409 21257.6 -22876.4 -24899.1 -7.41133 
3619 1 43.283 3.246 3 6.02152 -148188 -171491 -72618.7 -4498.53 30714.2 -30382.4 -7.41301 
3620 1 42.562 2.025 3 6.02457 -147257 -170031 -92571.8 20957.5 -25771.9 -26784.7 -7.41144 
3621 1 43.258 0.79 3 6.02394 -147840 -179292 -81638.8 -4192.6 28772 -28861.6 -7.41248 
3785 1 45.472 9.364 3 6.02597 -156660 -174243 -44599.7 836.154 34059.6 -30506.9 -7.41448 
3786 1 44.751 8.143 3 6.02243 -142170 -169061 -109432 17065.5 -19936.6 -19947.1 -7.41057 
3787 1 45.447 6.908 3 6.023 -151654 -174961 -54215.9 -1640.1 33709.7 -29450 -7.41404 
3788 1 44.726 5.687 3 6.02246 -136910 -155182 -101682 5895.24 -23062.7 -21877.1 -7.41064 
3789 1 45.423 4.452 3 6.02426 -183034 -141878 -63740.3 -846.531 32691.8 -28328 -7.41333 
3790 1 44.701 3.231 3 6.0234 -126931 -144753 -93456.2 17839.7 -26001.8 -23677.1 -7.41082 
3791 1 45.398 1.996 3 6.02331 -139588 -177888 -73175.7 -18717.1 31100.4 -27032.2 -7.41247 
3792 1 44.676 0.776 3 6.02271 -132250 -150596 -84835.7 -10385.7 -28556.9 -25499.1 -7.41148 
12849 2 38.905 8.991 6.4 6.02219 -140710 -168620 -117119 42616.4 -13276 -24301.9 -7.40997 
12850 2 38.209 7.755 6.4 6.02072 -153183 -169132 -69061.3 13953.1 30594 -37623.8 -7.4131 
12851 2 38.93 6.535 6.4 6.0246 -152910 -199569 -111085 23265.3 -16780.3 -26725.1 -7.41057 
12852 2 38.234 5.3 6.4 6.02013 -149394 -172070 -76958.8 -19350.5 29357 -36048.4 -7.41241 
12853 2 38.955 4.079 6.4 6.02457 -137995 -153134 -104397 18214.3 -20073.4 -28961.9 -7.41048 
12854 2 38.258 2.844 6.4 6.02172 -181648 -136427 -84551.7 -20665.5 27488.2 -34388.3 -7.41207 
12855 2 38.98 1.623 6.4 6.02441 -129430 -140402 -97150.8 5771.15 -23108 -31091.5 -7.41069 
12856 2 38.283 0.388 6.4 6.02357 -132623 -147576 -92300.7 -16607.6 25145 -32486.2 -7.41104 
13020 2 40.323 9.005 6.4 6.02493 -150944 -154279 -58681.9 -10482.2 32132 -36342.2 -7.41326 
13021 2 41.044 7.784 6.4 6.02338 -139667 -170643 -111922 2331.93 -16977.3 -24111 -7.41042 
13022 2 40.348 6.549 6.4 6.02597 -158239 -168311 -67272.7 -22097.2 31328.4 -34907.3 -7.4128 
13023 2 41.069 5.328 6.4 6.02013 -140899 -169056 -105078 6690.12 -20293.9 -26319.1 -7.41105 
13024 2 40.373 4.093 6.4 6.02457 -152494 -168584 -75774.4 -19195.7 29867.2 -33331.8 -7.41261 
13025 2 41.094 2.872 6.4 6.02243 -145087 -168845 -97516.5 8077.3 -23357.7 -28338 -7.41129 
13026 2 40.398 1.637 6.4 6.02257 -147369 -169549 -84296.3 -21237.7 27941 -31638.3 -7.41227 
13027 2 41.119 0.416 6.4 6.02122 -150927 -176963 -89635.9 1670.04 -26071 -30151.8 -7.41157 
13191 2 43.159 9.034 6.4 6.02159 -123944 -142262 -113284 39529.6 -17211 -21437 -7.40961 
13192 2 42.462 7.798 6.4 6.02159 -137922 -144490 -57555.9 14924.9 32962.1 -33279 -7.413 
13193 2 43.184 6.578 6.4 6.02332 -133116 -174458 -106248 20894.7 -20482.6 -23519.2 -7.41049 
13194 2 42.487 5.343 6.4 6.02447 -134252 -145271 -66431 -18632.3 32013.6 -31827.3 -7.41247 
13195 2 43.209 4.122 6.4 6.02426 -127238 -140473 -98464.7 3577.3 -23575.9 -25438.7 -7.41085 
13196 2 42.512 2.887 6.4 6.02353 -143483 -155990 -75360.2 -4757.76 30427.3 -30279.9 -7.41224 
13197 2 43.233 1.666 6.4 6.02169 -143022 -172921 -90334.1 3980.08 -26315.5 -27206.3 -7.41182 
13198 2 42.537 0.431 6.4 6.023 -152293 -177150 -84130.3 -14448 28343.2 -28597.4 -7.4119 
13362 2 44.577 9.048 6.4 6.02597 -156714 -173183 -47880.2 -19517.7 34230.6 -31029.8 -7.41428 