(written by TR)

19496	atoms
2	atom types
0	121.242847	xlo xhi
0	209.998772	ylo yhi
0	15.0	zlo zhi


Masses

1	12
2	12

Atoms

1 1 1 0 0.697 208.764 3.000 0 0 0
2 1 1 0 0.672 206.308 3.000 0 0 0
3 1 1 0 0.647 203.852 3.000 0 0 0
4 1 1 0 0.622 201.396 3.000 0 0 0
5 1 1 0 0.597 198.940 3.000 0 0 0
6 1 1 0 0.572 196.484 3.000 0 0 0
7 1 1 0 0.547 194.028 3.000 0 0 0
8 1 1 0 0.522 191.573 3.000 0 0 0
9 1 1 0 0.498 189.117 3.000 0 0 0
10 1 1 0 0.473 186.661 3.000 0 0 0
11 1 1 0 0.448 184.205 3.000 0 0 0
12 1 1 0 0.423 181.749 3.000 0 0 0
13 1 1 0 0.398 179.293 3.000 0 0 0
14 1 1 0 0.373 176.837 3.000 0 0 0
15 1 1 0 0.348 174.381 3.000 0 0 0
16 1 1 0 0.323 171.926 3.000 0 0 0
17 1 1 0 0.299 169.470 3.000 0 0 0
18 1 1 0 0.274 167.014 3.000 0 0 0
19 1 1 0 0.249 164.558 3.000 0 0 0
20 1 1 0 0.224 162.102 3.000 0 0 0
21 1 1 0 0.199 159.646 3.000 0 0 0
22 1 1 0 0.174 157.190 3.000 0 0 0
23 1 1 0 0.149 154.734 3.000 0 0 0
24 1 1 0 0.124 152.279 3.000 0 0 0
25 1 1 0 0.100 149.823 3.000 0 0 0
26 1 1 0 0.075 147.367 3.000 0 0 0
27 1 1 0 0.050 144.911 3.000 0 0 0
28 1 1 0 0.025 142.455 3.000 0 0 0
29 1 1 0 0.000 139.999 3.000 0 0 0
30 1 1 0 2.836 209.970 3.000 0 0 0
31 1 1 0 2.114 208.749 3.000 0 0 0
32 1 1 0 2.811 207.514 3.000 0 0 0
33 1 1 0 2.090 206.293 3.000 0 0 0
34 1 1 0 2.786 205.058 3.000 0 0 0
35 1 1 0 2.065 203.838 3.000 0 0 0
36 1 1 0 2.761 202.602 3.000 0 0 0
37 1 1 0 2.040 201.382 3.000 0 0 0
38 1 1 0 2.736 200.147 3.000 0 0 0
39 1 1 0 2.015 198.926 3.000 0 0 0
40 1 1 0 2.711 197.691 3.000 0 0 0
41 1 1 0 1.990 196.470 3.000 0 0 0
42 1 1 0 2.687 195.235 3.000 0 0 0
43 1 1 0 1.965 194.014 3.000 0 0 0
44 1 1 0 2.662 192.779 3.000 0 0 0
45 1 1 0 1.940 191.558 3.000 0 0 0
46 1 1 0 2.637 190.323 3.000 0 0 0
47 1 1 0 1.915 189.102 3.000 0 0 0
48 1 1 0 2.612 187.867 3.000 0 0 0
49 1 1 0 1.891 186.646 3.000 0 0 0
50 1 1 0 2.587 185.411 3.000 0 0 0
51 1 1 0 1.866 184.191 3.000 0 0 0
52 1 1 0 2.562 182.955 3.000 0 0 0
53 1 1 0 1.841 181.735 3.000 0 0 0
54 1 1 0 2.537 180.500 3.000 0 0 0
55 1 1 0 1.816 179.279 3.000 0 0 0
56 1 1 0 2.512 178.044 3.000 0 0 0
57 1 1 0 1.791 176.823 3.000 0 0 0
58 1 1 0 2.488 175.588 3.000 0 0 0
59 1 1 0 1.766 174.367 3.000 0 0 0
60 1 1 0 2.463 173.132 3.000 0 0 0
61 1 1 0 1.741 171.911 3.000 0 0 0
62 1 1 0 2.438 170.676 3.000 0 0 0
63 1 1 0 1.716 169.455 3.000 0 0 0
64 1 1 0 2.413 168.220 3.000 0 0 0
65 1 1 0 1.692 166.999 3.000 0 0 0
66 1 1 0 2.388 165.764 3.000 0 0 0
67 1 1 0 1.667 164.544 3.000 0 0 0
68 1 1 0 2.363 163.308 3.000 0 0 0
69 1 1 0 1.642 162.088 3.000 0 0 0
70 1 1 0 2.338 160.853 3.000 0 0 0
71 1 1 0 1.617 159.632 3.000 0 0 0
72 1 1 0 2.313 158.397 3.000 0 0 0
73 1 1 0 1.592 157.176 3.000 0 0 0
74 1 1 0 2.289 155.941 3.000 0 0 0
75 1 1 0 1.567 154.720 3.000 0 0 0
76 1 1 0 2.264 153.485 3.000 0 0 0
77 1 1 0 1.542 152.264 3.000 0 0 0
78 1 1 0 2.239 151.029 3.000 0 0 0
79 1 1 0 1.517 149.808 3.000 0 0 0
80 1 1 0 2.214 148.573 3.000 0 0 0
81 1 1 0 1.493 147.352 3.000 0 0 0
82 1 1 0 2.189 146.117 3.000 0 0 0
83 1 1 0 1.468 144.897 3.000 0 0 0
84 1 1 0 2.164 143.661 3.000 0 0 0
85 1 1 0 1.443 142.441 3.000 0 0 0
86 1 1 0 2.139 141.206 3.000 0 0 0
87 1 1 0 1.418 139.985 3.000 0 0 0
88 1 1 0 2.114 138.750 3.000 0 0 0
89 1 1 0 1.393 137.529 3.000 0 0 0
90 1 1 0 2.090 136.294 3.000 0 0 0
91 1 1 0 1.368 135.073 3.000 0 0 0
92 1 1 0 2.065 133.838 3.000 0 0 0
93 1 1 0 1.343 132.617 3.000 0 0 0
94 1 1 0 2.040 131.382 3.000 0 0 0
95 1 1 0 1.318 130.161 3.000 0 0 0
96 1 1 0 2.015 128.926 3.000 0 0 0
97 1 1 0 1.294 127.705 3.000 0 0 0
98 1 1 0 1.990 126.470 3.000 0 0 0
99 1 1 0 1.269 125.250 3.000 0 0 0
100 1 1 0 1.965 124.014 3.000 0 0 0
101 1 1 0 1.244 122.794 3.000 0 0 0
102 1 1 0 1.940 121.559 3.000 0 0 0
103 1 1 0 1.219 120.338 3.000 0 0 0
104 1 1 0 1.915 119.103 3.000 0 0 0
105 1 1 0 1.194 117.882 3.000 0 0 0
106 1 1 0 1.891 116.647 3.000 0 0 0
107 1 1 0 1.169 115.426 3.000 0 0 0
108 1 1 0 1.866 114.191 3.000 0 0 0
109 1 1 0 1.144 112.970 3.000 0 0 0
110 1 1 0 1.841 111.735 3.000 0 0 0
111 1 1 0 1.119 110.514 3.000 0 0 0
112 1 1 0 1.816 109.279 3.000 0 0 0
113 1 1 0 1.095 108.058 3.000 0 0 0
114 1 1 0 1.791 106.823 3.000 0 0 0
115 1 1 0 1.070 105.603 3.000 0 0 0
116 1 1 0 1.766 104.367 3.000 0 0 0
117 1 1 0 1.045 103.147 3.000 0 0 0
118 1 1 0 1.741 101.912 3.000 0 0 0
119 1 1 0 1.020 100.691 3.000 0 0 0
120 1 1 0 1.716 99.456 3.000 0 0 0
121 1 1 0 0.995 98.235 3.000 0 0 0
122 1 1 0 1.692 97.000 3.000 0 0 0
123 1 1 0 0.970 95.779 3.000 0 0 0
124 1 1 0 1.667 94.544 3.000 0 0 0
125 1 1 0 0.945 93.323 3.000 0 0 0
126 1 1 0 1.642 92.088 3.000 0 0 0
127 1 1 0 0.920 90.867 3.000 0 0 0
128 1 1 0 1.617 89.632 3.000 0 0 0
129 1 1 0 0.896 88.411 3.000 0 0 0
130 1 1 0 1.592 87.176 3.000 0 0 0
131 1 1 0 0.871 85.956 3.000 0 0 0
132 1 1 0 1.567 84.720 3.000 0 0 0
133 1 1 0 0.846 83.500 3.000 0 0 0
134 1 1 0 1.542 82.265 3.000 0 0 0
135 1 1 0 0.821 81.044 3.000 0 0 0
136 1 1 0 1.517 79.809 3.000 0 0 0
137 1 1 0 0.796 78.588 3.000 0 0 0
138 1 1 0 1.493 77.353 3.000 0 0 0
139 1 1 0 0.771 76.132 3.000 0 0 0
140 1 1 0 1.468 74.897 3.000 0 0 0
141 1 1 0 0.746 73.676 3.000 0 0 0
142 1 1 0 1.443 72.441 3.000 0 0 0
143 1 1 0 0.721 71.220 3.000 0 0 0
144 1 1 0 1.418 69.985 3.000 0 0 0
145 1 1 0 0.697 68.764 3.000 0 0 0
146 1 1 0 1.393 67.529 3.000 0 0 0
147 1 1 0 0.672 66.309 3.000 0 0 0
148 1 1 0 1.368 65.073 3.000 0 0 0
149 1 1 0 0.647 63.853 3.000 0 0 0
150 1 1 0 1.343 62.618 3.000 0 0 0
151 1 1 0 0.622 61.397 3.000 0 0 0
152 1 1 0 1.318 60.162 3.000 0 0 0
153 1 1 0 0.597 58.941 3.000 0 0 0
154 1 1 0 1.294 57.706 3.000 0 0 0
155 1 1 0 0.572 56.485 3.000 0 0 0
156 1 1 0 1.269 55.250 3.000 0 0 0
157 1 1 0 0.547 54.029 3.000 0 0 0
158 1 1 0 1.244 52.794 3.000 0 0 0
159 1 1 0 0.522 51.573 3.000 0 0 0
160 1 1 0 1.219 50.338 3.000 0 0 0
161 1 1 0 0.498 49.117 3.000 0 0 0
162 1 1 0 1.194 47.882 3.000 0 0 0
163 1 1 0 0.473 46.662 3.000 0 0 0
164 1 1 0 1.169 45.426 3.000 0 0 0
165 1 1 0 0.448 44.206 3.000 0 0 0
166 1 1 0 1.144 42.971 3.000 0 0 0
167 1 1 0 0.423 41.750 3.000 0 0 0
168 1 1 0 1.119 40.515 3.000 0 0 0
169 1 1 0 0.398 39.294 3.000 0 0 0
170 1 1 0 1.095 38.059 3.000 0 0 0
171 1 1 0 0.373 36.838 3.000 0 0 0
172 1 1 0 1.070 35.603 3.000 0 0 0
173 1 1 0 0.348 34.382 3.000 0 0 0
174 1 1 0 1.045 33.147 3.000 0 0 0
175 1 1 0 0.323 31.926 3.000 0 0 0
176 1 1 0 1.020 30.691 3.000 0 0 0
177 1 1 0 0.299 29.470 3.000 0 0 0
178 1 1 0 0.995 28.235 3.000 0 0 0
179 1 1 0 0.274 27.015 3.000 0 0 0
180 1 1 0 0.970 25.779 3.000 0 0 0
181 1 1 0 0.249 24.559 3.000 0 0 0
182 1 1 0 0.945 23.324 3.000 0 0 0
183 1 1 0 0.224 22.103 3.000 0 0 0
184 1 1 0 0.920 20.868 3.000 0 0 0
185 1 1 0 0.199 19.647 3.000 0 0 0
186 1 1 0 0.896 18.412 3.000 0 0 0
187 1 1 0 0.174 17.191 3.000 0 0 0
188 1 1 0 0.871 15.956 3.000 0 0 0
189 1 1 0 0.149 14.735 3.000 0 0 0
190 1 1 0 0.846 13.500 3.000 0 0 0
191 1 1 0 0.124 12.279 3.000 0 0 0
192 1 1 0 0.821 11.044 3.000 0 0 0
193 1 1 0 0.100 9.823 3.000 0 0 0
194 1 1 0 0.796 8.588 3.000 0 0 0
195 1 1 0 0.075 7.368 3.000 0 0 0
196 1 1 0 0.771 6.133 3.000 0 0 0
197 1 1 0 0.050 4.912 3.000 0 0 0
198 1 1 0 0.746 3.677 3.000 0 0 0
199 1 1 0 0.025 2.456 3.000 0 0 0
200 1 1 0 0.721 1.221 3.000 0 0 0
201 1 1 0 0.000 0.000 3.000 0 0 0
202 1 1 0 4.254 209.956 3.000 0 0 0
203 1 1 0 4.950 208.721 3.000 0 0 0
204 1 1 0 4.229 207.500 3.000 0 0 0
205 1 1 0 4.925 206.265 3.000 0 0 0
206 1 1 0 4.204 205.044 3.000 0 0 0
207 1 1 0 4.900 203.809 3.000 0 0 0
208 1 1 0 4.179 202.588 3.000 0 0 0
209 1 1 0 4.876 201.353 3.000 0 0 0
210 1 1 0 4.154 200.132 3.000 0 0 0
211 1 1 0 4.851 198.897 3.000 0 0 0
212 1 1 0 4.129 197.676 3.000 0 0 0
213 1 1 0 4.826 196.441 3.000 0 0 0
214 1 1 0 4.104 195.220 3.000 0 0 0
215 1 1 0 4.801 193.985 3.000 0 0 0
216 1 1 0 4.080 192.765 3.000 0 0 0
217 1 1 0 4.776 191.529 3.000 0 0 0
218 1 1 0 4.055 190.309 3.000 0 0 0
219 1 1 0 4.751 189.074 3.000 0 0 0
220 1 1 0 4.030 187.853 3.000 0 0 0
221 1 1 0 4.726 186.618 3.000 0 0 0
222 1 1 0 4.005 185.397 3.000 0 0 0
223 1 1 0 4.701 184.162 3.000 0 0 0
224 1 1 0 3.980 182.941 3.000 0 0 0
225 1 1 0 4.677 181.706 3.000 0 0 0
226 1 1 0 3.955 180.485 3.000 0 0 0
227 1 1 0 4.652 179.250 3.000 0 0 0
228 1 1 0 3.930 178.029 3.000 0 0 0
229 1 1 0 4.627 176.794 3.000 0 0 0
230 1 1 0 3.905 175.573 3.000 0 0 0
231 1 1 0 4.602 174.338 3.000 0 0 0
232 1 1 0 3.881 173.118 3.000 0 0 0
233 1 1 0 4.577 171.882 3.000 0 0 0
234 1 1 0 3.856 170.662 3.000 0 0 0
235 1 1 0 4.552 169.427 3.000 0 0 0
236 1 1 0 3.831 168.206 3.000 0 0 0
237 1 1 0 4.527 166.971 3.000 0 0 0
238 1 1 0 3.806 165.750 3.000 0 0 0
239 1 1 0 4.502 164.515 3.000 0 0 0
240 1 1 0 3.781 163.294 3.000 0 0 0
241 1 1 0 4.478 162.059 3.000 0 0 0
242 1 1 0 3.756 160.838 3.000 0 0 0
243 1 1 0 4.453 159.603 3.000 0 0 0
244 1 1 0 3.731 158.382 3.000 0 0 0
245 1 1 0 4.428 157.147 3.000 0 0 0
246 1 1 0 3.706 155.926 3.000 0 0 0
247 1 1 0 4.403 154.691 3.000 0 0 0
248 1 1 0 3.682 153.471 3.000 0 0 0
249 1 1 0 4.378 152.235 3.000 0 0 0
250 1 1 0 3.657 151.015 3.000 0 0 0
251 1 1 0 4.353 149.780 3.000 0 0 0
252 1 1 0 3.632 148.559 3.000 0 0 0
253 1 1 0 4.328 147.324 3.000 0 0 0
254 1 1 0 3.607 146.103 3.000 0 0 0
255 1 1 0 4.303 144.868 3.000 0 0 0
256 1 1 0 3.582 143.647 3.000 0 0 0
257 1 1 0 4.279 142.412 3.000 0 0 0
258 1 1 0 3.557 141.191 3.000 0 0 0
259 1 1 0 4.254 139.956 3.000 0 0 0
260 1 1 0 3.532 138.735 3.000 0 0 0
261 1 1 0 4.229 137.500 3.000 0 0 0
262 1 1 0 3.507 136.279 3.000 0 0 0
263 1 1 0 4.204 135.044 3.000 0 0 0
264 1 1 0 3.483 133.824 3.000 0 0 0
265 1 1 0 4.179 132.588 3.000 0 0 0
266 1 1 0 3.458 131.368 3.000 0 0 0
267 1 1 0 4.154 130.133 3.000 0 0 0
268 1 1 0 3.433 128.912 3.000 0 0 0
269 1 1 0 4.129 127.677 3.000 0 0 0
270 1 1 0 3.408 126.456 3.000 0 0 0
271 1 1 0 4.104 125.221 3.000 0 0 0
272 1 1 0 3.383 124.000 3.000 0 0 0
273 1 1 0 4.080 122.765 3.000 0 0 0
274 1 1 0 3.358 121.544 3.000 0 0 0
275 1 1 0 4.055 120.309 3.000 0 0 0
276 1 1 0 3.333 119.088 3.000 0 0 0
277 1 1 0 4.030 117.853 3.000 0 0 0
278 1 1 0 3.308 116.632 3.000 0 0 0
279 1 1 0 4.005 115.397 3.000 0 0 0
280 1 1 0 3.284 114.177 3.000 0 0 0
281 1 1 0 3.980 112.941 3.000 0 0 0
282 1 1 0 3.259 111.721 3.000 0 0 0
283 1 1 0 3.955 110.486 3.000 0 0 0
284 1 1 0 3.234 109.265 3.000 0 0 0
285 1 1 0 3.930 108.030 3.000 0 0 0
286 1 1 0 3.209 106.809 3.000 0 0 0
287 1 1 0 3.905 105.574 3.000 0 0 0
288 1 1 0 3.184 104.353 3.000 0 0 0
289 1 1 0 3.881 103.118 3.000 0 0 0
290 1 1 0 3.159 101.897 3.000 0 0 0
291 1 1 0 3.856 100.662 3.000 0 0 0
292 1 1 0 3.134 99.441 3.000 0 0 0
293 1 1 0 3.831 98.206 3.000 0 0 0
294 1 1 0 3.109 96.985 3.000 0 0 0
295 1 1 0 3.806 95.750 3.000 0 0 0
296 1 1 0 3.085 94.530 3.000 0 0 0
297 1 1 0 3.781 93.294 3.000 0 0 0
298 1 1 0 3.060 92.074 3.000 0 0 0
299 1 1 0 3.756 90.839 3.000 0 0 0
300 1 1 0 3.035 89.618 3.000 0 0 0
301 1 1 0 3.731 88.383 3.000 0 0 0
302 1 1 0 3.010 87.162 3.000 0 0 0
303 1 1 0 3.706 85.927 3.000 0 0 0
304 1 1 0 2.985 84.706 3.000 0 0 0
305 1 1 0 3.682 83.471 3.000 0 0 0
306 1 1 0 2.960 82.250 3.000 0 0 0
307 1 1 0 3.657 81.015 3.000 0 0 0
308 1 1 0 2.935 79.794 3.000 0 0 0
309 1 1 0 3.632 78.559 3.000 0 0 0
310 1 1 0 2.910 77.338 3.000 0 0 0
311 1 1 0 3.607 76.103 3.000 0 0 0
312 1 1 0 2.886 74.883 3.000 0 0 0
313 1 1 0 3.582 73.647 3.000 0 0 0
314 1 1 0 2.861 72.427 3.000 0 0 0
315 1 1 0 3.557 71.192 3.000 0 0 0
316 1 1 0 2.836 69.971 3.000 0 0 0
317 1 1 0 3.532 68.736 3.000 0 0 0
318 1 1 0 2.811 67.515 3.000 0 0 0
319 1 1 0 3.507 66.280 3.000 0 0 0
320 1 1 0 2.786 65.059 3.000 0 0 0
321 1 1 0 3.483 63.824 3.000 0 0 0
322 1 1 0 2.761 62.603 3.000 0 0 0
323 1 1 0 3.458 61.368 3.000 0 0 0
324 1 1 0 2.736 60.147 3.000 0 0 0
325 1 1 0 3.433 58.912 3.000 0 0 0
326 1 1 0 2.711 57.691 3.000 0 0 0
327 1 1 0 3.408 56.456 3.000 0 0 0
328 1 1 0 2.687 55.236 3.000 0 0 0
329 1 1 0 3.383 54.001 3.000 0 0 0
330 1 1 0 2.662 52.780 3.000 0 0 0
331 1 1 0 3.358 51.545 3.000 0 0 0
332 1 1 0 2.637 50.324 3.000 0 0 0
333 1 1 0 3.333 49.089 3.000 0 0 0
334 1 1 0 2.612 47.868 3.000 0 0 0
335 1 1 0 3.308 46.633 3.000 0 0 0
336 1 1 0 2.587 45.412 3.000 0 0 0
337 1 1 0 3.284 44.177 3.000 0 0 0
338 1 1 0 2.562 42.956 3.000 0 0 0
339 1 1 0 3.259 41.721 3.000 0 0 0
340 1 1 0 2.537 40.500 3.000 0 0 0
341 1 1 0 3.234 39.265 3.000 0 0 0
342 1 1 0 2.512 38.045 3.000 0 0 0
343 1 1 0 3.209 36.809 3.000 0 0 0
344 1 1 0 2.488 35.589 3.000 0 0 0
345 1 1 0 3.184 34.354 3.000 0 0 0
346 1 1 0 2.463 33.133 3.000 0 0 0
347 1 1 0 3.159 31.898 3.000 0 0 0
348 1 1 0 2.438 30.677 3.000 0 0 0
349 1 1 0 3.134 29.442 3.000 0 0 0
350 1 1 0 2.413 28.221 3.000 0 0 0
351 1 1 0 3.109 26.986 3.000 0 0 0
352 1 1 0 2.388 25.765 3.000 0 0 0
353 1 1 0 3.085 24.530 3.000 0 0 0
354 1 1 0 2.363 23.309 3.000 0 0 0
355 1 1 0 3.060 22.074 3.000 0 0 0
356 1 1 0 2.338 20.853 3.000 0 0 0
357 1 1 0 3.035 19.618 3.000 0 0 0
358 1 1 0 2.313 18.398 3.000 0 0 0
359 1 1 0 3.010 17.162 3.000 0 0 0
360 1 1 0 2.289 15.942 3.000 0 0 0
361 1 1 0 2.985 14.707 3.000 0 0 0
362 1 1 0 2.264 13.486 3.000 0 0 0
363 1 1 0 2.960 12.251 3.000 0 0 0
364 1 1 0 2.239 11.030 3.000 0 0 0
365 1 1 0 2.935 9.795 3.000 0 0 0
366 1 1 0 2.214 8.574 3.000 0 0 0
367 1 1 0 2.910 7.339 3.000 0 0 0
368 1 1 0 2.189 6.118 3.000 0 0 0
369 1 1 0 2.886 4.883 3.000 0 0 0
370 1 1 0 2.164 3.662 3.000 0 0 0
371 1 1 0 2.861 2.427 3.000 0 0 0
372 1 1 0 2.139 1.206 3.000 0 0 0
373 1 1 0 7.089 209.927 3.000 0 0 0
374 1 1 0 6.368 208.706 3.000 0 0 0
375 1 1 0 7.065 207.471 3.000 0 0 0
376 1 1 0 6.343 206.250 3.000 0 0 0
377 1 1 0 7.040 205.015 3.000 0 0 0
378 1 1 0 6.318 203.794 3.000 0 0 0
379 1 1 0 7.015 202.559 3.000 0 0 0
380 1 1 0 6.293 201.339 3.000 0 0 0
381 1 1 0 6.990 200.103 3.000 0 0 0
382 1 1 0 6.269 198.883 3.000 0 0 0
383 1 1 0 6.965 197.648 3.000 0 0 0
384 1 1 0 6.244 196.427 3.000 0 0 0
385 1 1 0 6.940 195.192 3.000 0 0 0
386 1 1 0 6.219 193.971 3.000 0 0 0
387 1 1 0 6.915 192.736 3.000 0 0 0
388 1 1 0 6.194 191.515 3.000 0 0 0
389 1 1 0 6.890 190.280 3.000 0 0 0
390 1 1 0 6.169 189.059 3.000 0 0 0
391 1 1 0 6.866 187.824 3.000 0 0 0
392 1 1 0 6.144 186.603 3.000 0 0 0
393 1 1 0 6.841 185.368 3.000 0 0 0
394 1 1 0 6.119 184.147 3.000 0 0 0
395 1 1 0 6.816 182.912 3.000 0 0 0
396 1 1 0 6.094 181.692 3.000 0 0 0
397 1 1 0 6.791 180.456 3.000 0 0 0
398 1 1 0 6.070 179.236 3.000 0 0 0
399 1 1 0 6.766 178.001 3.000 0 0 0
400 1 1 0 6.045 176.780 3.000 0 0 0
401 1 1 0 6.741 175.545 3.000 0 0 0
402 1 1 0 6.020 174.324 3.000 0 0 0
403 1 1 0 6.716 173.089 3.000 0 0 0
404 1 1 0 5.995 171.868 3.000 0 0 0
405 1 1 0 6.691 170.633 3.000 0 0 0
406 1 1 0 5.970 169.412 3.000 0 0 0
407 1 1 0 6.667 168.177 3.000 0 0 0
408 1 1 0 5.945 166.956 3.000 0 0 0
409 1 1 0 6.642 165.721 3.000 0 0 0
410 1 1 0 5.920 164.500 3.000 0 0 0
411 1 1 0 6.617 163.265 3.000 0 0 0
412 1 1 0 5.895 162.045 3.000 0 0 0
413 1 1 0 6.592 160.809 3.000 0 0 0
414 1 1 0 5.871 159.589 3.000 0 0 0
415 1 1 0 6.567 158.354 3.000 0 0 0
416 1 1 0 5.846 157.133 3.000 0 0 0
417 1 1 0 6.542 155.898 3.000 0 0 0
418 1 1 0 5.821 154.677 3.000 0 0 0
419 1 1 0 6.517 153.442 3.000 0 0 0
420 1 1 0 5.796 152.221 3.000 0 0 0
421 1 1 0 6.492 150.986 3.000 0 0 0
422 1 1 0 5.771 149.765 3.000 0 0 0
423 1 1 0 6.468 148.530 3.000 0 0 0
424 1 1 0 5.746 147.309 3.000 0 0 0
425 1 1 0 6.443 146.074 3.000 0 0 0
426 1 1 0 5.721 144.853 3.000 0 0 0
427 1 1 0 6.418 143.618 3.000 0 0 0
428 1 1 0 5.696 142.398 3.000 0 0 0
429 1 1 0 6.393 141.162 3.000 0 0 0
430 1 1 0 5.672 139.942 3.000 0 0 0
431 1 1 0 6.368 138.707 3.000 0 0 0
432 1 1 0 5.647 137.486 3.000 0 0 0
433 1 1 0 6.343 136.251 3.000 0 0 0
434 1 1 0 5.622 135.030 3.000 0 0 0
435 1 1 0 6.318 133.795 3.000 0 0 0
436 1 1 0 5.597 132.574 3.000 0 0 0
437 1 1 0 6.293 131.339 3.000 0 0 0
438 1 1 0 5.572 130.118 3.000 0 0 0
439 1 1 0 6.269 128.883 3.000 0 0 0
440 1 1 0 5.547 127.662 3.000 0 0 0
441 1 1 0 6.244 126.427 3.000 0 0 0
442 1 1 0 5.522 125.206 3.000 0 0 0
443 1 1 0 6.219 123.971 3.000 0 0 0
444 1 1 0 5.497 122.751 3.000 0 0 0
445 1 1 0 6.194 121.515 3.000 0 0 0
446 1 1 0 5.473 120.295 3.000 0 0 0
447 1 1 0 6.169 119.060 3.000 0 0 0
448 1 1 0 5.448 117.839 3.000 0 0 0
449 1 1 0 6.144 116.604 3.000 0 0 0
450 1 1 0 5.423 115.383 3.000 0 0 0
451 1 1 0 6.119 114.148 3.000 0 0 0
452 1 1 0 5.398 112.927 3.000 0 0 0
453 1 1 0 6.094 111.692 3.000 0 0 0
454 1 1 0 5.373 110.471 3.000 0 0 0
455 1 1 0 6.070 109.236 3.000 0 0 0
456 1 1 0 5.348 108.015 3.000 0 0 0
457 1 1 0 6.045 106.780 3.000 0 0 0
458 1 1 0 5.323 105.559 3.000 0 0 0
459 1 1 0 6.020 104.324 3.000 0 0 0
460 1 1 0 5.298 103.104 3.000 0 0 0
461 1 1 0 5.995 101.869 3.000 0 0 0
462 1 1 0 5.274 100.648 3.000 0 0 0
463 1 1 0 5.970 99.413 3.000 0 0 0
464 1 1 0 5.249 98.192 3.000 0 0 0
465 1 1 0 5.945 96.957 3.000 0 0 0
466 1 1 0 5.224 95.736 3.000 0 0 0
467 1 1 0 5.920 94.501 3.000 0 0 0
468 1 1 0 5.199 93.280 3.000 0 0 0
469 1 1 0 5.895 92.045 3.000 0 0 0
470 1 1 0 5.174 90.824 3.000 0 0 0
471 1 1 0 5.871 89.589 3.000 0 0 0
472 1 1 0 5.149 88.368 3.000 0 0 0
473 1 1 0 5.846 87.133 3.000 0 0 0
474 1 1 0 5.124 85.913 3.000 0 0 0
475 1 1 0 5.821 84.677 3.000 0 0 0
476 1 1 0 5.099 83.457 3.000 0 0 0
477 1 1 0 5.796 82.222 3.000 0 0 0
478 1 1 0 5.075 81.001 3.000 0 0 0
479 1 1 0 5.771 79.766 3.000 0 0 0
480 1 1 0 5.050 78.545 3.000 0 0 0
481 1 1 0 5.746 77.310 3.000 0 0 0
482 1 1 0 5.025 76.089 3.000 0 0 0
483 1 1 0 5.721 74.854 3.000 0 0 0
484 1 1 0 5.000 73.633 3.000 0 0 0
485 1 1 0 5.696 72.398 3.000 0 0 0
486 1 1 0 4.975 71.177 3.000 0 0 0
487 1 1 0 5.672 69.942 3.000 0 0 0
488 1 1 0 4.950 68.721 3.000 0 0 0
489 1 1 0 5.647 67.486 3.000 0 0 0
490 1 1 0 4.925 66.266 3.000 0 0 0
491 1 1 0 5.622 65.030 3.000 0 0 0
492 1 1 0 4.900 63.810 3.000 0 0 0
493 1 1 0 5.597 62.575 3.000 0 0 0
494 1 1 0 4.876 61.354 3.000 0 0 0
495 1 1 0 5.572 60.119 3.000 0 0 0
496 1 1 0 4.851 58.898 3.000 0 0 0
497 1 1 0 5.547 57.663 3.000 0 0 0
498 1 1 0 4.826 56.442 3.000 0 0 0
499 1 1 0 5.522 55.207 3.000 0 0 0
500 1 1 0 4.801 53.986 3.000 0 0 0
501 1 1 0 5.497 52.751 3.000 0 0 0
502 1 1 0 4.776 51.530 3.000 0 0 0
503 1 1 0 5.473 50.295 3.000 0 0 0
504 1 1 0 4.751 49.074 3.000 0 0 0
505 1 1 0 5.448 47.839 3.000 0 0 0
506 1 1 0 4.726 46.619 3.000 0 0 0
507 1 1 0 5.423 45.383 3.000 0 0 0
508 1 1 0 4.701 44.163 3.000 0 0 0
509 1 1 0 5.398 42.928 3.000 0 0 0
510 1 1 0 4.677 41.707 3.000 0 0 0
511 1 1 0 5.373 40.472 3.000 0 0 0
512 1 1 0 4.652 39.251 3.000 0 0 0
513 1 1 0 5.348 38.016 3.000 0 0 0
514 1 1 0 4.627 36.795 3.000 0 0 0
515 1 1 0 5.323 35.560 3.000 0 0 0
516 1 1 0 4.602 34.339 3.000 0 0 0
517 1 1 0 5.298 33.104 3.000 0 0 0
518 1 1 0 4.577 31.883 3.000 0 0 0
519 1 1 0 5.274 30.648 3.000 0 0 0
520 1 1 0 4.552 29.427 3.000 0 0 0
521 1 1 0 5.249 28.192 3.000 0 0 0
522 1 1 0 4.527 26.972 3.000 0 0 0
523 1 1 0 5.224 25.736 3.000 0 0 0
524 1 1 0 4.502 24.516 3.000 0 0 0
525 1 1 0 5.199 23.281 3.000 0 0 0
526 1 1 0 4.478 22.060 3.000 0 0 0
527 1 1 0 5.174 20.825 3.000 0 0 0
528 1 1 0 4.453 19.604 3.000 0 0 0
529 1 1 0 5.149 18.369 3.000 0 0 0
530 1 1 0 4.428 17.148 3.000 0 0 0
531 1 1 0 5.124 15.913 3.000 0 0 0
532 1 1 0 4.403 14.692 3.000 0 0 0
533 1 1 0 5.099 13.457 3.000 0 0 0
534 1 1 0 4.378 12.236 3.000 0 0 0
535 1 1 0 5.075 11.001 3.000 0 0 0
536 1 1 0 4.353 9.780 3.000 0 0 0
537 1 1 0 5.050 8.545 3.000 0 0 0
538 1 1 0 4.328 7.325 3.000 0 0 0
539 1 1 0 5.025 6.089 3.000 0 0 0
540 1 1 0 4.303 4.869 3.000 0 0 0
541 1 1 0 5.000 3.634 3.000 0 0 0
542 1 1 0 4.279 2.413 3.000 0 0 0
543 1 1 0 4.975 1.178 3.000 0 0 0
544 1 1 0 8.507 209.913 3.000 0 0 0
545 1 1 0 9.204 208.677 3.000 0 0 0
546 1 1 0 8.483 207.457 3.000 0 0 0
547 1 1 0 9.179 206.222 3.000 0 0 0
548 1 1 0 8.458 205.001 3.000 0 0 0
549 1 1 0 9.154 203.766 3.000 0 0 0
550 1 1 0 8.433 202.545 3.000 0 0 0
551 1 1 0 9.129 201.310 3.000 0 0 0
552 1 1 0 8.408 200.089 3.000 0 0 0
553 1 1 0 9.104 198.854 3.000 0 0 0
554 1 1 0 8.383 197.633 3.000 0 0 0
555 1 1 0 9.080 196.398 3.000 0 0 0
556 1 1 0 8.358 195.177 3.000 0 0 0
557 1 1 0 9.055 193.942 3.000 0 0 0
558 1 1 0 8.333 192.721 3.000 0 0 0
559 1 1 0 9.030 191.486 3.000 0 0 0
560 1 1 0 8.308 190.266 3.000 0 0 0
561 1 1 0 9.005 189.030 3.000 0 0 0
562 1 1 0 8.284 187.810 3.000 0 0 0
563 1 1 0 8.980 186.575 3.000 0 0 0
564 1 1 0 8.259 185.354 3.000 0 0 0
565 1 1 0 8.955 184.119 3.000 0 0 0
566 1 1 0 8.234 182.898 3.000 0 0 0
567 1 1 0 8.930 181.663 3.000 0 0 0
568 1 1 0 8.209 180.442 3.000 0 0 0
569 1 1 0 8.905 179.207 3.000 0 0 0
570 1 1 0 8.184 177.986 3.000 0 0 0
571 1 1 0 8.881 176.751 3.000 0 0 0
572 1 1 0 8.159 175.530 3.000 0 0 0
573 1 1 0 8.856 174.295 3.000 0 0 0
574 1 1 0 8.134 173.074 3.000 0 0 0
575 1 1 0 8.831 171.839 3.000 0 0 0
576 1 1 0 8.109 170.619 3.000 0 0 0
577 1 1 0 8.806 169.383 3.000 0 0 0
578 1 1 0 8.085 168.163 3.000 0 0 0
579 1 1 0 8.781 166.928 3.000 0 0 0
580 1 1 0 8.060 165.707 3.000 0 0 0
581 1 1 0 8.756 164.472 3.000 0 0 0
582 1 1 0 8.035 163.251 3.000 0 0 0
583 1 1 0 8.731 162.016 3.000 0 0 0
584 1 1 0 8.010 160.795 3.000 0 0 0
585 1 1 0 8.706 159.560 3.000 0 0 0
586 1 1 0 7.985 158.339 3.000 0 0 0
587 1 1 0 8.682 157.104 3.000 0 0 0
588 1 1 0 7.960 155.883 3.000 0 0 0
589 1 1 0 8.657 154.648 3.000 0 0 0
590 1 1 0 7.935 153.427 3.000 0 0 0
591 1 1 0 8.632 152.192 3.000 0 0 0
592 1 1 0 7.910 150.972 3.000 0 0 0
593 1 1 0 8.607 149.737 3.000 0 0 0
594 1 1 0 7.886 148.516 3.000 0 0 0
595 1 1 0 8.582 147.281 3.000 0 0 0
596 1 1 0 7.861 146.060 3.000 0 0 0
597 1 1 0 8.557 144.825 3.000 0 0 0
598 1 1 0 7.836 143.604 3.000 0 0 0
599 1 1 0 8.532 142.369 3.000 0 0 0
600 1 1 0 7.811 141.148 3.000 0 0 0
601 1 1 0 8.507 139.913 3.000 0 0 0
602 1 1 0 7.786 138.692 3.000 0 0 0
603 1 1 0 8.483 137.457 3.000 0 0 0
604 1 1 0 7.761 136.236 3.000 0 0 0
605 1 1 0 8.458 135.001 3.000 0 0 0
606 1 1 0 7.736 133.781 3.000 0 0 0
607 1 1 0 8.433 132.545 3.000 0 0 0
608 1 1 0 7.711 131.325 3.000 0 0 0
609 1 1 0 8.408 130.090 3.000 0 0 0
610 1 1 0 7.687 128.869 3.000 0 0 0
611 1 1 0 8.383 127.634 3.000 0 0 0
612 1 1 0 7.662 126.413 3.000 0 0 0
613 1 1 0 8.358 125.178 3.000 0 0 0
614 1 1 0 7.637 123.957 3.000 0 0 0
615 1 1 0 8.333 122.722 3.000 0 0 0
616 1 1 0 7.612 121.501 3.000 0 0 0
617 1 1 0 8.308 120.266 3.000 0 0 0
618 1 1 0 7.587 119.045 3.000 0 0 0
619 1 1 0 8.284 117.810 3.000 0 0 0
620 1 1 0 7.562 116.589 3.000 0 0 0
621 1 1 0 8.259 115.354 3.000 0 0 0
622 1 1 0 7.537 114.134 3.000 0 0 0
623 1 1 0 8.234 112.898 3.000 0 0 0
624 1 1 0 7.512 111.678 3.000 0 0 0
625 1 1 0 8.209 110.443 3.000 0 0 0
626 1 1 0 7.488 109.222 3.000 0 0 0
627 1 1 0 8.184 107.987 3.000 0 0 0
628 1 1 0 7.463 106.766 3.000 0 0 0
629 1 1 0 8.159 105.531 3.000 0 0 0
630 1 1 0 7.438 104.310 3.000 0 0 0
631 1 1 0 8.134 103.075 3.000 0 0 0
632 1 1 0 7.413 101.854 3.000 0 0 0
633 1 1 0 8.109 100.619 3.000 0 0 0
634 1 1 0 7.388 99.398 3.000 0 0 0
635 1 1 0 8.085 98.163 3.000 0 0 0
636 1 1 0 7.363 96.942 3.000 0 0 0
637 1 1 0 8.060 95.707 3.000 0 0 0
638 1 1 0 7.338 94.487 3.000 0 0 0
639 1 1 0 8.035 93.251 3.000 0 0 0
640 1 1 0 7.313 92.031 3.000 0 0 0
641 1 1 0 8.010 90.796 3.000 0 0 0
642 1 1 0 7.289 89.575 3.000 0 0 0
643 1 1 0 7.985 88.340 3.000 0 0 0
644 1 1 0 7.264 87.119 3.000 0 0 0
645 1 1 0 7.960 85.884 3.000 0 0 0
646 1 1 0 7.239 84.663 3.000 0 0 0
647 1 1 0 7.935 83.428 3.000 0 0 0
648 1 1 0 7.214 82.207 3.000 0 0 0
649 1 1 0 7.910 80.972 3.000 0 0 0
650 1 1 0 7.189 79.751 3.000 0 0 0
651 1 1 0 7.886 78.516 3.000 0 0 0
652 1 1 0 7.164 77.295 3.000 0 0 0
653 1 1 0 7.861 76.060 3.000 0 0 0
654 1 1 0 7.139 74.840 3.000 0 0 0
655 1 1 0 7.836 73.604 3.000 0 0 0
656 1 1 0 7.114 72.384 3.000 0 0 0
657 1 1 0 7.811 71.149 3.000 0 0 0
658 1 1 0 7.089 69.928 3.000 0 0 0
659 1 1 0 7.786 68.693 3.000 0 0 0
660 1 1 0 7.065 67.472 3.000 0 0 0
661 1 1 0 7.761 66.237 3.000 0 0 0
662 1 1 0 7.040 65.016 3.000 0 0 0
663 1 1 0 7.736 63.781 3.000 0 0 0
664 1 1 0 7.015 62.560 3.000 0 0 0
665 1 1 0 7.711 61.325 3.000 0 0 0
666 1 1 0 6.990 60.104 3.000 0 0 0
667 1 1 0 7.687 58.869 3.000 0 0 0
668 1 1 0 6.965 57.648 3.000 0 0 0
669 1 1 0 7.662 56.413 3.000 0 0 0
670 1 1 0 6.940 55.193 3.000 0 0 0
671 1 1 0 7.637 53.957 3.000 0 0 0
672 1 1 0 6.915 52.737 3.000 0 0 0
673 1 1 0 7.612 51.502 3.000 0 0 0
674 1 1 0 6.890 50.281 3.000 0 0 0
675 1 1 0 7.587 49.046 3.000 0 0 0
676 1 1 0 6.866 47.825 3.000 0 0 0
677 1 1 0 7.562 46.590 3.000 0 0 0
678 1 1 0 6.841 45.369 3.000 0 0 0
679 1 1 0 7.537 44.134 3.000 0 0 0
680 1 1 0 6.816 42.913 3.000 0 0 0
681 1 1 0 7.512 41.678 3.000 0 0 0
682 1 1 0 6.791 40.457 3.000 0 0 0
683 1 1 0 7.488 39.222 3.000 0 0 0
684 1 1 0 6.766 38.001 3.000 0 0 0
685 1 1 0 7.463 36.766 3.000 0 0 0
686 1 1 0 6.741 35.546 3.000 0 0 0
687 1 1 0 7.438 34.310 3.000 0 0 0
688 1 1 0 6.716 33.090 3.000 0 0 0
689 1 1 0 7.413 31.855 3.000 0 0 0
690 1 1 0 6.691 30.634 3.000 0 0 0
691 1 1 0 7.388 29.399 3.000 0 0 0
692 1 1 0 6.667 28.178 3.000 0 0 0
693 1 1 0 7.363 26.943 3.000 0 0 0
694 1 1 0 6.642 25.722 3.000 0 0 0
695 1 1 0 7.338 24.487 3.000 0 0 0
696 1 1 0 6.617 23.266 3.000 0 0 0
697 1 1 0 7.313 22.031 3.000 0 0 0
698 1 1 0 6.592 20.810 3.000 0 0 0
699 1 1 0 7.289 19.575 3.000 0 0 0
700 1 1 0 6.567 18.354 3.000 0 0 0
701 1 1 0 7.264 17.119 3.000 0 0 0
702 1 1 0 6.542 15.899 3.000 0 0 0
703 1 1 0 7.239 14.663 3.000 0 0 0
704 1 1 0 6.517 13.443 3.000 0 0 0
705 1 1 0 7.214 12.208 3.000 0 0 0
706 1 1 0 6.492 10.987 3.000 0 0 0
707 1 1 0 7.189 9.752 3.000 0 0 0
708 1 1 0 6.468 8.531 3.000 0 0 0
709 1 1 0 7.164 7.296 3.000 0 0 0
710 1 1 0 6.443 6.075 3.000 0 0 0
711 1 1 0 7.139 4.840 3.000 0 0 0
712 1 1 0 6.418 3.619 3.000 0 0 0
713 1 1 0 7.114 2.384 3.000 0 0 0
714 1 1 0 6.393 1.163 3.000 0 0 0
715 1 1 0 11.343 209.884 3.000 0 0 0
716 1 1 0 10.622 208.663 3.000 0 0 0
717 1 1 0 11.318 207.428 3.000 0 0 0
718 1 1 0 10.597 206.207 3.000 0 0 0
719 1 1 0 11.293 204.972 3.000 0 0 0
720 1 1 0 10.572 203.751 3.000 0 0 0
721 1 1 0 11.269 202.516 3.000 0 0 0
722 1 1 0 10.547 201.295 3.000 0 0 0
723 1 1 0 11.244 200.060 3.000 0 0 0
724 1 1 0 10.522 198.840 3.000 0 0 0
725 1 1 0 11.219 197.605 3.000 0 0 0
726 1 1 0 10.497 196.384 3.000 0 0 0
727 1 1 0 11.194 195.149 3.000 0 0 0
728 1 1 0 10.473 193.928 3.000 0 0 0
729 1 1 0 11.169 192.693 3.000 0 0 0
730 1 1 0 10.448 191.472 3.000 0 0 0
731 1 1 0 11.144 190.237 3.000 0 0 0
732 1 1 0 10.423 189.016 3.000 0 0 0
733 1 1 0 11.119 187.781 3.000 0 0 0
734 1 1 0 10.398 186.560 3.000 0 0 0
735 1 1 0 11.094 185.325 3.000 0 0 0
736 1 1 0 10.373 184.104 3.000 0 0 0
737 1 1 0 11.070 182.869 3.000 0 0 0
738 1 1 0 10.348 181.649 3.000 0 0 0
739 1 1 0 11.045 180.413 3.000 0 0 0
740 1 1 0 10.323 179.193 3.000 0 0 0
741 1 1 0 11.020 177.958 3.000 0 0 0
742 1 1 0 10.298 176.737 3.000 0 0 0
743 1 1 0 10.995 175.502 3.000 0 0 0
744 1 1 0 10.274 174.281 3.000 0 0 0
745 1 1 0 10.970 173.046 3.000 0 0 0
746 1 1 0 10.249 171.825 3.000 0 0 0
747 1 1 0 10.945 170.590 3.000 0 0 0
748 1 1 0 10.224 169.369 3.000 0 0 0
749 1 1 0 10.920 168.134 3.000 0 0 0
750 1 1 0 10.199 166.913 3.000 0 0 0
751 1 1 0 10.895 165.678 3.000 0 0 0
752 1 1 0 10.174 164.457 3.000 0 0 0
753 1 1 0 10.871 163.222 3.000 0 0 0
754 1 1 0 10.149 162.002 3.000 0 0 0
755 1 1 0 10.846 160.766 3.000 0 0 0
756 1 1 0 10.124 159.546 3.000 0 0 0
757 1 1 0 10.821 158.311 3.000 0 0 0
758 1 1 0 10.099 157.090 3.000 0 0 0
759 1 1 0 10.796 155.855 3.000 0 0 0
760 1 1 0 10.075 154.634 3.000 0 0 0
761 1 1 0 10.771 153.399 3.000 0 0 0
762 1 1 0 10.050 152.178 3.000 0 0 0
763 1 1 0 10.746 150.943 3.000 0 0 0
764 1 1 0 10.025 149.722 3.000 0 0 0
765 1 1 0 10.721 148.487 3.000 0 0 0
766 1 1 0 10.000 147.266 3.000 0 0 0
767 1 1 0 10.696 146.031 3.000 0 0 0
768 1 1 0 9.975 144.810 3.000 0 0 0
769 1 1 0 10.672 143.575 3.000 0 0 0
770 1 1 0 9.950 142.355 3.000 0 0 0
771 1 1 0 10.647 141.119 3.000 0 0 0
772 1 1 0 9.925 139.899 3.000 0 0 0
773 1 1 0 10.622 138.664 3.000 0 0 0
774 1 1 0 9.900 137.443 3.000 0 0 0
775 1 1 0 10.597 136.208 3.000 0 0 0
776 1 1 0 9.876 134.987 3.000 0 0 0
777 1 1 0 10.572 133.752 3.000 0 0 0
778 1 1 0 9.851 132.531 3.000 0 0 0
779 1 1 0 10.547 131.296 3.000 0 0 0
780 1 1 0 9.826 130.075 3.000 0 0 0
781 1 1 0 10.522 128.840 3.000 0 0 0
782 1 1 0 9.801 127.619 3.000 0 0 0
783 1 1 0 10.497 126.384 3.000 0 0 0
784 1 1 0 9.776 125.163 3.000 0 0 0
785 1 1 0 10.473 123.928 3.000 0 0 0
786 1 1 0 9.751 122.708 3.000 0 0 0
787 1 1 0 10.448 121.472 3.000 0 0 0
788 1 1 0 9.726 120.252 3.000 0 0 0
789 1 1 0 10.423 119.017 3.000 0 0 0
790 1 1 0 9.701 117.796 3.000 0 0 0
791 1 1 0 10.398 116.561 3.000 0 0 0
792 1 1 0 9.677 115.340 3.000 0 0 0
793 1 1 0 10.373 114.105 3.000 0 0 0
794 1 1 0 9.652 112.884 3.000 0 0 0
795 1 1 0 10.348 111.649 3.000 0 0 0
796 1 1 0 9.627 110.428 3.000 0 0 0
797 1 1 0 10.323 109.193 3.000 0 0 0
798 1 1 0 9.602 107.972 3.000 0 0 0
799 1 1 0 10.298 106.737 3.000 0 0 0
800 1 1 0 9.577 105.516 3.000 0 0 0
801 1 1 0 10.274 104.281 3.000 0 0 0
802 1 1 0 9.552 103.061 3.000 0 0 0
803 1 1 0 10.249 101.825 3.000 0 0 0
804 1 1 0 9.527 100.605 3.000 0 0 0
805 1 1 0 10.224 99.370 3.000 0 0 0
806 1 1 0 9.502 98.149 3.000 0 0 0
807 1 1 0 10.199 96.914 3.000 0 0 0
808 1 1 0 9.478 95.693 3.000 0 0 0
809 1 1 0 10.174 94.458 3.000 0 0 0
810 1 1 0 9.453 93.237 3.000 0 0 0
811 1 1 0 10.149 92.002 3.000 0 0 0
812 1 1 0 9.428 90.781 3.000 0 0 0
813 1 1 0 10.124 89.546 3.000 0 0 0
814 1 1 0 9.403 88.325 3.000 0 0 0
815 1 1 0 10.099 87.090 3.000 0 0 0
816 1 1 0 9.378 85.869 3.000 0 0 0
817 1 1 0 10.075 84.634 3.000 0 0 0
818 1 1 0 9.353 83.414 3.000 0 0 0
819 1 1 0 10.050 82.178 3.000 0 0 0
820 1 1 0 9.328 80.958 3.000 0 0 0
821 1 1 0 10.025 79.723 3.000 0 0 0
822 1 1 0 9.303 78.502 3.000 0 0 0
823 1 1 0 10.000 77.267 3.000 0 0 0
824 1 1 0 9.279 76.046 3.000 0 0 0
825 1 1 0 9.975 74.811 3.000 0 0 0
826 1 1 0 9.254 73.590 3.000 0 0 0
827 1 1 0 9.950 72.355 3.000 0 0 0
828 1 1 0 9.229 71.134 3.000 0 0 0
829 1 1 0 9.925 69.899 3.000 0 0 0
830 1 1 0 9.204 68.678 3.000 0 0 0
831 1 1 0 9.900 67.443 3.000 0 0 0
832 1 1 0 9.179 66.222 3.000 0 0 0
833 1 1 0 9.876 64.987 3.000 0 0 0
834 1 1 0 9.154 63.767 3.000 0 0 0
835 1 1 0 9.851 62.531 3.000 0 0 0
836 1 1 0 9.129 61.311 3.000 0 0 0
837 1 1 0 9.826 60.076 3.000 0 0 0
838 1 1 0 9.104 58.855 3.000 0 0 0
839 1 1 0 9.801 57.620 3.000 0 0 0
840 1 1 0 9.080 56.399 3.000 0 0 0
841 1 1 0 9.776 55.164 3.000 0 0 0