ITEM: TIMESTEP
107
ITEM: NUMBER OF ATOMS
15608
ITEM: BOX BOUNDS pp pp pp
0.0000000000000000e+00 1.0863695199999999e+02
0.0000000000000000e+00 1.8816472099999999e+02
0.0000000000000000e+00 1.8399999600000001e+01
ITEM: ATOMS id type x y z c_csym c_2[1] c_2[2] c_2[3] c_2[4] c_2[5] c_2[6] c_3 
1 1 1.46364e-06 -4.3523e-07 7.34014 6.04811 -4560.17 -4660.7 12.7503 -12.6311 -0.106232 -0.0815065 -7.41134 
2 1 2.15084 1.19255 7.34107 6.04638 -6611.2 -2607.08 50.5073 -862.542 2019.35 -3727.12 -7.41137 
3 1 3.57052 1.16812 7.34228 6.04357 -5607.2 -3829.78 -65.4924 5089.19 1512.48 -5507.33 -7.4114 
4 1 6.40968 1.11972 7.34633 6.04149 -8745.88 -805.285 332.59 4024.68 2803.78 -10394.2 -7.41156 
5 1 7.82936 1.09636 7.34903 6.0396 -7461.42 -1623.44 -372.357 18073.1 -269.774 -10962 -7.41158 
52 1 0.04264 2.45899 7.34107 6.04522 -6396.55 -2807.09 -12.4719 -1323.59 3855.98 -90.5726 -7.41137 
53 1 1.46233 2.43436 7.34138 6.04522 -4284.77 -4827.02 19.4335 269.161 4112.67 -2217.11 -7.41138 
54 1 2.19324 3.65169 7.34288 6.04331 -10766 1678.81 34.2959 -3491.99 5524.27 -4051.47 -7.41142 
55 1 3.61291 3.62727 7.34406 6.04174 -7766.09 -1592.2 -156.113 2502.94 5772.55 -4964.22 -7.41145 
56 1 4.30144 2.38546 7.34377 6.0445 -11202.3 1483.06 280.855 -329.563 4062.68 -7536.73 -7.41147 
57 1 5.7211 2.36147 7.34577 6.04092 -8985.22 -523.037 -411.192 9911.73 2815.16 -8003.16 -7.41148 
58 1 6.4516 3.57909 7.34798 6.04282 -16925 7543.34 858.49 1526.26 6011.49 -11192.3 -7.41165 
59 1 7.87124 3.55573 7.35058 6.038 -13390.6 4563.93 -1180.35 15400.7 3724.28 -9762.49 -7.41156 
60 1 8.55989 2.31401 7.3511 6.03947 -14196.3 5136.21 1052.4 8168.56 5118.25 -13644.6 -7.41176 
154 1 0.0848412 4.91802 7.34377 6.04225 -8146.35 -816.379 -213.55 -5355.3 7068.65 -161.55 -7.41144 
155 1 1.50453 4.89342 7.34406 6.04341 -4110.97 -4879.66 213.597 -3735.25 8432.73 -2054.33 -7.41147 
156 1 2.23499 6.11099 7.34633 6.04081 -14675.4 5762.81 -246.698 -8580.13 8296.53 -4278.96 -7.4115 
157 1 3.65465 6.0866 7.34743 6.03935 -9774.28 600.679 24.0366 -2646.07 9991.49 -4333.17 -7.41157 
158 1 4.34338 4.84487 7.34633 6.04166 -17293 7833.09 361.048 -4187.31 7102.3 -8013.93 -7.41155 
159 1 5.76302 4.82089 7.34823 6.03837 -13058.8 3675.29 -686.465 5892.05 6990.03 -7034.53 -7.41153 
160 1 6.49293 6.03885 7.3511 6.0395 -24803.1 15462.9 1108.42 -3605.09 8512.99 -11765 -7.41176 
161 1 7.91254 6.01549 7.35354 6.03434 -19234.9 10571.8 -1707.87 10062.4 7748.42 -8401.43 -7.41162 
162 1 8.6012 4.77372 7.35333 6.03959 -23906 14867.7 1905.26 4305.05 7791.01 -14528.9 -7.41188 
256 1 0.126209 7.37709 7.34796 6.03914 -9793.38 1067.4 -764.789 -11404.6 9476.3 -224.822 -7.41152 
257 1 1.54591 7.35254 7.34824 6.04171 -4043.52 -4778.92 753.362 -9817.16 12572.9 -1860.82 -7.41164 
258 1 2.27576 8.57044 7.35108 6.03871 -18231.3 9533.98 -951.329 -15436.1 10242.4 -4431.92 -7.4116 
259 1 3.69542 8.54612 7.35209 6.03682 -11795.8 2569.44 619.725 -9794.88 13946.2 -3631.37 -7.41176 
260 1 4.38452 7.30454 7.35033 6.03933 -23017 13756 87.3154 -10229.8 9362.86 -8334.81 -7.41165 
261 1 5.80414 7.28059 7.35208 6.03494 -16964.8 7740.58 -607.189 -486.145 11035.7 -5947.92 -7.41166 
262 1 6.53329 8.49897 7.35543 6.03645 -31998.2 22863.5 916.315 -10685.5 10231.4 -12144.7 -7.41187 
263 1 7.95289 8.47562 7.35766 6.03037 -24745.4 16284.8 -1792.1 2485.43 11592 -6917.94 -7.41175 
264 1 8.64176 7.2339 7.35681 6.03552 -33031.2 24188.6 2381.31 -1936.44 9724.45 -15167.7 -7.41202 
6 1 10.6684 1.04991 7.35542 6.03438 -9595.76 702.488 778.628 15630.6 4472.11 -15303.9 -7.41187 
7 1 12.0881 1.02828 7.35893 6.03569 -8358.11 -129.991 -857.439 35777.1 -2947.12 -14672.9 -7.41185 
8 1 14.9272 0.984543 7.36633 6.02651 -10398.6 1580.28 1279.85 32060.5 6818.22 -18227.3 -7.41225 
9 1 16.3468 0.965075 7.37005 6.02887 -8992.87 1219.15 -1418.04 56246.6 -6121.06 -16738.3 -7.41214 
61 1 9.97954 2.29144 7.35424 6.03776 -11749.1 3087.54 -1283.41 25473.4 361.44 -12346.3 -7.41167 
62 1 10.7096 3.50946 7.3568 6.03773 -21083.3 11953.9 2289.05 13098 7261.43 -16517.6 -7.41202 
63 1 12.1292 3.48781 7.36019 6.03537 -17286.3 9076.04 -2771.75 33133.8 675.372 -13056.1 -7.41175 
64 1 12.8182 2.24634 7.36124 6.03213 -16474.3 7395.5 2112.35 22444.6 6944.75 -17723.9 -7.41214 
65 1 14.2378 2.22574 7.36486 6.03408 -13865.5 5648.32 -2441.36 44862.3 -2813.62 -15041.7 -7.41192 
66 1 14.9673 3.44422 7.36744 6.03019 -23723.3 14640 4059.45 29552 9208.03 -19738.6 -7.41248 
67 1 16.3869 3.42471 7.37102 6.03286 -19525.7 12332.4 -4658.55 53643.6 -2858.79 -14929.3 -7.41195 
68 1 17.0764 2.18358 7.37231 6.02419 -17278.1 8891.05 3288.2 40700.1 9348.7 -19867.1 -7.41257 
163 1 10.0208 4.75114 7.35632 6.03486 -19208.4 10829.8 -2485.42 21416.5 4241.83 -10815.8 -7.41165 
164 1 10.7501 5.96957 7.35944 6.03586 -31990.4 22923.1 3504.19 7879.71 9369.12 -17460.2 -7.41219 
165 1 12.1697 5.94788 7.36263 6.03109 -25897.5 18199.4 -4386.1 27661.7 4422.37 -11268.1 -7.41171 
166 1 12.8586 4.70626 7.36307 6.03501 -28755.2 19576.4 4107.04 18496.6 9200.28 -18970.7 -7.41234 
167 1 14.2782 4.68562 7.36653 6.033 -23582.5 15870.6 -4873.79 40728.6 732.265 -13220.7 -7.4118 
168 1 15.0068 5.90455 7.36959 6.03154 -36529.4 27439.4 6528.34 24182.3 10923.9 -21005.9 -7.41272 
169 1 16.4264 5.88496 7.37297 6.02981 -29772.7 23323.1 -7580.14 48033.2 609.341 -12978 -7.41181 
170 1 17.1157 4.64365 7.37377 6.02719 -31040.7 22320.3 6623.67 36677.8 11242.3 -21360.6 -7.41285 
265 1 10.0613 7.2113 7.3596 6.03013 -26303.9 18434.5 -3306.15 14762.7 8090.9 -9131.78 -7.4117 
266 1 10.7898 8.43021 7.3631 6.03126 -41982.4 33270.6 4241.29 525.952 10737.3 -18156.7 -7.41234 
267 1 12.2093 8.40847 7.36605 6.02613 -33966.3 26911.8 -5514.39 19716.2 8098.68 -9347.23 -7.41174 
268 1 12.8983 7.1668 7.36595 6.03193 -40241.3 31383.6 5696.91 12060 10743.4 -19961 -7.41254 
269 1 14.3178 7.14609 7.36918 6.02751 -32806.6 25974.6 -6892.88 33850.4 4348.02 -11256 -7.41174 
270 1 15.0456 8.36553 7.37259 6.02802 -48485.2 39661.2 8483.66 16533.7 11918.7 -22037.8 -7.41294 
271 1 16.4651 8.34582 7.37573 6.02425 -39586.1 33956.4 -9974.81 39756.3 4101.29 -10909.3 -7.41174 
272 1 17.1544 7.1044 7.37611 6.02791 -44043.5 35386.2 9535.35 29975.3 12426.9 -22638.2 -7.41312 
10 1 19.186 0.924486 7.37742 6.01847 -10473.9 2422.92 1773.45 51705.6 9560.93 -19487 -7.41262 
11 1 20.6057 0.907383 7.38092 6.02062 -9248.7 2052.33 -1945.83 77780.9 -9411.27 -17516.2 -7.41244 
12 1 23.4449 0.870132 7.38763 6.01069 -10462.9 2799.95 2210.98 73081.3 12390.9 -19450.8 -7.41295 
13 1 24.8646 0.85544 7.39069 6.01232 -9261.48 2736.41 -2370.41 99256.3 -12512 -17263.5 -7.41271 
69 1 18.496 2.16527 7.37589 6.02684 -14508.2 7546.44 -3683.93 66088.8 -6261.12 -16365.6 -7.41217 
70 1 19.225 3.38423 7.37829 6.02227 -24829.1 16135.9 5927.78 49189.8 11635.4 -21138.1 -7.41294 
71 1 20.6446 3.36706 7.38165 6.02517 -20627.9 13903.4 -6563.06 75249.9 -6446.81 -15685 -7.41215 
72 1 21.3347 2.12637 7.38296 6.01626 -17881.9 9383.14 4441.05 61406.7 12037.4 -20463.3 -7.41297 
73 1 22.7543 2.11046 7.38619 6.01858 -15016.5 8463.29 -4837.65 87770.5 -9626.98 -16623.5 -7.4124 
74 1 23.4827 3.32989 7.3883 6.01439 -24917.4 16287.9 7685.57 70588 14235.5 -21085.1 -7.41336 
75 1 24.9023 3.31513 7.39121 6.0169 -20620.1 14545.6 -8268.94 96786.1 -9784.88 -15531.9 -7.41233 
76 1 25.5931 2.07491 7.39242 6.00866 -17707.4 9474.71 5454.89 83233 14707.3 -19824.8 -7.41332 
77 1 27.0127 2.06137 7.39514 6.01039 -14917.7 8792.05 -5793.98 108856 -12655.5 -15980.7 -7.41261 
171 1 18.5353 4.62525 7.37719 6.03172 -25492.3 19066.6 -7482.72 61894.9 -3014.75 -14463.8 -7.41195 
172 1 19.2634 5.84468 7.38002 6.02433 -38672.6 29550.7 9767.19 43669.8 13030.9 -22602.9 -7.41326 
173 1 20.683 5.82739 7.38319 6.02877 -31674.6 25713.6 -10853.1 69585.1 -3222.39 -13746.8 -7.41191 
174 1 21.3728 4.58649 7.38413 6.01926 -32182.5 22954.3 9143.93 57324.7 13657.6 -22046 -7.41334 
175 1 22.7924 4.57047 7.38719 6.02377 -26336.4 20389.5 -9982.03 83614 -6627.11 -14782.4 -7.41209 
176 1 23.52 5.79037 7.38971 6.01641 -38884 29558.9 12853.1 64966.6 15395.1 -22588.5 -7.41376 
177 1 24.9396 5.77546 7.39243 6.02165 -31661.5 26325.8 -13846.8 91102.9 -6769.44 -13719.6 -7.412 
178 1 25.6301 4.53502 7.39336 6.01157 -31689.6 22466.1 11409.5 79114.1 16130.9 -21348.6 -7.41376 
179 1 27.0497 4.52136 7.39591 6.01553 -25788.7 20323.2 -12135.5 104725 -9861.73 -14297.7 -7.41221 
273 1 18.5739 7.08587 7.37932 6.02677 -36019.6 30464.1 -10844.8 54852.5 376.967 -12446.1 -7.41179 
274 1 19.3011 8.30583 7.38247 6.02446 -51719.7 42550.4 13071.8 35661.9 13699.3 -23876.4 -7.41356 
275 1 20.7206 8.28837 7.38542 6.02413 -42327.2 37312.9 -14592.8 61087.9 89.1898 -11712.2 -7.41174 
276 1 21.4104 7.04732 7.38604 6.02169 -45752.9 36324.4 13419.4 50385.6 14560 -23468.1 -7.4137 
277 1 22.8299 7.03113 7.3889 6.02578 -37223.4 32241.3 -14684.4 76469.8 -3436.68 -12851.2 -7.41184 
278 1 23.5566 8.25155 7.39173 6.01936 -52102.5 42527.9 17484.3 56649.5 15813.4 -23951.2 -7.41415 
279 1 24.9761 8.23642 7.39426 6.02313 -42317.7 37976.9 -18874.1 82430.4 -3631.41 -11828.6 -7.41173 
280 1 25.6665 6.99583 7.39495 6.01395 -45007.2 35309 16948.8 71968 16829.7 -22761.2 -7.4142 
281 1 27.0861 6.98197 7.39731 6.01951 -36280.7 31851.4 -18048.2 97441.5 -6855.62 -12543.6 -7.41187 
14 1 27.7041 0.821513 7.3964 6.00352 -10474.8 3059.91 2547.41 94952.2 15038 -18352.2 -7.41323 
15 1 29.1237 0.809153 7.39892 6.0044 -9346.56 3180.68 -2666.81 119596 -15209 -16121.3 -7.41292 
16 1 31.9633 0.778363 7.40351 5.99734 -10389.4 3222.37 2751.73 115934 17315.3 -16378.7 -7.41343 
17 1 33.383 0.768133 7.40546 5.99731 -9312.29 3510.55 -2833.8 137704 -17390.7 -14230.7 -7.41309 
78 1 27.7407 3.28126 7.39692 6.007 -24274.8 15667.7 9170.18 92476.6 16714.1 -19847.5 -7.4137 
79 1 29.1603 3.26882 7.39928 6.00883 -19994.5 14269.7 -9647.53 117180 -12677.9 -14574.5 -7.41247 
80 1 29.8518 2.02907 7.40032 6.00179 -17167.1 9132.6 6243.13 104846 17112.5 -18168 -7.41359 
81 1 31.2714 2.01778 7.40247 6.00273 -14476.5 8582.69 -6503.33 128230 -15192.7 -14549.2 -7.41277 
82 1 31.9989 3.23808 7.40393 6.00025 -22964.9 14376.7 10287.8 113457 18864.3 -17659.2 -7.41397 
83 1 33.4185 3.22776 7.40572 6.00146 -18680.4 13358.9 -10648.7 135345 -15025.9 -12922.7 -7.41258 
84 1 34.1106 1.98845 7.40656 5.99545 -16194.2 8522.11 6772.28 124862 19108.6 -15717 -7.41378 
85 1 35.5302 1.97914 7.40816 5.99599 -13640.9 8031.7 -6962.55 144946 -17181 -12478.1 -7.41289 
180 1 27.7769 5.74169 7.39809 6.00895 -37601 28127.7 15503 86715.1 17707.2 -21254.8 -7.41418 
181 1 29.1964 5.72908 7.40026 6.01423 -30325.6 25355.7 -16324.8 111434 -9848.14 -12965.9 -7.41207 
182 1 29.8877 4.48913 7.40109 6.00449 -30259.7 20986.2 13242 100667 18394.5 -19527.2 -7.4141 
183 1 31.3072 4.4777 7.40308 6.00768 -24443.6 19097.5 -13814.7 124119 -12578.4 -13090.4 -7.41231 
184 1 32.0341 5.6984 7.40492 6.0023 -35029.2 25482.7 17555.7 107564 19742 -18883.1 -7.41451 
185 1 33.4536 5.6879 7.40654 6.00686 -27701.4 23217.1 -18183.3 129516 -12363.7 -11567.9 -7.41212 
186 1 34.1456 4.44842 7.40722 5.99835 -27764.1 18850.9 14570.3 120632 20288.1 -16852.4 -7.41435 
187 1 35.5651 4.43897 7.40866 6.0006 -22094.7 17079.1 -14993.4 140806 -14722.5 -11281.4 -7.41238 
282 1 27.8124 8.2028 7.3998 6.01189 -50241.9 40320.2 21316.3 78071 17950.9 -22565.8 -7.41465 
283 1 29.2319 8.18993 7.40179 6.01772 -40266.9 36369.4 -22471.9 102580 -6879.68 -11292.7 -7.41172 
284 1 29.923 6.94984 7.40244 6.00684 -42634.5 32738.6 19848.2 93304.8 18954.6 -20813.4 -7.41461 
285 1 31.3425 6.93818 7.40424 6.01237 -33899.5 29677.5 -20722.3 116733 -9744.93 -11575.5 -7.4119 
286 1 32.0686 8.15935 7.40641 6.0052 -46393.8 36396.2 24334.5 98652.6 19874.1 -20045.8 -7.41504 
287 1 33.4881 8.14856 7.40785 6.01096 -36282.4 33077.4 -25221.1 120505 -9558.32 -10161.8 -7.41172 
288 1 34.18 6.90897 7.4084 6.00066 -38655.4 29055.9 22004.9 113072 20758.5 -17943.3 -7.41492 
289 1 35.5995 6.89928 7.40967 6.00595 -30028.8 26237.5 -22651.2 133329 -12047.1 -10042.2 -7.41193 
18 1 36.2228 0.740134 7.40897 5.99153 -10289.9 3377.69 2822.99 134787 19134.5 -13754 -7.41357 
19 1 37.6424 0.731734 7.41039 5.99137 -9310.95 3677.58 -2883.88 152849 -19040.9 -11779.3 -7.41321 
20 1 40.4824 0.706067 7.41292 5.98702 -9975.24 3591.17 2783.65 150597 20490.8 -10720.2 -7.41365 
21 1 41.902 0.699132 7.41389 5.98675 -9068.14 3838.31 -2837.93 164481 -20205.5 -8966.17 -7.4133 
22 1 44.7422 0.675263 7.41558 5.98391 -9535.86 3718.68 2664.89 162860 21427.6 -7481.59 -7.4137 
86 1 36.2575 3.19979 7.40932 5.99393 -21112 12730.6 11028 132255 20587.6 -14784.2 -7.41415 
87 1 37.6771 3.1913 7.41059 5.99511 -16939.2 11822.8 -11290.1 150463 -16814.9 -10735.6 -7.41267 
88 1 38.3698 1.95239 7.41122 5.99008 -15149.7 7683.74 7060.47 142283 20649.3 -12727.8 -7.41391 
89 1 39.7894 1.94473 7.41233 5.99047 -12612.5 7362.94 -7200.95 158363 -18641.2 -9955.29 -7.41297 
90 1 40.5164 3.16565 7.41325 5.98882 -18708.3 10940.5 11442.7 148017 21873.9 -11491.2 -7.41427 
91 1 41.9359 3.15862 7.41407 5.99001 -14664.4 9984.87 -11630.1 162026 -18089.2 -8191.7 -7.41272 
92 1 42.6291 1.92005 7.4145 5.986 -13700.5 6780.82 7157.67 156377 21757.3 -9439.43 -7.41399 
93 1 44.0487 1.91366 7.4152 5.98629 -11204.6 6478.42 -7265.62 168099 -19635.1 -7157.71 -7.41303 
94 1 44.7756 3.13477 7.41592 5.98503 -15880.1 8924.82 11608.8 160226 22763.5 -7997.59 -7.41433 
188 1 36.2918 5.65997 7.4102 5.99672 -31423.7 22086.1 18987.4 126250 21387.3 -15780.6 -7.41474 
189 1 37.7113 5.65128 7.41131 6.00013 -24198.8 20052.9 -19439.1 144546 -14299 -9658.78 -7.41216 
190 1 38.4039 4.41225 7.41182 5.99252 -24739.6 16088 15423.8 137949 21756.1 -13615.4 -7.41452 
191 1 39.8234 4.40445 7.41277 5.99463 -19100.5 14595.1 -15723.9 154153 -16312.1 -9033.55 -7.41243 
192 1 40.5499 5.62566 7.41407 5.99161 -26910.1 18276.9 19875.6 141890 22623 -12244.3 -7.41489 
193 1 41.9695 5.61843 7.41474 5.99453 -19809 16318.9 -20185.2 156012 -15692.7 -7396.02 -7.4122 
194 1 42.6626 4.37978 7.41508 5.98787 -20996.3 13068.5 15891.2 151904 22815.2 -10075.4 -7.41463 
195 1 44.0822 4.37325 7.41563 5.98993 -15408.2 11676.9 -16097.1 163801 -17405.9 -6507.93 -7.41247 
196 1 44.8086 5.59459 7.41673 5.98735 -21735.7 14147.2 20341.3 153983 23482.4 -8506.13 -7.41498 
290 1 36.3254 8.12069 7.41154 5.9996 -41084.5 31305.5 26492.9 117148 21454.4 -16742.1 -7.41533 
291 1 37.7449 8.1117 7.41249 6.00502 -31025.3 28327.3 -27128.4 135382 -11642 -8544.22 -7.41172 
292 1 38.4375 6.87259 7.4129 5.99566 -33644.2 24449.5 23451.7 130219 22172 -14478.9 -7.41513 
293 1 39.857 6.86453 7.4137 5.99999 -25043.1 21910.7 -23902.6 146531 -13772.9 -8082.87 -7.41194 
294 1 40.5828 8.0861 7.41533 5.99519 -34462.3 25495 27888.1 132570 22656.8 -12980.7 -7.41551 
295 1 42.0023 8.07857 7.41584 6.00016 -24510.1 22674.8 -28314.5 146728 -13160.4 -6575.77 -7.41172 
296 1 42.6956 6.83988 7.41611 5.99109 -27652.8 19333.1 24313.9 144069 23200.4 -10701 -7.41526 
297 1 44.1151 6.8331 7.41651 5.99476 -19119.8 16999.7 -24609.2 156043 -14974.5 -5841.36 -7.41196 
298 1 44.841 8.05473 7.41795 5.99091 -26999.4 19222.6 28679.9 144492 23502.1 -9009.67 -7.41563 
394 1 38.4703 9.33341 7.41437 5.99904 -42063.4 32484.9 30941.4 119561 21846.2 -15315.1 -7.41572 
395 1 39.8898 9.32501 7.41501 6.00462 -30766.2 29168 -31540.8 135798 -11161.8 -7098.84 -7.41151 
398 1 42.7278 9.30036 7.41751 5.99528 -33851.5 25336.9 32233.9 133213 22859.4 -11315.2 -7.41589 
399 1 44.1473 9.29322 7.41776 6.00036 -22594.7 22285.5 -32616.9 145163 -12474.8 -5154.73 -7.41151 
23 1 46.1618 0.669397 7.41617 5.98352 -8666.63 3893.25 -2720.01 172322 -20954.8 -5953.13 -7.41335 
24 1 49.002 0.646756 7.41716 5.98215 -9082.38 3709.8 2495.56 171335 22002.3 -4172.71 -7.41372 
25 1 50.4216 0.641549 7.41744 5.98171 -8245.44 3714.99 -2551.26 176275 -21352.2 -2841.96 -7.41339 
26 1 53.2619 0.619545 7.41782 5.98115 -8509.09 3504.83 2297.09 175889 22262.8 -861.599 -7.41372 
95 1 46.1951 3.12882 7.41637 5.98624 -11919.6 7941.84 -11741.7 169787 -18917.9 -5441.28 -7.41276 
96 1 46.8887 1.89049 7.41661 5.98315 -12039.9 5792.33 7118.68 166724 22486 -6026.91 -7.41403 
97 1 48.3083 1.88497 7.41697 5.98349 -9640.83 5313.94 -7203.01 173957 -20232.7 -4214.51 -7.41307 
98 1 49.0351 3.10618 7.41754 5.98262 -12966.3 6689.74 11599.6 168582 23311.6 -4441.72 -7.41436 
99 1 50.4547 3.10089 7.41767 5.98383 -9032.89 5631.75 -11687.9 173649 -19364.9 -2583.68 -7.41279 
100 1 51.1485 1.86273 7.41774 5.98168 -10127.6 4565.24 6987.52 173170 22889.6 -2589.29 -7.41404 
101 1 52.5681 1.85766 7.4178 5.98204 -7783.47 3911.61 -7049.34 175894 -20488 -1199.44 -7.41309 
102 1 53.2949 3.07889 7.41824 5.98151 -9886.39 4256.33 11467.5 173012 23565 -889.534 -7.41437 
197 1 46.2282 5.58843 7.41703 5.9902 -14730.9 12179.9 -20540.7 163672 -16610.1 -4918.61 -7.41222 
198 1 46.9218 4.35008 7.4172 5.98451 -16883.7 9866.34 16074.8 162157 23514.3 -6415.96 -7.41468 
199 1 48.3413 4.34442 7.41742 5.98654 -11411.6 8380.59 -16207.1 169553 -18072.4 -3827.27 -7.4125 
200 1 49.0678 5.5658 7.41836 5.98434 -16328.6 9695.4 20501.6 162232 24015.4 -4709.72 -7.41502 
201 1 50.4874 5.56031 7.41836 5.98678 -9389.32 7714.47 -20611.5 167407 -17113.6 -2323.72 -7.41224 
202 1 51.1813 4.32218 7.41837 5.98245 -12554.7 6487.97 16056.3 168524 23905.1 -2737.44 -7.4147 
203 1 52.6009 4.31697 7.41829 5.98406 -7157.13 4784.32 -16124.5 171357 -18365.6 -1066.69 -7.41252 
204 1 53.3275 5.53831 7.4191 5.98273 -10756.2 5018.08 20438.9 166554 24266.6 -920.589 -7.41503 
299 1 46.2605 8.04826 7.4181 5.99499 -17146.6 16468.5 -28940.7 154243 -14172.4 -4383.39 -7.41173 
300 1 46.9543 6.80993 7.41823 5.98718 -21113.9 13951.5 24736.3 154207 23884.7 -6802.97 -7.41534 
301 1 48.3739 6.80402 7.4183 5.99043 -12697.5 11582.4 -24908.5 161679 -15716.8 -3433.87 -7.41198 
302 1 49.0999 8.02563 7.41957 5.9874 -19142.2 12575.1 29025.9 152640 24032.2 -4979.16 -7.41568 
303 1 50.5195 8.01983 7.41942 5.99091 -9347.97 9848.61 -29152.4 157850 -14737 -2062.55 -7.41174 
304 1 51.2137 6.78177 7.41941 5.9846 -14345.3 8362.21 24839.6 160444 24271.6 -2888.36 -7.41536 
305 1 52.6333 6.77632 7.41918 5.98734 -6003.86 5834.62 -24906.6 163390 -16052.6 -937.238 -7.41199 
306 1 53.3595 7.99782 7.42032 5.98526 -11181.9 5732.01 29040.4 156876 24287.1 -956.79 -7.4157 
402 1 46.9861 9.27005 7.41959 5.99111 -24965.5 17783.3 32922 143207 23542.4 -7188.13 -7.41598 
403 1 48.4057 9.26377 7.41952 5.99538 -13806.7 14754.2 -33132.3 150668 -13296.5 -3032.98 -7.41151 
406 1 51.2453 9.24151 7.42077 5.98802 -15714.6 9953.67 33162.3 149340 23934.2 -3042.47 -7.41602 
407 1 52.6649 9.2357 7.4204 5.99174 -4640.57 6831.46 -33226.2 152256 -13677.3 -812.117 -7.41152 
27 1 54.6815 0.614581 7.41781 5.98122 -7727.62 3246.5 -2347.5 176279 -21438.4 317.822 -7.4134 
28 1 57.5219 0.592625 7.41762 5.98103 -7804.62 2948.61 2082.06 176469 22233.6 2425.49 -7.4137 
29 1 58.9415 0.587489 7.41733 5.98165 -7088.2 2405.19 -2119.42 172356 -21224.1 3504.05 -7.41341 
30 1 61.7819 0.564988 7.41653 5.98232 -7017.03 2058.25 1857.82 173109 21909.6 5670.81 -7.41367 
31 1 63.2016 0.559264 7.41593 5.98328 -6293.75 1366.91 -1873.4 164503 -20689.6 6691.11 -7.4134 
103 1 54.7145 3.07384 7.41809 5.9823 -6005.08 2985.83 -11511.3 173549 -19472.1 327.72 -7.41281 
104 1 55.4084 1.83576 7.41799 5.98088 -8230.39 3081.13 6791.91 175665 23005.1 832.193 -7.41403 
105 1 56.8281 1.83073 7.41777 5.98149 -5904.91 2166.65 -6825.66 173866 -20427.9 1852.7 -7.4131 
106 1 57.555 3.05188 7.41809 5.98102 -6681.53 1514.98 11238.6 173482 23548 2637.33 -7.41435 
107 1 58.9746 3.04666 7.41766 5.98217 -2851.73 -108.958 -11230.4 169496 -19250.7 3264.54 -7.41281 
108 1 59.6685 1.80857 7.41738 5.98119 -6331.65 1232.28 6544.82 174238 22843 4222.34 -7.41401 
109 1 61.0882 1.80317 7.41687 5.98234 -4027.02 98.128 -6540.8 167918 -20047.8 4918.78 -7.4131 
110 1 61.8153 3.02415 7.41706 5.98176 -3437.17 -1563.47 10915.5 170068 23257.2 6125.93 -7.41431 
111 1 63.235 3.01834 7.41631 5.98345 407.753 -3385.61 -10842.2 161532 -18681.7 6194.52 -7.41281 
205 1 54.7471 5.53306 7.41881 5.98468 -3832.49 2856.3 -20465.3 167192 -17245.2 330.972 -7.41225 
206 1 55.4413 4.29507 7.41866 5.98178 -8148.56 2794.62 15887 170919 24023.7 921.841 -7.41469 
207 1 56.8609 4.2899 7.41831 5.98296 -2772.52 865.784 -15888.9 169218 -18313.2 1733.63 -7.41253 
208 1 57.5877 5.51109 7.419 5.98236 -5107.48 74.7927 20194.4 166947 24260.3 2842.55 -7.41501 
209 1 59.0073 5.50567 7.41843 5.98401 1774.21 -2422.11 -20130.7 163027 -17016.6 3009.79 -7.41226 
210 1 59.7016 4.26773 7.41811 5.98158 -3758.95 -1261.12 15583.2 169386 23881.5 4551.2 -7.41466 
211 1 61.1212 4.26218 7.41745 5.98325 1627.6 -3452.15 -15507.2 163201 -17910.9 4543 -7.41253 
212 1 61.8483 5.48315 7.41801 5.98255 593.858 -5132.83 19765.6 163451 23994.7 6570.45 -7.41497 
213 1 63.268 5.47715 7.41713 5.98473 7497.82 -7989.19 -19594 154995 -16408.5 5672.62 -7.41227 
307 1 54.7791 7.99226 7.41989 5.98826 -1408.1 2826.98 -29044.6 157500 -14895.6 324.804 -7.41175 
308 1 55.4736 6.7544 7.41973 5.98341 -7477.05 2484.12 24697.8 162740 24395.4 1005.71 -7.41536 
309 1 56.8933 6.74898 7.41924 5.98569 839.379 -327.819 -24660.6 161147 -16009.4 1601.6 -7.412 
310 1 57.6198 7.97028 7.42024 5.98453 -3083.74 -1413.66 28777.8 157182 24290.5 3040.12 -7.41568 
311 1 59.0395 7.96456 7.41954 5.98704 6666.55 -4698.93 -28653.9 153282 -14659.7 2734.67 -7.41176 
312 1 59.7341 6.7268 7.41921 5.98329 -672.356 -3779.91 24331.9 161152 24268.7 4870.87 -7.41532 
313 1 61.1539 6.721 7.41843 5.98544 7697.62 -6872.49 -24177.1 154995 -15583.4 4143.68 -7.41201 
314 1 61.8807 7.94201 7.41929 5.98462 4996.56 -8859.16 28232.3 153622 24042.8 7003.38 -7.41562 
315 1 63.3005 7.93571 7.41828 5.98725 14798.5 -12520.5 -27958.1 145207 -14009.9 5118.07 -7.41177 
410 1 55.5052 9.21376 7.4211 5.98636 -6480.73 1874.74 33051 151552 24065.9 1083.21 -7.41602 
411 1 56.925 9.20798 7.42047 5.98954 4604.54 -1554.96 -32972.9 149895 -13644.2 1453.54 -7.41153 
414 1 59.766 9.18578 7.4206 5.98606 2704.95 -6574.62 32615.7 149919 23950.6 5181.29 -7.41598 
415 1 61.1858 9.17963 7.41969 5.98876 13843.7 -10338.8 -32380.1 143697 -13193.1 3716 -7.41154 
32 1 66.042 0.535633 7.41445 5.98504 -6242.25 961.058 1627.99 165874 21256 8832.97 -7.41361 
33 1 67.4616 0.528908 7.41347 5.98592 -5548.74 119.738 -1615.73 152818 -19790.1 9818.2 -7.41336 
34 1 70.3019 0.503571 7.41118 5.98918 -5479.31 -195.666 1393.03 154872 20213.1 11819.3 -7.41352 
35 1 71.7216 0.495446 7.40976 5.98999 -4855.08 -1149.17 -1352.84 137530 -18467.7 12763.6 -7.4133 
112 1 63.9288 1.78017 7.41584 5.98291 -4332.46 -768.72 6244.12 168902 22383.8 7557.84 -7.41396 
113 1 65.3484 1.77397 7.41499 5.9844 -2078.99 -2199.22 -6190.58 158103 -19314.1 7956.65 -7.41309 
114 1 66.0758 2.99469 7.41501 5.98394 -266.952 -4787.83 10478.6 162791 22660.3 9537.53 -7.41424 
115 1 67.4955 2.98789 7.4139 5.98598 3588.28 -6793.4 -10324.9 149807 -17719.5 9052.2 -7.41279 
116 1 68.1891 1.74955 7.41321 5.98608 -2348.83 -2947.69 5875.41 159730 21580.8 10774.7 -7.41387 
117 1 69.6087 1.74215 7.41195 5.98754 -125.329 -4523.06 -5763.58 144581 -18173.6 10876.2 -7.41305 
118 1 70.3365 2.96254 7.41177 5.98759 2570.77 -7929.75 9889.42 151787 21701.1 12777 -7.41412 
119 1 71.7562 2.95434 7.41022 5.98963 6378.72 -10188.2 -9642.89 134556 -16306.4 11716.6 -7.41275 
214 1 63.9622 4.23917 7.41661 5.98276 673.35 -5482.14 15129.8 163979 23461.5 8130.29 -7.4146 
215 1 65.3819 4.23284 7.41562 5.98497 6053.09 -8005.38 -14957.3 153318 -17125.2 7312.58 -7.41253 
216 1 66.1093 5.45349 7.41601 5.98423 6046.61 -10511.6 19110.7 156152 23441.6 10225.2 -7.41488 
217 1 67.5291 5.4465 7.41477 5.98691 12965.1 -13630 -18806.8 143286 -15375.5 8248.19 -7.41226 
218 1 68.2231 4.2084 7.41401 5.98543 4831.23 -9740.21 14480.7 154848 22721 11595.3 -7.4145 
219 1 69.6429 4.20087 7.41263 5.98805 10217.6 -12493.7 -14192 139784 -15902.5 9949.49 -7.41251 
220 1 70.3707 5.42114 7.4128 5.98739 10995.3 -15703.6 18151.5 145190 22550.3 13708 -7.41473 
221 1 71.7905 5.41275 7.41113 5.99055 17906.8 -19160 -17691.7 128108 -13861.1 10616.3 -7.41225 
316 1 63.9952 6.69797 7.41776 5.98396 6106.31 -10218.8 23713.6 155711 23877.4 8688.91 -7.41525 
317 1 65.415 6.69139 7.41664 5.98662 14480.8 -13673 -23415.8 145068 -14740.6 6632.73 -7.41202 
318 1 66.1423 7.91203 7.41733 5.9858 12696.5 -16400 27338.6 146343 23520.8 10894.7 -7.41551 
319 1 67.5621 7.90474 7.41596 5.98892 22529.1 -20493.4 -26881.2 133507 -12901.4 7397.47 -7.41179 
320 1 68.2567 6.66694 7.41521 5.98614 12466.7 -16592 22765.1 146625 23184.6 12393.6 -7.41512 
321 1 69.6765 6.65917 7.4137 5.98928 20887.8 -20382.3 -22294.4 131590 -13428.4 8972.48 -7.41202 
322 1 70.4044 7.87937 7.41417 5.98853 19656.4 -23692.7 25983 135507 22682 14609.6 -7.41534 
323 1 71.8243 7.8707 7.41238 5.99208 29473.6 -28133.3 -25307.6 118458 -11279.4 9453.36 -7.4118 
418 1 64.0275 9.15657 7.41918 5.98638 11698.5 -15135.1 31813.2 144478 23578.4 9232.97 -7.41589 
419 1 65.4473 9.14963 7.41794 5.98945 22854.9 -19396.5 -31388.1 133797 -12290 5910.58 -7.41156 
422 1 68.2896 9.12517 7.41667 5.98809 20217.6 -23700.3 30536.9 135421 22919.5 13167.8 -7.41574 
423 1 69.7095 9.11705 7.41505 5.99162 31405.5 -28385 -29882.9 120438 -10884.1 7937.8 -7.41158 
36 1 74.5618 0.46786 7.40649 5.99469 -4487.66 -1214.49 1152.15 140287 18710.6 14472.7 -7.41339 
37 1 75.9815 0.457964 7.40456 5.99539 -3942.68 -2217.34 -1092.21 119148 -16674.5 15338.8 -7.41319 
38 1 78.8217 0.427655 7.40019 6.00146 -3981.23 -2217.68 906.28 122640 16697.1 16587.3 -7.4132 
39 1 80.2413 0.415672 7.3977 6.0012 -3475.67 -3104.71 -841.814 98499.8 -14403.5 17315.9 -7.41303 
120 1 72.4494 1.71574 7.40926 5.99068 -569.706 -5122.03 5415.19 146914 20368 13745.2 -7.41375 
121 1 73.8691 1.70676 7.40752 5.99208 1710.73 -6622.57 -5243.11 127665 -16569.7 13524 -7.41298 
122 1 74.5973 2.92675 7.40709 5.99268 5303.16 -10740.5 9098.72 137273 20313.2 15677.2 -7.41395 
123 1 76.017 2.91678 7.40503 5.9943 9040.63 -13150.1 -8757.14 116247 -14395.9 14009.5 -7.41269 
124 1 76.7098 1.67786 7.40378 5.99667 924.092 -6911.55 4840.57 130781 18681.3 16276.6 -7.41357 
125 1 78.1295 1.66693 7.40151 5.99734 3085.7 -8559.67 -4616.73 108046 -14471 15693.8 -7.41287 
126 1 78.8581 2.88647 7.40078 5.99913 7104.18 -13183.4 8066.26 119758 18448.8 18011.7 -7.41371 
127 1 80.2779 2.87442 7.39817 5.99975 10823.7 -15551.2 -7641.63 95757 -11981.9 15724.3 -7.41258 
128 1 80.9701 1.63511 7.39662 6.00382 1910.63 -8335.98 4139.5 111945 16494.1 18142.4 -7.41332 
222 1 72.4843 4.17446 7.4101 5.98958 8563.72 -13843.2 13568.1 142098 21598.8 14811.7 -7.41434 
223 1 73.904 4.16534 7.40824 5.99213 14020.6 -16608.5 -13149.3 122959 -14188.1 12305.2 -7.41247 
224 1 74.6324 5.38516 7.40816 5.99209 15382.9 -20336.6 16793.9 130851 21261.4 16840.6 -7.41452 
225 1 76.0523 5.37502 7.40599 5.9945 22248.1 -24002.2 -16165.3 109973 -11821.5 12608.4 -7.41222 
226 1 76.7456 4.13645 7.40464 5.9952 11566.6 -17259.9 12322.7 126083 20036.5 17571.7 -7.41411 
227 1 78.1654 4.1254 7.40225 5.99674 16909 -20278 -11774.6 103510 -11952.9 14189 -7.41241 
228 1 78.8943 5.34474 7.4019 5.99822 18383 -24168.5 14958.9 113538 19535.1 19375.6 -7.41422 
229 1 80.3142 5.33253 7.39919 5.99962 25231.8 -27894.6 -14170.9 89718 -9254.99 14039 -7.41217 
230 1 81.007 4.09361 7.39749 6.00209 13544.6 -19807.6 10704.2 107434 18014.5 19622.1 -7.4138 
324 1 72.5187 6.63275 7.41134 5.98986 18040.6 -22598.3 21376.6 134007 22136.9 15843.4 -7.41493 
325 1 73.9385 6.62341 7.40937 5.99313 26515.4 -26545.9 -20707.9 114974 -11594.4 11019.3 -7.41201 
326 1 74.667 7.84313 7.40959 5.99283 25657.5 -30086.2 24027.7 121380 21477.5 17957.5 -7.41508 
327 1 76.0869 7.83271 7.40733 5.99586 35424.8 -34880.1 -23112.1 100619 -9104.91 11127.6 -7.41181 
328 1 76.781 6.59454 7.40594 5.99513 22534.8 -27647.7 19436.4 118215 20685.2 18813.6 -7.41465 
329 1 78.2008 6.58327 7.40346 5.99735 30877.5 -31937.6 -18562.8 95793.3 -9214.82 12598.2 -7.412 
330 1 78.9299 7.80248 7.40342 5.99866 29773.8 -35316.5 21362.5 104383 19879.8 20669.3 -7.41472 
331 1 80.3498 7.79001 7.40065 6.00066 39491.6 -40198.1 -20213.7 80780.8 -6382.26 12255.8 -7.41182 
332 1 81.0434 6.55153 7.39888 6.00176 25378 -31306.1 16880.7 99851.4 18821.4 21023.5 -7.41427 
426 1 72.5524 9.09065 7.41286 5.9914 27548.4 -31666.4 28637.3 123009 21932.1 16835 -7.4155 
427 1 73.9723 9.08096 7.41079 5.99521 38799 -36594.9 -27719.1 104067 -8926.88 9659.79 -7.41161 
430 1 76.8156 9.05214 7.40754 5.99632 33377.8 -38319.5 25967.3 107546 20580.2 19992.8 -7.41517 
431 1 78.2356 9.04056 7.405 5.99908 44419.8 -43691.8 -24771.7 85300.3 -6400.62 10918 -7.41165 
434 1 81.0791 9.00891 7.40063 6.00271 36995.9 -43018.5 22447.7 89607 18871.4 22331.7 -7.41473 
40 1 83.0814 0.382273 7.3922 6.00917 -3615.24 -3100.96 663.131 102675 14177.4 17955.3 -7.41296 
41 1 84.501 0.367983 7.38916 6.00811 -3153.71 -3810.77 -605.471 76706.6 -11724.6 18482.2 -7.4128 
42 1 87.3409 0.331278 7.38261 6.01743 -3557.86 -3796.01 443.033 81394.9 11253 18411.1 -7.41266 
43 1 88.7606 0.314578 7.37912 6.01575 -3273.82 -4482.78 -383.803 55222.9 -8799.46 18668.4 -7.41252 
129 1 82.3898 1.62198 7.39378 6.00358 3916.38 -10079.6 -3880.49 86755.1 -11904.6 17172.1 -7.41271 
130 1 83.119 2.84103 7.39276 6.00666 8132.41 -14935.8 6787.65 99999.9 16120.7 19541.8 -7.41339 
131 1 84.5387 2.82668 7.38962 6.00642 11773.5 -17245.3 -6302.02 74191.6 -9131.29 16681.1 -7.41242 
132 1 85.2303 1.58694 7.38778 6.01181 2467.95 -9339.55 3330.08 91254.3 13860.9 19135.6 -7.41301 
133 1 86.65 1.57143 7.38444 6.0108 4319.42 -11084.9 -3048.55 65048.2 -8981.84 17788.9 -7.4125 
134 1 87.3797 2.79 7.38317 6.01489 8256.4 -15755.8 5319.73 78917.9 13446 20063.5 -7.41301 
135 1 88.7995 2.77325 7.3796 6.01396 11623.4 -18235.1 -4792.86 52943 -5992.33 16750.6 -7.41223 
136 1 89.4904 1.53305 7.3775 6.0202 2294.2 -9960.34 2470 69819.8 10948.3 19088.6 -7.41264 
231 1 82.4268 4.08036 7.39456 6.00266 18675.7 -23108.6 -10046.6 82474.5 -9225.64 15413.7 -7.41232 
232 1 83.1563 5.2992 7.39395 6.00557 20056.1 -26776.6 12634.2 94050.9 17395.3 21040.5 -7.41384 
233 1 84.5761 5.2847 7.39075 6.00604 26743.1 -30572 -11719.9 68503 -6229.28 14757.2 -7.41209 
234 1 85.2684 4.04537 7.38868 6.00996 14395.9 -21313.6 8742.34 87024.3 15600.3 20718.4 -7.41341 