ITEM: TIMESTEP
0
ITEM: NUMBER OF ATOMS
15608
ITEM: BOX BOUNDS pp pp pp
0.0000000000000000e+00 1.0863695199999999e+02
0.0000000000000000e+00 1.8816472099999999e+02
0.0000000000000000e+00 1.8399999600000001e+01
ITEM: ATOMS id type x y z c_csym c_2[1] c_2[2] c_2[3] c_2[4] c_2[5] c_2[6] c_3 
1 1 0 0 7.5 6.04904 5040.8 4847.09 -158730 -44.6232 0.0513002 0.333786 -7.40754 
2 1 2.14378 1.20557 7.5 6.04912 4200.06 6257.45 -158157 -2062.41 3258.8 -5768.77 -7.40757 
3 1 3.56369 1.18949 7.5 6.04918 6358.73 3998.48 -157509 3513.94 2777.6 -8966.31 -7.40761 
4 1 6.40351 1.15734 7.5 6.04918 4340.35 5502.18 -154750 -5871.01 4129.46 -16618.2 -7.40777 
5 1 7.82342 1.14127 7.5 6.04918 6271.35 3487.83 -153488 7355.7 1076.78 -18664.1 -7.40785 
52 1 0.0278414 2.45935 7.5 6.04906 2652.85 7311.6 -158199 -80.4841 6252.52 -51.4744 -7.40757 
53 1 1.44775 2.44328 7.5 6.04911 7468.43 3034.31 -157995 1481.02 6522.75 -3555.81 -7.40757 
54 1 2.17163 3.66492 7.5 6.04912 1727.52 8670.02 -157082 -1990.56 9193.4 -6062.44 -7.40763 
55 1 3.59153 3.64885 7.5 6.0492 8492.62 1847.64 -156494 3643.06 9423.47 -8383.84 -7.40767 
56 1 4.28757 2.41113 7.5 6.04918 3061.09 7182.77 -156379 -3895.61 6566.02 -11639.7 -7.40768 
57 1 5.70748 2.39506 7.5 6.04918 7434.85 2802.67 -155602 5557.75 5318.56 -13559.5 -7.40772 
58 1 6.43135 3.6167 7.5 6.0492 1849.24 7788.73 -153343 -5603.41 9801.48 -17396.1 -7.40786 
59 1 7.85126 3.60062 7.5 6.0492 8438.24 1528.14 -153021 7599.75 7435.87 -17364.5 -7.40788 
60 1 8.5473 2.36291 7.5 6.04918 3195.48 6062.99 -151148 -7438.23 7725.55 -21974.3 -7.40799 
154 1 0.0556827 4.91871 7.5 6.04907 133.225 9622.19 -156712 -157.425 11893 -93.7137 -7.40766 
155 1 1.47559 4.90263 7.5 6.04912 9426.43 757.562 -156246 1596.36 13253.9 -3342.14 -7.40768 
156 1 2.19947 6.12427 7.5 6.04912 -808.819 10940.2 -155139 -1949.25 14408.9 -6274.52 -7.40775 
157 1 3.61938 6.1082 7.5 6.0492 10306.9 -362.714 -154260 3798.62 16063.3 -7702.12 -7.4078 
158 1 4.31541 4.87049 7.5 6.0492 522.987 9439.29 -154728 -3756.42 12064.8 -12101.2 -7.40777 
159 1 5.73532 4.85441 7.5 6.0492 9416.56 652.358 -154222 5782.25 11880.7 -12525.9 -7.40781 
160 1 6.45919 6.07605 7.5 6.0492 -712.635 9946.17 -151105 -5344.82 14765.3 -17959.6 -7.40799 
161 1 7.8791 6.05998 7.5 6.0492 10286.4 -481.306 -151386 7837.32 13822.7 -15860.1 -7.40798 
162 1 8.57514 4.82226 7.5 6.0492 623.871 8143.64 -149036 -7112.34 12862.3 -22848.8 -7.40812 
256 1 0.0835241 7.37806 7.5 6.04907 -2384.61 11873.4 -154449 -230.562 16717.6 -129.269 -7.4078 
257 1 1.50343 7.36199 7.5 6.04912 11060.4 -1463.47 -153241 1696.22 19850.8 -3092.86 -7.40786 
258 1 2.22731 8.58363 7.5 6.04912 -3294.22 13135.1 -152525 -1890.23 18733.3 -6413.39 -7.40791 
259 1 3.64722 8.56755 7.5 6.0492 11771.1 -2493.58 -150771 3917.32 22465.7 -6932.09 -7.40801 
260 1 4.34325 7.32984 7.5 6.0492 -2011.41 11636.2 -152318 -3587.54 16757.7 -12416.5 -7.40792 
261 1 5.76316 7.31377 7.5 6.0492 11075.7 -1435.57 -151621 5954.14 18333.5 -11345 -7.40796 
262 1 6.48704 8.53541 7.5 6.0492 -3225.32 12041.6 -148232 -5042.95 18859.5 -18324.5 -7.40816 
263 1 7.90694 8.51933 7.5 6.0492 11783.8 -2406.39 -148540 8004.88 20017 -14177.4 -7.40815 
264 1 8.60298 7.28162 7.5 6.0492 -1945.49 10183.9 -146222 -6731.63 17214.8 -23463.5 -7.40828 
6 1 10.6632 1.10912 7.5 6.04918 4498.04 4242.96 -148338 -9256.37 5925.37 -25697.7 -7.40816 
7 1 12.0831 1.09305 7.5 6.04918 6234.51 2580.81 -146916 10660.9 -1685.76 -26371.1 -7.40824 
8 1 14.923 1.0609 7.5 6.04918 4678.87 2629.89 -139597 -11996.7 8535.43 -32312.3 -7.40868 
9 1 16.3429 1.04482 7.5 6.04918 6257.3 1369.74 -138439 13221.1 -5293.6 -31648.7 -7.40875 
61 1 9.9672 2.34683 7.5 6.04918 7391.96 2205.42 -150592 9215.08 2868.92 -22031.7 -7.40802 
62 1 10.6911 3.56848 7.5 6.0492 1966.94 6291.63 -146293 -8836.63 11144.3 -26928.7 -7.40828 
63 1 12.111 3.5524 7.5 6.0492 8448.5 923.356 -147350 10986.2 4215.31 -24480.8 -7.40822 
64 1 12.807 2.31469 7.5 6.04918 3341.12 4463.89 -143076 -10464.4 9686.22 -30097 -7.40847 
65 1 14.2269 2.29861 7.5 6.04918 7409.58 1306.89 -143494 12202.4 -610.342 -28295.3 -7.40845 
66 1 14.9508 3.52025 7.5 6.0492 2098.18 4355.19 -136646 -11476.2 13193.3 -33940.4 -7.40886 
67 1 16.3707 3.50418 7.5 6.0492 8521.17 82.9407 -140057 13591.7 57.5726 -29331.3 -7.40866 
68 1 17.0668 2.26646 7.5 6.04918 3512.04 2539.94 -132944 -12781.8 12353.4 -35570.9 -7.40908 
163 1 9.99505 4.80619 7.5 6.0492 9415.27 312.858 -149979 9524.87 9070.02 -20293 -7.40806 
164 1 10.7189 6.02783 7.5 6.0492 -637.338 8233.32 -143491 -8402.29 15670.7 -27850.9 -7.40845 
165 1 12.1388 6.01176 7.5 6.0492 10343.1 -772.235 -146694 11282.1 10197.7 -22320.7 -7.40826 
166 1 12.8349 4.77404 7.5 6.0492 722.039 6271.81 -140231 -10001.5 14310.1 -31365 -7.40864 
167 1 14.2548 4.75797 7.5 6.0492 9482.12 -238.292 -143978 12566.3 5103.47 -26023 -7.40842 
168 1 14.9786 5.97961 7.5 6.0492 -561.043 5996.73 -133036 -10923.3 17174.1 -35214.4 -7.40908 
169 1 16.3986 5.96353 7.5 6.0492 10462.4 -1234.16 -140676 13921.8 5553.66 -26723.8 -7.40862 
170 1 17.0946 4.72582 7.5 6.0492 837.602 4004.8 -129129 -12237.4 16398.7 -37186.7 -7.40931 
265 1 10.0229 7.26554 7.5 6.0492 11115.7 -1509.35 -148204 9753.33 15214.5 -18326.3 -7.40817 
266 1 10.7468 8.48718 7.5 6.0492 -3195.04 10136.4 -140127 -7901.42 19361 -28483.2 -7.40865 
267 1 12.1667 8.47111 7.5 6.0492 11883.6 -2380.44 -144889 11485.7 16059 -19927 -7.40837 
268 1 12.8627 7.2334 7.5 6.0492 -1898.91 8063.94 -136770 -9461.41 18176.5 -32303.1 -7.40885 
269 1 14.2826 7.21732 7.5 6.0492 11228.5 -1706.19 -143377 12832.8 10831.1 -23483.4 -7.40846 
270 1 15.0065 8.43896 7.5 6.0492 -3181.12 7627.07 -128957 -10284 20354.4 -36152.6 -7.40932 
271 1 16.4264 8.42289 7.5 6.0492 12042.6 -2461.67 -140219 14151.1 11012.7 -23865.1 -7.40865 
272 1 17.1224 7.18517 7.5 6.0492 -1847.35 5477.06 -124798 -11600 19710.4 -38450.4 -7.40957 
10 1 19.1827 1.01268 7.5 6.04918 4890.48 771.466 -129320 -13932.3 11795.8 -36304.5 -7.4093 
11 1 20.6026 0.996601 7.5 6.04918 6340.65 -108.572 -128765 14909.9 -9483.56 -34542.6 -7.40934 
12 1 23.4424 0.964453 7.5 6.04918 5128.07 -1308.11 -118267 -14975.4 15500.8 -37923.2 -7.40997 
13 1 24.8623 0.948378 7.5 6.04918 6471.19 -1887.96 -118543 15677.2 -13977 -35382.7 -7.40995 
69 1 18.4867 2.25039 7.5 6.04918 7486.85 155.699 -134967 14352.8 -4832.98 -32181.4 -7.40896 
70 1 19.2105 3.47203 7.5 6.0492 2258.6 2121.32 -125247 -13361.1 15869.2 -38243.7 -7.40955 
71 1 20.6304 3.45596 7.5 6.0492 8643.81 -997.209 -131769 15296.6 -4695.04 -31971.4 -7.40915 
72 1 21.3265 2.21824 7.5 6.04918 3715.68 377.429 -121574 -14263.5 15579 -38455.2 -7.40977 
73 1 22.7464 2.20217 7.5 6.04918 7612.16 -1266.51 -125660 15585.5 -9488.56 -33911.2 -7.40952 
74 1 23.4703 3.42381 7.5 6.0492 2454.4 -351.63 -112917 -14391.7 19029.2 -40058.3 -7.41029 
75 1 24.8902 3.40773 7.5 6.0492 8792.52 -2384.71 -123052 16062.3 -9706.75 -32720.8 -7.40968 
76 1 25.5862 2.17002 7.5 6.04918 3946.93 -2022.97 -109708 -14848.3 19165.5 -39097.3 -7.41048 
77 1 27.0061 2.15394 7.5 6.04918 7762.3 -3031.64 -116130 15887.4 -14278.4 -33850.8 -7.4101 
171 1 18.5145 4.70974 7.5 6.0492 9603.24 -996.886 -136794 14743.5 345.129 -29568.6 -7.40885 
172 1 19.2384 5.93138 7.5 6.0492 -462.267 3406.04 -120617 -12746.7 19275.6 -39829.7 -7.40982 
173 1 20.6583 5.91531 7.5 6.0492 10617.6 -1914.77 -133865 15643.9 301.813 -29125.7 -7.40903 
174 1 21.3543 4.6776 7.5 6.0492 986.671 1460.79 -116601 -13686.4 19054.4 -40337.7 -7.41007 
175 1 22.7742 4.66152 7.5 6.0492 9754.09 -2020.23 -128989 15984.5 -4828.55 -31142.5 -7.40932 
176 1 23.4981 5.88316 7.5 6.0492 -325.961 549.438 -107106 -13762.6 21893 -41871.6 -7.41064 
177 1 24.918 5.86709 7.5 6.0492 10775 -2914.15 -126740 16418.4 -5172.85 -29818.9 -7.40946 
178 1 25.614 4.62937 7.5 6.0492 1174.08 -1329.86 -103450 -14273.8 22127 -41129.1 -7.41086 
179 1 27.034 4.6133 7.5 6.0492 9904.39 -3405.94 -121037 16286.4 -10079.9 -31085.5 -7.4098 
273 1 18.5423 7.1691 7.5 6.0492 11387.2 -2070.69 -137621 15033.4 5612.58 -26687.9 -7.4088 
274 1 19.2662 8.39074 7.5 6.0492 -3157.24 4704.16 -115621 -12032.1 21910.4 -41075.9 -7.41013 
275 1 20.6861 8.37466 7.5 6.0492 12221.3 -2745.96 -134962 15893.1 5344.24 -26040.9 -7.40896 
276 1 21.3822 7.13695 7.5 6.0492 -1767.84 2568.75 -111214 -13008.1 21811.6 -41884 -7.41039 
277 1 22.8021 7.12088 7.5 6.0492 11555.3 -2699.84 -131401 16290.2 -9.67943 -28130.7 -7.40918 
278 1 23.5259 8.34252 7.5 6.0492 -3101.01 1480.22 -101025 -13027.1 24001.5 -43370.6 -7.41101 
279 1 24.9459 8.32644 7.5 6.0492 12378.9 -3361.65 -129502 16688 -522.704 -26705.9 -7.40929 
280 1 25.6419 7.08873 7.5 6.0492 -1648.33 -601.469 -96869.5 -13599.1 24374.6 -42862.2 -7.41126 
281 1 27.0618 7.07265 7.5 6.0492 11695.5 -3710.62 -125105 16606.5 -5666.23 -28111.5 -7.40956 
14 1 27.7021 0.91623 7.5 6.04918 5375.71 -3649.45 -107087 -15103.6 19418.4 -37567.3 -7.41064 
15 1 29.1221 0.900156 7.5 6.04918 6625.25 -4034.94 -108311 15531.3 -18502.3 -34521.4 -7.41057 
16 1 31.9619 0.868007 7.5 6.04918 5607.77 -6285.38 -96318.4 -14346.1 23307.9 -35544.7 -7.41129 
17 1 33.3818 0.851933 7.5 6.04918 6776.68 -6560.73 -98521.5 14520.3 -22806.6 -32147.8 -7.41116 
78 1 27.73 3.37558 7.5 6.0492 2678.46 -3078.87 -100372 -14531.3 22472.5 -39760.1 -7.41105 
79 1 29.1499 3.35951 7.5 6.0492 8939.38 -4163.31 -114369 15906 -14680.2 -31912.5 -7.4102 
80 1 29.8459 2.1218 7.5 6.04918 4186.87 -4698.76 -97971.1 -14535.9 22882.2 -37867.7 -7.41119 
81 1 31.2658 2.10572 7.5 6.04918 7909.6 -5196.17 -106828 15292.2 -18933.4 -32277 -7.41066 
82 1 31.9897 3.32736 7.5 6.0492 2909.55 -6070.27 -88223.3 -13800.3 25961.7 -37646.9 -7.41178 
83 1 33.4096 3.31129 7.5 6.0492 9056.84 -6353.23 -106097 14876 -19362.7 -29717.8 -7.4107 
84 1 34.1057 2.07357 7.5 6.04918 4410.07 -7633.65 -86899.9 -13373.3 26487.3 -34977.8 -7.41186 
85 1 35.5256 2.0575 7.5 6.04918 8030.35 -7719.41 -98144.5 13859.2 -23216.3 -29269.9 -7.41118 
180 1 27.7578 5.83494 7.5 6.0492 -151.038 -2558.04 -93280.4 -13920.5 24856.9 -41675.1 -7.41148 
181 1 29.1777 5.81886 7.5 6.0492 10902.1 -4328.86 -119684 16268 -10551.2 -29101.5 -7.40988 
182 1 29.8738 4.58115 7.5 6.0492 1388.14 -4377.31 -90369.9 -13986.3 25402.4 -39906 -7.41165 
183 1 31.2937 4.56508 7.5 6.0492 10024 -5219.37 -113315 15685.5 -15129.8 -29648.1 -7.41027 
184 1 32.0176 5.78672 7.5 6.0492 50.0895 -5902.17 -79822.4 -13229.8 27935.8 -39513.7 -7.41229 
185 1 33.4375 5.77064 7.5 6.0492 10975 -6183.52 -112998 15236.3 -15581.1 -27118.2 -7.41029 
186 1 34.1335 4.53293 7.5 6.0492 1608.06 -7646.39 -77973.6 -12865.6 28634.8 -36872.1 -7.41241 
187 1 35.5534 4.51685 7.5 6.0492 10094.5 -7423.92 -106138 14236.1 -19748.1 -26893.4 -7.4107 
282 1 27.7857 8.29429 7.5 6.0492 -3002.91 -1997.29 -86003.2 -13205.4 26488.8 -43314.1 -7.41192 
283 1 29.2056 8.27822 7.5 6.0492 12478.5 -4417.09 -124141 16558.1 -6252.12 -26109.8 -7.40961 
284 1 29.9016 7.0405 7.5 6.0492 -1489.84 -4013.78 -82523.4 -13345.5 27203.7 -41688 -7.41213 
285 1 31.3215 7.02443 7.5 6.0492 11777.8 -5175.67 -119033 16016.4 -11069.5 -26843 -7.40992 
286 1 32.0454 8.24607 7.5 6.0492 -2865.2 -5688.25 -71307.3 -12565.5 29150.2 -41143.6 -7.41281 
287 1 33.4653 8.23 7.5 6.0492 12502.3 -5935.13 -119105 15540.9 -11592 -24364.3 -7.40992 
288 1 34.1613 6.99228 7.5 6.0492 -1306.42 -7612.12 -68866.6 -12281.9 30053.1 -38548.7 -7.41296 
289 1 35.5813 6.97621 7.5 6.0492 11792.1 -7055.65 -113426 14566 -15995.2 -24367.8 -7.41026 
18 1 36.2216 0.819785 7.5 6.04918 5798.75 -9150.18 -86435.1 -12770.9 26936.5 -31964.9 -7.41189 
19 1 37.6415 0.803711 7.5 6.04918 6904.12 -9351.33 -89593.9 12716.4 -26660.1 -28261 -7.4117 
20 1 40.4813 0.771562 7.5 6.04918 5931.32 -12031 -77906.1 -10475.5 30091.5 -26798.8 -7.41241 
21 1 41.9012 0.755488 7.5 6.04918 6999.04 -12139.6 -81961.3 10218.3 -29859 -22791.7 -7.41216 
22 1 44.7411 0.723339 7.5 6.04918 6002.69 -14583.3 -71207.3 -7587.66 32588.5 -20046.8 -7.41282 
86 1 36.2494 3.27914 7.5 6.0492 3123.13 -9247.98 -77025.3 -12265.7 29253.6 -33833.5 -7.41246 
87 1 37.6694 3.26306 7.5 6.0492 9132.34 -8844.75 -98577.3 13038.4 -23536.3 -26124 -7.41116 
88 1 38.3654 2.02535 7.5 6.04918 4592.98 -10687.1 -77002.1 -11446.8 29751.1 -30457.7 -7.41246 
89 1 39.7853 2.00928 7.5 6.04918 8114.87 -10412.9 -90463.2 11669.7 -26915.3 -24767.6 -7.41165 
90 1 40.5092 3.23092 7.5 6.0492 3295.57 -12387.9 -67330.7 -10032.6 32127.9 -28309.8 -7.41305 
91 1 41.9291 3.21484 7.5 6.0492 9168.39 -11377 -92162.2 10480.6 -27004.3 -21054.1 -7.41154 
92 1 42.6251 1.97713 7.5 6.04918 4720.08 -13568.5 -68793.7 -8872.96 32472.8 -24280.6 -7.41296 
93 1 44.045 1.96105 7.5 6.04918 8167.38 -12948.7 -84185.7 8831.28 -29843.1 -18730.7 -7.41203 
94 1 44.7689 3.18269 7.5 6.0492 3413.91 -15138.7 -59699.1 -7234.53 34404.4 -21105.6 -7.41352 
188 1 36.2773 5.73849 7.5 6.0492 254.441 -9386.21 -67369 -11754.7 30880.2 -35502.7 -7.41305 
189 1 37.6972 5.72242 7.5 6.0492 10988.8 -8367.96 -106949 13380.2 -20053.7 -23845.2 -7.41065 
190 1 38.3932 4.48471 7.5 6.0492 1808.12 -10982.8 -66852.4 -10999.2 31585.3 -32070 -7.41308 
191 1 39.8131 4.46863 7.5 6.0492 10116.6 -9832.65 -99808.6 12008.3 -23733.2 -22752.4 -7.41108 
192 1 40.537 5.69027 7.5 6.0492 437.176 -12775.2 -56558.6 -9602.52 33465.4 -29655.1 -7.41371 
193 1 41.9569 5.6742 7.5 6.0492 10959.7 -10629.5 -101804 10775 -23776.3 -19204.2 -7.41096 
194 1 42.653 4.43648 7.5 6.0492 1967.18 -14087.7 -57607.7 -8509.89 34052.1 -25501.2 -7.41364 
195 1 44.0729 4.42041 7.5 6.0492 10108.7 -12131.4 -94645.3 9099.98 -26897.4 -17181.5 -7.41139 
196 1 44.7967 5.64205 7.5 6.0492 578.211 -15711.9 -48034.5 -6911.86 35517.2 -22037.1 -7.41423 
290 1 36.3051 8.19785 7.5 6.0492 -2704.81 -9472.02 -57657.5 -11166.8 31735.4 -36970.8 -7.41364 
291 1 37.725 8.18177 7.5 6.0492 12453.9 -7804.03 -114586 13680 -16338.7 -21435.8 -7.41019 
292 1 38.4211 6.94406 7.5 6.0492 -1121.76 -11223.6 -56575.7 -10494.5 32679.7 -33499.4 -7.41371 
293 1 39.841 6.92799 7.5 6.0492 11748.9 -9168.19 -108507 12312.9 -20247.6 -20614.4 -7.41056 
294 1 40.5649 8.14963 7.5 6.0492 -2544.61 -13100.5 -45779.9 -9116.16 34020.6 -30834.7 -7.41437 
295 1 41.9848 8.13355 7.5 6.0492 12362.3 -9780.83 -110764 11039 -20299 -17251.4 -7.41042 
296 1 42.6808 6.89584 7.5 6.0492 -960.464 -14541.3 -46338.7 -8108.52 34884 -26575.2 -7.41433 
297 1 44.1007 6.87976 7.5 6.0492 11680.1 -11213.2 -104506 9344.97 -23634.9 -15542.3 -7.4108 
298 1 44.8246 8.1014 7.5 6.0492 -2409.46 -16210.4 -36401.7 -6553.76 35840.8 -22843.9 -7.41494 
394 1 38.4489 9.40341 7.5 6.0492 -4116.02 -11410.8 -46370.4 -9914.88 32967.3 -34743.6 -7.41433 
395 1 39.8688 9.38734 7.5 6.0492 12976.3 -8408.97 -116442 12579.7 -16580.5 -18363.8 -7.41008 
398 1 42.7086 9.35519 7.5 6.0492 -3984.37 -14929.2 -35185 -7655.39 34898.2 -27502.7 -7.41502 
399 1 44.1285 9.33912 7.5 6.0492 12853.9 -10182 -113650 9561.9 -20175.6 -13821.4 -7.41024 
23 1 46.161 0.707265 7.5 6.04918 7065.71 -14548.2 -76070.6 7154.08 -32232.3 -15785.6 -7.41252 
24 1 49.0008 0.675117 7.5 6.04918 6023.13 -16417.9 -66782.1 -4264.76 34278.1 -11910.7 -7.41308 
25 1 50.4207 0.659043 7.5 6.04918 7116.36 -16188.8 -72330.6 3687.45 -33653.1 -7543.2 -7.41275 
26 1 53.2605 0.626894 7.5 6.04918 6006.81 -17210.5 -64963.6 -693.44 35051.3 -2872.59 -7.41319 
95 1 46.1888 3.16662 7.5 6.0492 9183.73 -13586.4 -87214.5 7324.99 -29590.5 -14543.6 -7.41184 
96 1 46.8848 1.92891 7.5 6.04918 4789.19 -15893.6 -62782.9 -5796.49 34489.9 -16545.4 -7.41333 
97 1 48.3048 1.91283 7.5 6.04918 8203.49 -14938 -79708.8 5488.74 -31843.5 -11313.7 -7.4123 
98 1 49.0286 3.13447 7.5 6.0492 3475.09 -17102.5 -54648.3 -4031.11 35948.3 -12456.6 -7.41382 
99 1 50.4485 3.1184 7.5 6.0492 9202.7 -15100 -84069.1 3738.2 -31151.7 -6873.67 -7.41203 
100 1 51.1446 1.88068 7.5 6.04918 4807.54 -17286.7 -59401.8 -2388.97 35680.9 -7609.49 -7.41353 
101 1 52.5645 1.86461 7.5 6.04918 8240.77 -16034.1 -77362.3 1827.37 -32807.2 -2947.5 -7.41244 
102 1 53.2884 3.08625 7.5 6.0492 3483.36 -17949.8 -52565.8 -599.992 36667.6 -2878.19 -7.41395 
197 1 46.2166 5.62597 7.5 6.0492 10920.7 -12623.5 -97841 7536.64 -26564.4 -13227.7 -7.4112 
198 1 46.9127 4.38826 7.5 6.0492 2071.78 -16570.9 -50827.1 -5545.87 35883.2 -17300.3 -7.41406 
199 1 48.3326 4.37219 7.5 6.0492 10100.4 -13947.4 -90962.2 5653.99 -29072 -10323.8 -7.41162 
200 1 49.0565 5.59383 7.5 6.0492 663.691 -17794 -42386.6 -3841.59 36915.9 -12923 -7.41457 
201 1 50.4764 5.57775 7.5 6.0492 10907.3 -13998.5 -95315.4 3836.07 -28257.3 -6179.7 -7.41135 
202 1 51.1724 4.34004 7.5 6.0492 2118.1 -18051.5 -47007.1 -2275.49 36974.1 -7859.78 -7.41429 
203 1 52.5923 4.32396 7.5 6.0492 10119 -14955.1 -89022.8 1865.33 -30129.3 -2584.5 -7.41173 
204 1 53.3162 5.5456 7.5 6.0492 689.111 -18689.8 -40054 -562.893 37585.2 -2860.92 -7.41472 
299 1 46.2445 8.08533 7.5 6.0492 12272.4 -11541.5 -107827 7727.2 -23276.8 -11846.3 -7.4106 
300 1 46.9405 6.84761 7.5 6.0492 -842.9 -17170.5 -38821.9 -5275.25 36526.2 -17952.7 -7.41479 
301 1 48.3604 6.83154 7.5 6.0492 11628.2 -12842.2 -101650 5804.03 -25973.6 -9287.47 -7.41097 
302 1 49.0843 8.05318 7.5 6.0492 -2319.55 -18398.4 -30183.5 -3636.6 37092.2 -13315.2 -7.41532 
303 1 50.5042 8.03711 7.5 6.0492 12229.6 -12765.5 -105947 3920.47 -25092.1 -5468.39 -7.41071 
304 1 51.2003 6.79939 7.5 6.0492 -781.814 -18729.9 -34583.6 -2157.76 37518.3 -8061.54 -7.41505 
305 1 52.6202 6.78332 7.5 6.0492 11630 -13753.9 -100134 1894.41 -27116.6 -2228.12 -7.41106 
306 1 53.344 8.00496 7.5 6.0492 -2286.53 -19337.3 -27613.3 -527.826 37713.5 -2828.02 -7.41548 
402 1 46.9684 9.30697 7.5 6.0492 -3879.03 -17692.3 -26964.9 -4974.65 36345.3 -18505.6 -7.41552 
403 1 48.3883 9.29089 7.5 6.0492 12765 -11606.3 -111656 5933.95 -22666.9 -8211.8 -7.41036 
406 1 51.2281 9.25875 7.5 6.0492 -3818.54 -19322.6 -22327.9 -2030.74 37237.2 -8220.09 -7.4158 
407 1 52.648 9.24267 7.5 6.0492 12754 -12413.3 -110576 1912.21 -23887.8 -1883.73 -7.41043 
27 1 54.6804 0.61082 7.5 6.04918 7159.1 -16771.9 -71035.1 15.113 -34050.2 1361.84 -7.41282 
28 1 57.5202 0.578672 7.5 6.04918 5966.43 -16807.3 -65897.7 2921.91 34847.3 6363.04 -7.41314 
29 1 58.9401 0.562597 7.5 6.04918 7192.56 -16197.3 -72294.4 -3645.93 -33416.3 10193.9 -7.41275 
30 1 61.78 0.530449 7.5 6.04918 5905.8 -15274.6 -69503.8 6372.3 33660.4 15034 -7.41292 
31 1 63.1999 0.514375 7.5 6.04918 7203.7 -14581.1 -76009.2 -7081.06 -31806.6 18243.3 -7.41252 
103 1 54.7083 3.07017 7.5 6.0492 9242.21 -15643 -82968.8 -69.7993 -31600 1412.82 -7.4121 
104 1 55.4043 1.83246 7.5 6.04918 4785.75 -17495.6 -58918.5 1158.63 35967 1901.97 -7.41356 
105 1 56.8242 1.81639 7.5 6.04918 8286.04 -16040.2 -77337.5 -1935.64 -32687.9 5709.61 -7.41244 
106 1 57.5481 3.03803 7.5 6.0492 3446.08 -17524.6 -53622.3 2868.57 36509.3 6893.9 -7.41389 
107 1 58.968 3.02195 7.5 6.0492 9303.95 -15120.5 -84007.7 -3862.28 -30920.6 9619.8 -7.41204 
108 1 59.664 1.78424 7.5 6.04918 4730.48 -16474.6 -61371.2 4646.81 35314.7 11215.2 -7.41341 
109 1 61.0839 1.76816 7.5 6.04918 8331.19 -14963.7 -79641.5 -5571.63 -31510 13929.8 -7.4123 
110 1 61.8078 2.9898 7.5 6.0492 3366.79 -15893.7 -57727.7 6183.47 35461.6 16069.8 -7.41364 
111 1 63.2277 2.97373 7.5 6.0492 9368.54 -13642.4 -87109.4 -7405.5 -29175.9 17079.1 -7.41185 
205 1 54.7361 5.52953 7.5 6.0492 10944.4 -14499.8 -94415.8 -101.666 -28749.7 1432.42 -7.41141 
206 1 55.4321 4.29181 7.5 6.0492 2109.05 -18275.8 -46455 1121.72 37258.7 2164.57 -7.41432 
207 1 56.852 4.27574 7.5 6.0492 10177.8 -14968.7 -88982.8 -2030.66 -30009.7 5417.46 -7.41173 
208 1 57.5759 5.49738 7.5 6.0492 655.447 -18243.1 -41230.1 2747.68 37479 7388.97 -7.41464 
209 1 58.9958 5.48131 7.5 6.0492 11035.3 -14036.5 -95219.3 -4018.55 -28020 8960.64 -7.41136 
210 1 59.6919 4.24359 7.5 6.0492 2048.13 -17196.9 -49216.4 4461.29 36704.1 11973.6 -7.41416 
211 1 61.1118 4.22752 7.5 6.0492 10266.4 -13994.9 -90852.9 -5784.47 -28738 13000 -7.41162 
212 1 61.8356 5.44916 7.5 6.0492 568.608 -16521.5 -45815.5 5914.32 36579 17016.9 -7.41436 
213 1 63.2556 5.43308 7.5 6.0492 11157.1 -12711.9 -97674.6 -7661.82 -26138.8 15785.7 -7.41121 
307 1 54.7639 7.98888 7.5 6.0492 12266.3 -13220.4 -105253 -139.984 -25622.4 1415.01 -7.41075 
308 1 55.46 6.75117 7.5 6.0492 -782.647 -18966.4 -33967.9 1074.29 37805.9 2416.3 -7.41509 
309 1 56.8799 6.73509 7.5 6.0492 11702.3 -13776.8 -100073 -2128.21 -26991.3 5063.54 -7.41106 
310 1 57.6038 7.95673 7.5 6.0492 -2314.71 -18870 -28905.6 2608.8 37664.5 7839.65 -7.4154 
311 1 59.0237 7.94066 7.5 6.0492 12385.2 -12824.3 -105805 -4174.61 -24839.5 8212.72 -7.41072 
312 1 59.7197 6.70295 7.5 6.0492 -842.766 -17832.9 -37026.6 4251.89 37356.3 12664 -7.4149 
313 1 61.1396 6.68687 7.5 6.0492 11834.1 -12917 -101484 -5993.21 -25623.4 11960 -7.41098 
314 1 61.8635 7.90851 7.5 6.0492 -2397.11 -17067.2 -33951.7 5611.24 36920.3 17865.7 -7.41509 
315 1 63.2834 7.89244 7.5 6.0492 12561.8 -11669.2 -107579 -7909.15 -22822.3 14362 -7.41061 
410 1 55.4878 9.21052 7.5 6.0492 -3814.53 -19569.4 -21652.8 1017.49 37530.6 2650.02 -7.41584 
411 1 56.9077 9.19445 7.5 6.0492 12840.2 -12448.5 -110489 -2228.62 -23753 4644.61 -7.41043 
414 1 59.7475 9.1623 7.5 6.0492 -3865.83 -18387.4 -24997 4013.69 37192.1 13277.7 -7.41564 
415 1 61.1675 9.14623 7.5 6.0492 13011.8 -11717.1 -111415 -6194.81 -22289.2 10808.9 -7.41038 
32 1 66.0397 0.482226 7.5 6.04918 5821.31 -12878.8 -75493.2 9463.97 31543.2 22514.5 -7.41256 
33 1 67.4596 0.466152 7.5 6.04918 7171.6 -12220.8 -81899.5 -10095.2 -29330.7 25000.9 -7.41217 
34 1 70.2994 0.434004 7.5 6.04918 5706.76 -10007 -83436.2 12029 28606 28444.9 -7.41207 
35 1 71.7193 0.417929 7.5 6.04918 7078.72 -9497.31 -89571.4 -12525.7 -26140.2 30235.2 -7.4117 
112 1 63.9238 1.73601 7.5 6.04918 4643.5 -14398.5 -66556.3 7879.53 33741.4 19599.9 -7.4131 
113 1 65.3437 1.71994 7.5 6.04918 8353.57 -13016.4 -84097.7 -8866.09 -29364 21105.5 -7.41203 
114 1 66.0675 2.94158 7.5 6.0492 3250.23 -13330.3 -64551.6 9162.64 33561.6 23998.2 -7.41322 
115 1 67.4874 2.92551 7.5 6.0492 9406.13 -11492.6 -92049.3 -10494.4 -26493.2 23317.6 -7.41155 
116 1 68.1835 1.68779 7.5 6.04918 4524.85 -11612.2 -74075.8 10679.2 31320.5 26541.8 -7.41264 
117 1 69.6034 1.67172 7.5 6.04918 8327.66 -10544.4 -90392.9 -11636.9 -26391.2 26881 -7.41165 
118 1 70.3273 2.89336 7.5 6.0492 3100.85 -10229 -73597.9 11642.3 30903.6 30296.2 -7.41267 
119 1 71.7472 2.87728 7.5 6.0492 9384.72 -9035.83 -98510.7 -12965.8 -23041 28130.8 -7.41116 
214 1 63.9516 4.19537 7.5 6.0492 1941.68 -14992.2 -55061.7 7562.8 35316 20814.1 -7.4138 
215 1 65.3715 4.17929 7.5 6.0492 10355.2 -12232.3 -94498.8 -9165.95 -26418.5 19597.8 -7.4114 
216 1 66.0954 5.40094 7.5 6.0492 437.45 -13802.1 -53439.6 8766.7 34906.4 25351 -7.4139 
217 1 67.5153 5.38486 7.5 6.0492 11269.5 -10788.3 -101618 -10814.2 -23251.5 21472.7 -7.41097 
218 1 68.2113 4.14715 7.5 6.0492 1797.66 -12012 -63539.1 10255.9 33150.4 28147.9 -7.41328 
219 1 69.6312 4.13107 7.5 6.0492 10405.9 -10007.7 -99677.7 -11987.3 -23212 24886 -7.41109 
220 1 70.3551 5.35271 7.5 6.0492 277.408 -10481.5 -63542.6 11145.2 32540.2 31982.6 -7.41328 
221 1 71.775 5.33664 7.5 6.0492 11328 -8611.43 -106813 -13313.1 -19545.5 25839.1 -7.41066 
316 1 63.9794 6.65472 7.5 6.0492 -952.621 -15510.2 -43505.3 7206.91 36162.7 21911.8 -7.41451 
317 1 65.3993 6.63865 7.5 6.0492 11990.3 -11356.3 -104278 -9452.5 -23131.7 17943.1 -7.41081 
318 1 66.1232 7.86029 7.5 6.0492 -2520.24 -14202.3 -42342.5 8318.93 35486.3 26561.7 -7.41458 
319 1 67.5431 7.84422 7.5 6.0492 12747.2 -9992.02 -110477 -11114.4 -19735.6 19468.3 -7.41044 
320 1 68.2392 6.6065 7.5 6.0492 -1097.47 -12347.3 -52900.4 9777.66 34264.3 29599.6 -7.41393 
321 1 69.6591 6.59043 7.5 6.0492 12120.9 -9396.18 -108288 -12312.6 -19697.6 22717.7 -7.41057 
322 1 70.3829 7.81207 7.5 6.0492 -2661.6 -10673.2 -53456 10577.6 33425.4 33492.1 -7.4139 
323 1 71.8029 7.79599 7.5 6.0492 12886.2 -8110.56 -114351 -13627.2 -15786.1 23366.9 -7.4102 
418 1 64.0073 9.11408 7.5 6.0492 -3961.47 -15955.4 -32082.2 6802.54 36202.7 22883 -7.41521 
419 1 65.4272 9.098 7.5 6.0492 13229.1 -10376.6 -113315 -9721.96 -19630 16143.7 -7.41026 
422 1 68.267 9.06586 7.5 6.0492 -4080.37 -12620.6 -42354.3 9230.04 34584.6 30885.2 -7.41458 
423 1 69.6869 9.04978 7.5 6.0492 13434.1 -8699.79 -116105 -12609.6 -15977.4 20382.5 -7.4101 
36 1 74.5591 0.385781 7.5 6.04918 5563.01 -7050.19 -92847.4 13931.2 25010.3 32735.7 -7.4115 
37 1 75.9791 0.369707 7.5 6.04918 6919.04 -6764.28 -98591.8 -14244 -22416.9 33934.8 -7.41116 
38 1 78.8189 0.337558 7.5 6.04918 5402.51 -4303.77 -103248 15064 20958.5 35443.6 -7.41087 
39 1 80.2388 0.321484 7.5 6.04918 6703.76 -4257.03 -108532 -15151.6 -18365.8 36146 -7.41056 
120 1 72.4432 1.63957 7.5 6.04918 4376.42 -8523.73 -83424.9 12893.7 28183 31813.8 -7.41207 
121 1 73.8631 1.6235 7.5 6.04918 8233.04 -7922.07 -98146.2 -13741.5 -22766 31162.4 -7.41118 
122 1 74.587 2.84514 7.5 6.0492 2931.72 -6989.48 -84301.5 13482.6 27643.5 34852.4 -7.41202 
123 1 76.0069 2.82906 7.5 6.0492 9284.92 -6614.99 -106145 -14701.4 -19008 31525.5 -7.4107 
124 1 76.7029 1.59135 7.5 6.04918 4210.22 -5490.28 -94075.1 14398.6 24512.8 35412 -7.41143 
125 1 78.1228 1.57527 7.5 6.04918 8065.78 -5447.91 -106966 -15071.6 -18682 33999.2 -7.41065 
126 1 78.8467 2.79691 7.5 6.0492 2763.55 -3913.85 -96101.3 14569.8 23991.1 37705 -7.41131 
127 1 80.2666 2.78084 7.5 6.0492 9106.8 -4456.86 -114607 -15612.3 -14592 33560.9 -7.41019 
128 1 80.9627 1.54312 7.5 6.04918 4047.45 -2737.6 -105519 15096.7 20534.5 37389 -7.41074 
222 1 72.471 4.09892 7.5 6.0492 1630.32 -8669.81 -74070 12389.6 30326.9 33723.1 -7.41264 
223 1 73.891 4.08285 7.5 6.0492 10384.7 -7680.36 -106093 -14111.9 -19306.4 28789 -7.4107 
224 1 74.6148 5.30449 7.5 6.0492 110.568 -6966.35 -75480.6 12907.2 29629.9 36772.1 -7.41256 
225 1 76.0347 5.28842 7.5 6.0492 11300.2 -6508.36 -113000 -15048.6 -15217.5 28901.6 -7.41029 
226 1 76.7308 4.0507 7.5 6.0492 1459.95 -5332.09 -86044.1 13833.4 27030.2 37511.3 -7.41192 
227 1 78.1507 4.03463 7.5 6.0492 10274.7 -5538.2 -113438 -15442.4 -14895.5 31367.9 -7.41026 
228 1 78.8746 5.25627 7.5 6.0492 -37.1681 -3564.71 -88608.4 13934.2 26391.4 39732.5 -7.41176 
229 1 80.2945 5.24019 7.5 6.0492 11173.5 -4699.15 -119915 -15945.5 -10460.2 30726.6 -7.40987 
230 1 80.9905 4.00248 7.5 6.0492 1313.24 -2231.06 -98870.8 14486 23495.9 39547.2 -7.41114 
324 1 72.4989 6.55828 7.5 6.0492 -1255.08 -8761.97 -64561.3 11813.1 31768.5 35445.5 -7.41322 
325 1 73.9188 6.5422 7.5 6.0492 12179 -7375.21 -113307 -14441.3 -15524 26219.8 -7.41027 
326 1 74.6427 7.76384 7.5 6.0492 -2794.25 -6888.17 -66570.4 12243.5 30879.3 38482.8 -7.4131 
327 1 76.0626 7.74777 7.5 6.0492 12933.6 -6331.89 -119030 -15347 -11181.6 26076.2 -7.40992 
328 1 76.7586 6.51006 7.5 6.0492 -1398.6 -5124.24 -77795 13180.1 28859.1 39390 -7.41242 
329 1 78.1785 6.49398 7.5 6.0492 12135.6 -5567.88 -119113 -15754.6 -10807.5 28513.4 -7.40992 
330 1 78.9024 7.71562 7.5 6.0492 -2890.3 -3164.85 -80954.9 13197.6 28065.9 41515.5 -7.41223 
331 1 80.3223 7.69955 7.5 6.0492 12865 -4870.24 -124334 -16212.9 -6112.64 27663.9 -7.4096 
332 1 81.0183 6.46183 7.5 6.0492 -1500.27 -1678.24 -91926.3 13775.5 25779.5 41445.5 -7.41156 
426 1 72.5267 9.01763 7.5 6.0492 -4195.96 -8800.35 -55092.4 11148.3 32431.6 36969.1 -7.4138 
427 1 73.9466 9.00156 7.5 6.0492 13569.8 -6995.66 -119670 -14729.8 -11551.7 23466.5 -7.40988 
430 1 76.7865 8.96941 7.5 6.0492 -4279.4 -4869.34 -69520.3 12424.1 29922.8 41037.5 -7.41292 
431 1 78.2064 8.95334 7.5 6.0492 13594.4 -5526.84 -123879 -16010.8 -6555.57 25455.5 -7.40963 
434 1 81.0462 8.92119 7.5 6.0492 -4305.48 -1085.71 -84876.5 12955.4 27304.6 43076.9 -7.41199 
40 1 83.0786 0.289336 7.5 6.04918 5246.71 -1910.18 -114180 15346.5 16682.9 36586.3 -7.41021 
41 1 84.4985 0.273261 7.5 6.04918 6455.22 -2058.31 -118961 -15177.3 -14210.9 36795.5 -7.40993 
42 1 87.3383 0.241113 7.5 6.04918 5122.62 121.648 -125163 14728.2 12434 36003.6 -7.40955 
43 1 88.7582 0.225039 7.5 6.04918 6200.97 -138.969 -129393 -14281.1 -10191.4 35606.5 -7.4093 
129 1 82.3826 1.52705 7.5 6.04918 7840.16 -3276.31 -116468 -15546.9 -14348.1 35403.1 -7.41008 
130 1 83.1064 2.74869 7.5 6.0492 2622.41 -1154.45 -108458 14819.9 20191.1 38859.3 -7.41056 
131 1 84.5264 2.73262 7.5 6.0492 8867.9 -2638.88 -123541 -15633.5 -10004.1 34175.9 -7.40965 
132 1 85.2224 1.4949 7.5 6.04918 3914.85 -339.984 -117256 14921.2 16496 37679.1 -7.41003 
133 1 86.6423 1.47883 7.5 6.04918 7581.71 -1421.94 -126238 -15111 -9991.61 35205.1 -7.40949 
134 1 87.3662 2.70047 7.5 6.0492 2533.81 1264.51 -120816 14185.9 16496.6 38150.7 -7.40981 
135 1 88.7861 2.68439 7.5 6.0492 8597.84 -1120.89 -132539 -14721.9 -5480.45 33105.4 -7.40911 
136 1 89.4821 1.44668 7.5 6.04918 3835.06 1726.23 -128737 13843.6 12648.5 36021 -7.40934 
231 1 82.4104 3.9864 7.5 6.0492 10080.5 -3731.52 -121408 -15908.7 -10177.3 32645.1 -7.40978 
232 1 83.1343 5.20804 7.5 6.0492 -138.986 -441.87 -102304 14141.9 23079.8 40855.5 -7.41093 
233 1 84.5542 5.19197 7.5 6.0492 10958.7 -3259.59 -127279 -15946.3 -5472.71 31267 -7.40943 
234 1 85.2502 3.95426 7.5 6.0492 1216.57 543.567 -111971 14282.3 19980.6 39758.2 -7.41035 
235 1 86.6701 3.93818 7.5 6.0492 9825.76 -2269.73 -129663 -15457.7 -5368.65 32467.6 -7.40928 
236 1 87.394 5.15982 7.5 6.0492 -175.184 2359.34 -115938 13489.7 19948.2 39981.3 -7.41011 
237 1 88.8139 5.14375 7.5 6.0492 10684.2 -2141.08 -134758 -15010 -487.617 30281.5 -7.40898 
238 1 89.51 3.90603 7.5 6.0492 1186.49 2996.92 -124722 13202.1 16725.3 37890.3 -7.40958 
333 1 82.4383 6.44576 7.5 6.0492 11984.8 -4123.47 -125481 -16194.9 -5737.55 29629.5 -7.40953 
334 1 83.1621 7.6674 7.5 6.0492 -2925.65 315.406 -95903.9 13357.2 25246.9 42568.2 -7.41132 
335 1 84.582 7.65132 7.5 6.0492 12684.1 -3803.3 -130061 -16178.9 -769.597 28098.1 -7.40926 
336 1 85.2781 6.41361 7.5 6.0492 -1538.92 1469.26 -106296 13538.9 22792 41536.3 -7.41069 
337 1 86.698 6.39754 7.5 6.0492 11744.8 -3048.39 -132146 -15715.5 -522.026 29437.2 -7.40913 
338 1 87.4219 7.61918 7.5 6.0492 -2889.37 3488.15 -110711 12690.8 22672.2 41493.3 -7.41042 
339 1 88.8418 7.6031 7.5 6.0492 12415.1 -3079.95 -135949 -15207.9 4618.48 27170.8 -7.4089 
340 1 89.5378 6.36539 7.5 6.0492 -1504.8 4298.7 -120210 12461.1 20125.7 39428.5 -7.40985 
435 1 82.4661 8.90511 7.5 6.0492 13493.1 -4441.08 -128584 -16409.1 -1173.95 26385.7 -7.40935 