(written by TR)

15608	atoms
1	atom types
0	108.636952	xlo xhi
0	188.164721	ylo yhi
0	18.3999996	zlo zhi


Masses

1	12

Atoms

1 1 1 0 0.00000000 0.00000000 7.50000000 0 0 0
2 1 1 0 2.14378430 1.20556589 7.50000000 0 0 0
3 1 1 0 3.56369322 1.18949167 7.50000000 0 0 0
4 1 1 0 6.40351156 1.15734325 7.50000000 0 0 0
5 1 1 0 7.82342048 1.14126903 7.50000000 0 0 0
6 1 1 0 10.66323881 1.10912060 7.50000000 0 0 0
7 1 1 0 12.08314773 1.09304639 7.50000000 0 0 0
8 1 1 0 14.92296607 1.06089796 7.50000000 0 0 0
9 1 1 0 16.34287498 1.04482375 7.50000000 0 0 0
10 1 1 0 19.18269332 1.01267532 7.50000000 0 0 0
11 1 1 0 20.60260224 0.99660111 7.50000000 0 0 0
12 1 1 0 23.44242057 0.96445268 7.50000000 0 0 0
13 1 1 0 24.86232949 0.94837847 7.50000000 0 0 0
14 1 1 0 27.70214783 0.91623004 7.50000000 0 0 0
15 1 1 0 29.12205675 0.90015583 7.50000000 0 0 0
16 1 1 0 31.96187508 0.86800740 7.50000000 0 0 0
17 1 1 0 33.38178400 0.85193318 7.50000000 0 0 0
18 1 1 0 36.22160234 0.81978475 7.50000000 0 0 0
19 1 1 0 37.64151126 0.80371054 7.50000000 0 0 0
20 1 1 0 40.48132959 0.77156211 7.50000000 0 0 0
21 1 1 0 41.90123851 0.75548790 7.50000000 0 0 0
22 1 1 0 44.74105685 0.72333947 7.50000000 0 0 0
23 1 1 0 46.16096576 0.70726526 7.50000000 0 0 0
24 1 1 0 49.00078410 0.67511683 7.50000000 0 0 0
25 1 1 0 50.42069302 0.65904262 7.50000000 0 0 0
26 1 1 0 53.26051135 0.62689419 7.50000000 0 0 0
27 1 1 0 54.68042027 0.61081998 7.50000000 0 0 0
28 1 1 0 57.52023861 0.57867155 7.50000000 0 0 0
29 1 1 0 58.94014753 0.56259733 7.50000000 0 0 0
30 1 1 0 61.77996586 0.53044890 7.50000000 0 0 0
31 1 1 0 63.19987478 0.51437469 7.50000000 0 0 0
32 1 1 0 66.03969312 0.48222626 7.50000000 0 0 0
33 1 1 0 67.45960204 0.46615205 7.50000000 0 0 0
34 1 1 0 70.29942037 0.43400362 7.50000000 0 0 0
35 1 1 0 71.71932929 0.41792941 7.50000000 0 0 0
36 1 1 0 74.55914763 0.38578098 7.50000000 0 0 0
37 1 1 0 75.97905654 0.36970677 7.50000000 0 0 0
38 1 1 0 78.81887488 0.33755834 7.50000000 0 0 0
39 1 1 0 80.23878380 0.32148413 7.50000000 0 0 0
40 1 1 0 83.07860213 0.28933570 7.50000000 0 0 0
41 1 1 0 84.49851105 0.27326149 7.50000000 0 0 0
42 1 1 0 87.33832939 0.24111306 7.50000000 0 0 0
43 1 1 0 88.75823831 0.22503884 7.50000000 0 0 0
44 1 1 0 91.59805664 0.19289041 7.50000000 0 0 0
45 1 1 0 93.01796556 0.17681620 7.50000000 0 0 0
46 1 1 0 95.85778390 0.14466777 7.50000000 0 0 0
47 1 1 0 97.27769282 0.12859356 7.50000000 0 0 0
48 1 1 0 100.11751115 0.09644513 7.50000000 0 0 0
49 1 1 0 101.53742007 0.08037092 7.50000000 0 0 0
50 1 1 0 104.37723841 0.04822249 7.50000000 0 0 0
51 1 1 0 105.79714732 0.03214828 7.50000000 0 0 0
52 1 1 0 0.02784135 2.45935441 7.50000000 0 0 0
53 1 1 0 1.44775037 2.44328020 7.50000000 0 0 0
54 1 1 0 2.17162566 3.66492030 7.50000000 0 0 0
55 1 1 0 3.59153457 3.64884609 7.50000000 0 0 0
56 1 1 0 4.28756861 2.41113177 7.50000000 0 0 0
57 1 1 0 5.70747762 2.39505756 7.50000000 0 0 0
58 1 1 0 6.43135291 3.61669766 7.50000000 0 0 0
59 1 1 0 7.85126183 3.60062345 7.50000000 0 0 0
60 1 1 0 8.54729586 2.36290913 7.50000000 0 0 0
61 1 1 0 9.96720488 2.34683492 7.50000000 0 0 0
62 1 1 0 10.69108016 3.56847502 7.50000000 0 0 0
63 1 1 0 12.11098908 3.55240081 7.50000000 0 0 0
64 1 1 0 12.80702311 2.31468649 7.50000000 0 0 0
65 1 1 0 14.22693213 2.29861228 7.50000000 0 0 0
66 1 1 0 14.95080742 3.52025238 7.50000000 0 0 0
67 1 1 0 16.37071634 3.50417816 7.50000000 0 0 0
68 1 1 0 17.06675037 2.26646385 7.50000000 0 0 0
69 1 1 0 18.48665939 2.25038964 7.50000000 0 0 0
70 1 1 0 19.21053467 3.47202974 7.50000000 0 0 0
71 1 1 0 20.63044359 3.45595552 7.50000000 0 0 0
72 1 1 0 21.32647762 2.21824121 7.50000000 0 0 0
73 1 1 0 22.74638664 2.20216699 7.50000000 0 0 0
74 1 1 0 23.47026193 3.42380709 7.50000000 0 0 0
75 1 1 0 24.89017084 3.40773288 7.50000000 0 0 0
76 1 1 0 25.58620488 2.17001857 7.50000000 0 0 0
77 1 1 0 27.00611390 2.15394435 7.50000000 0 0 0
78 1 1 0 27.72998918 3.37558445 7.50000000 0 0 0
79 1 1 0 29.14989810 3.35951024 7.50000000 0 0 0
80 1 1 0 29.84593213 2.12179592 7.50000000 0 0 0
81 1 1 0 31.26584115 2.10572171 7.50000000 0 0 0
82 1 1 0 31.98971644 3.32736181 7.50000000 0 0 0
83 1 1 0 33.40962535 3.31128760 7.50000000 0 0 0
84 1 1 0 34.10565939 2.07357328 7.50000000 0 0 0
85 1 1 0 35.52556840 2.05749907 7.50000000 0 0 0
86 1 1 0 36.24944369 3.27913917 7.50000000 0 0 0
87 1 1 0 37.66935261 3.26306496 7.50000000 0 0 0
88 1 1 0 38.36538664 2.02535064 7.50000000 0 0 0
89 1 1 0 39.78529566 2.00927643 7.50000000 0 0 0
90 1 1 0 40.50917094 3.23091653 7.50000000 0 0 0
91 1 1 0 41.92907986 3.21484232 7.50000000 0 0 0
92 1 1 0 42.62511389 1.97712800 7.50000000 0 0 0
93 1 1 0 44.04502291 1.96105379 7.50000000 0 0 0
94 1 1 0 44.76889820 3.18269389 7.50000000 0 0 0
95 1 1 0 46.18880712 3.16661967 7.50000000 0 0 0
96 1 1 0 46.88484115 1.92890536 7.50000000 0 0 0
97 1 1 0 48.30475017 1.91283114 7.50000000 0 0 0
98 1 1 0 49.02862545 3.13447124 7.50000000 0 0 0
99 1 1 0 50.44853437 3.11839703 7.50000000 0 0 0
100 1 1 0 51.14456840 1.88068272 7.50000000 0 0 0
101 1 1 0 52.56447742 1.86460850 7.50000000 0 0 0
102 1 1 0 53.28835271 3.08624860 7.50000000 0 0 0
103 1 1 0 54.70826162 3.07017439 7.50000000 0 0 0
104 1 1 0 55.40429566 1.83246007 7.50000000 0 0 0
105 1 1 0 56.82420468 1.81638586 7.50000000 0 0 0
106 1 1 0 57.54807996 3.03802596 7.50000000 0 0 0
107 1 1 0 58.96798888 3.02195175 7.50000000 0 0 0
108 1 1 0 59.66402291 1.78423743 7.50000000 0 0 0
109 1 1 0 61.08393193 1.76816322 7.50000000 0 0 0
110 1 1 0 61.80780722 2.98980332 7.50000000 0 0 0
111 1 1 0 63.22771613 2.97372911 7.50000000 0 0 0
112 1 1 0 63.92375017 1.73601479 7.50000000 0 0 0
113 1 1 0 65.34365918 1.71994058 7.50000000 0 0 0
114 1 1 0 66.06753447 2.94158068 7.50000000 0 0 0
115 1 1 0 67.48744339 2.92550647 7.50000000 0 0 0
116 1 1 0 68.18347742 1.68779215 7.50000000 0 0 0
117 1 1 0 69.60338644 1.67171794 7.50000000 0 0 0
118 1 1 0 70.32726172 2.89335804 7.50000000 0 0 0
119 1 1 0 71.74717064 2.87728382 7.50000000 0 0 0
120 1 1 0 72.44320467 1.63956951 7.50000000 0 0 0
121 1 1 0 73.86311369 1.62349530 7.50000000 0 0 0
122 1 1 0 74.58698898 2.84513539 7.50000000 0 0 0
123 1 1 0 76.00689790 2.82906118 7.50000000 0 0 0
124 1 1 0 76.70293193 1.59134687 7.50000000 0 0 0
125 1 1 0 78.12284095 1.57527265 7.50000000 0 0 0
126 1 1 0 78.84671623 2.79691275 7.50000000 0 0 0
127 1 1 0 80.26662515 2.78083854 7.50000000 0 0 0
128 1 1 0 80.96265918 1.54312423 7.50000000 0 0 0
129 1 1 0 82.38256820 1.52705001 7.50000000 0 0 0
130 1 1 0 83.10644349 2.74869011 7.50000000 0 0 0
131 1 1 0 84.52635240 2.73261590 7.50000000 0 0 0
132 1 1 0 85.22238644 1.49490158 7.50000000 0 0 0
133 1 1 0 86.64229546 1.47882737 7.50000000 0 0 0
134 1 1 0 87.36617074 2.70046747 7.50000000 0 0 0
135 1 1 0 88.78607966 2.68439326 7.50000000 0 0 0
136 1 1 0 89.48211369 1.44667894 7.50000000 0 0 0
137 1 1 0 90.90202271 1.43060473 7.50000000 0 0 0
138 1 1 0 91.62589800 2.65224483 7.50000000 0 0 0
139 1 1 0 93.04580691 2.63617062 7.50000000 0 0 0
140 1 1 0 93.74184095 1.39845630 7.50000000 0 0 0
141 1 1 0 95.16174996 1.38238209 7.50000000 0 0 0
142 1 1 0 95.88562525 2.60402219 7.50000000 0 0 0
143 1 1 0 97.30553417 2.58794798 7.50000000 0 0 0
144 1 1 0 98.00156820 1.35023366 7.50000000 0 0 0
145 1 1 0 99.42147722 1.33415945 7.50000000 0 0 0
146 1 1 0 100.14535250 2.55579955 7.50000000 0 0 0
147 1 1 0 101.56526142 2.53972533 7.50000000 0 0 0
148 1 1 0 102.26129545 1.30201102 7.50000000 0 0 0
149 1 1 0 103.68120447 1.28593680 7.50000000 0 0 0
150 1 1 0 104.40507976 2.50757690 7.50000000 0 0 0
151 1 1 0 105.82498868 2.49150269 7.50000000 0 0 0
152 1 1 0 106.52102271 1.25378838 7.50000000 0 0 0
153 1 1 0 107.94093173 1.23771416 7.50000000 0 0 0
154 1 1 0 0.05568270 4.91870883 7.50000000 0 0 0
155 1 1 0 1.47559172 4.90263462 7.50000000 0 0 0
156 1 1 0 2.19946701 6.12427472 7.50000000 0 0 0
157 1 1 0 3.61937593 6.10820050 7.50000000 0 0 0
158 1 1 0 4.31540996 4.87048619 7.50000000 0 0 0
159 1 1 0 5.73531898 4.85441197 7.50000000 0 0 0
160 1 1 0 6.45919426 6.07605207 7.50000000 0 0 0
161 1 1 0 7.87910318 6.05997786 7.50000000 0 0 0
162 1 1 0 8.57513721 4.82226355 7.50000000 0 0 0
163 1 1 0 9.99504623 4.80618933 7.50000000 0 0 0
164 1 1 0 10.71892152 6.02782943 7.50000000 0 0 0
165 1 1 0 12.13883043 6.01175522 7.50000000 0 0 0
166 1 1 0 12.83486447 4.77404090 7.50000000 0 0 0
167 1 1 0 14.25477349 4.75796669 7.50000000 0 0 0
168 1 1 0 14.97864877 5.97960679 7.50000000 0 0 0
169 1 1 0 16.39855769 5.96353258 7.50000000 0 0 0
170 1 1 0 17.09459172 4.72581826 7.50000000 0 0 0
171 1 1 0 18.51450074 4.70974405 7.50000000 0 0 0
172 1 1 0 19.23837602 5.93138415 7.50000000 0 0 0
173 1 1 0 20.65828494 5.91530994 7.50000000 0 0 0
174 1 1 0 21.35431898 4.67759562 7.50000000 0 0 0
175 1 1 0 22.77422799 4.66152141 7.50000000 0 0 0
176 1 1 0 23.49810328 5.88316151 7.50000000 0 0 0
177 1 1 0 24.91801220 5.86708730 7.50000000 0 0 0
178 1 1 0 25.61404623 4.62937298 7.50000000 0 0 0
179 1 1 0 27.03395525 4.61329877 7.50000000 0 0 0
180 1 1 0 27.75783053 5.83493887 7.50000000 0 0 0
181 1 1 0 29.17773945 5.81886465 7.50000000 0 0 0
182 1 1 0 29.87377348 4.58115034 7.50000000 0 0 0
183 1 1 0 31.29368250 4.56507613 7.50000000 0 0 0
184 1 1 0 32.01755779 5.78671623 7.50000000 0 0 0
185 1 1 0 33.43746671 5.77064201 7.50000000 0 0 0
186 1 1 0 34.13350074 4.53292770 7.50000000 0 0 0
187 1 1 0 35.55340976 4.51685348 7.50000000 0 0 0
188 1 1 0 36.27728504 5.73849358 7.50000000 0 0 0
189 1 1 0 37.69719396 5.72241937 7.50000000 0 0 0
190 1 1 0 38.39322799 4.48470506 7.50000000 0 0 0
191 1 1 0 39.81313701 4.46863084 7.50000000 0 0 0
192 1 1 0 40.53701230 5.69027094 7.50000000 0 0 0
193 1 1 0 41.95692121 5.67419673 7.50000000 0 0 0
194 1 1 0 42.65295525 4.43648241 7.50000000 0 0 0
195 1 1 0 44.07286427 4.42040820 7.50000000 0 0 0
196 1 1 0 44.79673955 5.64204830 7.50000000 0 0 0
197 1 1 0 46.21664847 5.62597409 7.50000000 0 0 0
198 1 1 0 46.91268250 4.38825977 7.50000000 0 0 0
199 1 1 0 48.33259152 4.37218556 7.50000000 0 0 0
200 1 1 0 49.05646680 5.59382566 7.50000000 0 0 0
201 1 1 0 50.47637572 5.57775145 7.50000000 0 0 0
202 1 1 0 51.17240976 4.34003713 7.50000000 0 0 0
203 1 1 0 52.59231877 4.32396292 7.50000000 0 0 0
204 1 1 0 53.31619406 5.54560302 7.50000000 0 0 0
205 1 1 0 54.73610298 5.52952881 7.50000000 0 0 0
206 1 1 0 55.43213701 4.29181449 7.50000000 0 0 0
207 1 1 0 56.85204603 4.27574028 7.50000000 0 0 0
208 1 1 0 57.57592131 5.49738038 7.50000000 0 0 0
209 1 1 0 58.99583023 5.48130616 7.50000000 0 0 0
210 1 1 0 59.69186426 4.24359185 7.50000000 0 0 0
211 1 1 0 61.11177328 4.22751763 7.50000000 0 0 0
212 1 1 0 61.83564857 5.44915773 7.50000000 0 0 0
213 1 1 0 63.25555749 5.43308352 7.50000000 0 0 0
214 1 1 0 63.95159152 4.19536921 7.50000000 0 0 0
215 1 1 0 65.37150054 4.17929499 7.50000000 0 0 0
216 1 1 0 66.09537582 5.40093509 7.50000000 0 0 0
217 1 1 0 67.51528474 5.38486088 7.50000000 0 0 0
218 1 1 0 68.21131877 4.14714656 7.50000000 0 0 0
219 1 1 0 69.63122779 4.13107235 7.50000000 0 0 0
220 1 1 0 70.35510308 5.35271245 7.50000000 0 0 0
221 1 1 0 71.77501199 5.33663824 7.50000000 0 0 0
222 1 1 0 72.47104603 4.09892392 7.50000000 0 0 0
223 1 1 0 73.89095505 4.08284971 7.50000000 0 0 0
224 1 1 0 74.61483033 5.30448981 7.50000000 0 0 0
225 1 1 0 76.03473925 5.28841560 7.50000000 0 0 0
226 1 1 0 76.73077328 4.05070128 7.50000000 0 0 0
227 1 1 0 78.15068230 4.03462707 7.50000000 0 0 0
228 1 1 0 78.87455758 5.25626717 7.50000000 0 0 0
229 1 1 0 80.29446650 5.24019296 7.50000000 0 0 0
230 1 1 0 80.99050054 4.00247864 7.50000000 0 0 0
231 1 1 0 82.41040955 3.98640443 7.50000000 0 0 0
232 1 1 0 83.13428484 5.20804453 7.50000000 0 0 0
233 1 1 0 84.55419376 5.19197031 7.50000000 0 0 0
234 1 1 0 85.25022779 3.95425600 7.50000000 0 0 0
235 1 1 0 86.67013681 3.93818179 7.50000000 0 0 0
236 1 1 0 87.39401209 5.15982188 7.50000000 0 0 0
237 1 1 0 88.81392101 5.14374767 7.50000000 0 0 0
238 1 1 0 89.50995504 3.90603336 7.50000000 0 0 0
239 1 1 0 90.92986406 3.88995914 7.50000000 0 0 0
240 1 1 0 91.65373935 5.11159924 7.50000000 0 0 0
241 1 1 0 93.07364827 5.09552503 7.50000000 0 0 0
242 1 1 0 93.76968230 3.85781072 7.50000000 0 0 0
243 1 1 0 95.18959132 3.84173650 7.50000000 0 0 0
244 1 1 0 95.91346660 5.06337660 7.50000000 0 0 0
245 1 1 0 97.33337552 5.04730239 7.50000000 0 0 0
246 1 1 0 98.02940955 3.80958807 7.50000000 0 0 0
247 1 1 0 99.44931857 3.79351386 7.50000000 0 0 0
248 1 1 0 100.17319386 5.01515396 7.50000000 0 0 0
249 1 1 0 101.59310277 4.99907975 7.50000000 0 0 0
250 1 1 0 102.28913681 3.76136543 7.50000000 0 0 0
251 1 1 0 103.70904583 3.74529122 7.50000000 0 0 0
252 1 1 0 104.43292111 4.96693132 7.50000000 0 0 0
253 1 1 0 105.85283003 4.95085711 7.50000000 0 0 0
254 1 1 0 106.54886406 3.71314279 7.50000000 0 0 0
255 1 1 0 107.96877308 3.69706858 7.50000000 0 0 0
256 1 1 0 0.08352406 7.37806324 7.50000000 0 0 0
257 1 1 0 1.50343307 7.36198903 7.50000000 0 0 0
258 1 1 0 2.22730836 8.58362913 7.50000000 0 0 0
259 1 1 0 3.64721728 8.56755492 7.50000000 0 0 0
260 1 1 0 4.34325131 7.32984060 7.50000000 0 0 0
261 1 1 0 5.76316033 7.31376639 7.50000000 0 0 0
262 1 1 0 6.48703561 8.53540649 7.50000000 0 0 0
263 1 1 0 7.90694453 8.51933228 7.50000000 0 0 0
264 1 1 0 8.60297856 7.28161796 7.50000000 0 0 0
265 1 1 0 10.02288758 7.26554375 7.50000000 0 0 0
266 1 1 0 10.74676287 8.48718385 7.50000000 0 0 0
267 1 1 0 12.16667179 8.47110964 7.50000000 0 0 0
268 1 1 0 12.86270582 7.23339532 7.50000000 0 0 0
269 1 1 0 14.28261484 7.21732111 7.50000000 0 0 0
270 1 1 0 15.00649012 8.43896121 7.50000000 0 0 0
271 1 1 0 16.42639904 8.42288699 7.50000000 0 0 0
272 1 1 0 17.12243307 7.18517268 7.50000000 0 0 0
273 1 1 0 18.54234209 7.16909846 7.50000000 0 0 0
274 1 1 0 19.26621738 8.39073856 7.50000000 0 0 0
275 1 1 0 20.68612629 8.37466435 7.50000000 0 0 0
276 1 1 0 21.38216033 7.13695004 7.50000000 0 0 0
277 1 1 0 22.80206935 7.12087582 7.50000000 0 0 0
278 1 1 0 23.52594463 8.34251592 7.50000000 0 0 0
279 1 1 0 24.94585355 8.32644171 7.50000000 0 0 0
280 1 1 0 25.64188758 7.08872739 7.50000000 0 0 0
281 1 1 0 27.06179660 7.07265318 7.50000000 0 0 0
282 1 1 0 27.78567189 8.29429328 7.50000000 0 0 0
283 1 1 0 29.20558080 8.27821907 7.50000000 0 0 0
284 1 1 0 29.90161484 7.04050475 7.50000000 0 0 0
285 1 1 0 31.32152385 7.02443054 7.50000000 0 0 0
286 1 1 0 32.04539914 8.24607064 7.50000000 0 0 0
287 1 1 0 33.46530806 8.22999643 7.50000000 0 0 0
288 1 1 0 34.16134209 6.99228211 7.50000000 0 0 0
289 1 1 0 35.58125111 6.97620790 7.50000000 0 0 0
290 1 1 0 36.30512639 8.19784800 7.50000000 0 0 0
291 1 1 0 37.72503531 8.18177379 7.50000000 0 0 0
292 1 1 0 38.42106934 6.94405947 7.50000000 0 0 0
293 1 1 0 39.84097836 6.92798526 7.50000000 0 0 0
294 1 1 0 40.56485365 8.14962536 7.50000000 0 0 0
295 1 1 0 41.98476257 8.13355114 7.50000000 0 0 0
296 1 1 0 42.68079660 6.89583683 7.50000000 0 0 0
297 1 1 0 44.10070562 6.87976262 7.50000000 0 0 0
298 1 1 0 44.82458090 8.10140272 7.50000000 0 0 0
299 1 1 0 46.24448982 8.08532850 7.50000000 0 0 0
300 1 1 0 46.94052385 6.84761419 7.50000000 0 0 0
301 1 1 0 48.36043287 6.83153997 7.50000000 0 0 0
302 1 1 0 49.08430816 8.05318007 7.50000000 0 0 0
303 1 1 0 50.50421707 8.03710586 7.50000000 0 0 0
304 1 1 0 51.20025111 6.79939155 7.50000000 0 0 0
305 1 1 0 52.62016013 6.78331733 7.50000000 0 0 0
306 1 1 0 53.34403541 8.00495743 7.50000000 0 0 0
307 1 1 0 54.76394433 7.98888322 7.50000000 0 0 0
308 1 1 0 55.45997836 6.75116890 7.50000000 0 0 0
309 1 1 0 56.87988738 6.73509469 7.50000000 0 0 0
310 1 1 0 57.60376267 7.95673479 7.50000000 0 0 0
311 1 1 0 59.02367158 7.94066058 7.50000000 0 0 0
312 1 1 0 59.71970562 6.70294626 7.50000000 0 0 0
313 1 1 0 61.13961463 6.68687205 7.50000000 0 0 0
314 1 1 0 61.86348992 7.90851215 7.50000000 0 0 0
315 1 1 0 63.28339884 7.89243794 7.50000000 0 0 0
316 1 1 0 63.97943287 6.65472362 7.50000000 0 0 0
317 1 1 0 65.39934189 6.63864941 7.50000000 0 0 0
318 1 1 0 66.12321717 7.86028951 7.50000000 0 0 0
319 1 1 0 67.54312609 7.84421530 7.50000000 0 0 0
320 1 1 0 68.23916012 6.60650098 7.50000000 0 0 0
321 1 1 0 69.65906914 6.59042677 7.50000000 0 0 0
322 1 1 0 70.38294443 7.81206687 7.50000000 0 0 0
323 1 1 0 71.80285335 7.79599265 7.50000000 0 0 0
324 1 1 0 72.49888738 6.55827834 7.50000000 0 0 0
325 1 1 0 73.91879640 6.54220412 7.50000000 0 0 0
326 1 1 0 74.64267168 7.76384422 7.50000000 0 0 0
327 1 1 0 76.06258060 7.74777001 7.50000000 0 0 0
328 1 1 0 76.75861463 6.51005570 7.50000000 0 0 0
329 1 1 0 78.17852365 6.49398148 7.50000000 0 0 0
330 1 1 0 78.90239894 7.71562158 7.50000000 0 0 0
331 1 1 0 80.32230785 7.69954737 7.50000000 0 0 0
332 1 1 0 81.01834189 6.46183305 7.50000000 0 0 0
333 1 1 0 82.43825091 6.44575884 7.50000000 0 0 0
334 1 1 0 83.16212619 7.66739894 7.50000000 0 0 0
335 1 1 0 84.58203511 7.65132473 7.50000000 0 0 0
336 1 1 0 85.27806914 6.41361041 7.50000000 0 0 0
337 1 1 0 86.69797816 6.39753620 7.50000000 0 0 0
338 1 1 0 87.42185345 7.61917630 7.50000000 0 0 0
339 1 1 0 88.84176236 7.60310209 7.50000000 0 0 0
340 1 1 0 89.53779640 6.36538777 7.50000000 0 0 0
341 1 1 0 90.95770541 6.34931356 7.50000000 0 0 0
342 1 1 0 91.68158070 7.57095366 7.50000000 0 0 0
343 1 1 0 93.10148962 7.55487945 7.50000000 0 0 0
344 1 1 0 93.79752365 6.31716513 7.50000000 0 0 0
345 1 1 0 95.21743267 6.30109092 7.50000000 0 0 0
346 1 1 0 95.94130795 7.52273102 7.50000000 0 0 0
347 1 1 0 97.36121687 7.50665680 7.50000000 0 0 0
348 1 1 0 98.05725090 6.26894249 7.50000000 0 0 0
349 1 1 0 99.47715992 6.25286828 7.50000000 0 0 0
350 1 1 0 100.20103521 7.47450837 7.50000000 0 0 0
351 1 1 0 101.62094413 7.45843416 7.50000000 0 0 0
352 1 1 0 102.31697816 6.22071985 7.50000000 0 0 0
353 1 1 0 103.73688718 6.20464563 7.50000000 0 0 0
354 1 1 0 104.46076246 7.42628573 7.50000000 0 0 0
355 1 1 0 105.88067138 7.41021152 7.50000000 0 0 0
356 1 1 0 106.57670541 6.17249721 7.50000000 0 0 0
357 1 1 0 107.99661443 6.15642299 7.50000000 0 0 0
358 1 1 0 0.11136541 9.83741766 7.50000000 0 0 0
359 1 1 0 1.53127443 9.82134345 7.50000000 0 0 0
360 1 1 0 2.25514971 11.04298355 7.50000000 0 0 0
361 1 1 0 3.67505863 11.02690933 7.50000000 0 0 0
362 1 1 0 4.37109266 9.78919502 7.50000000 0 0 0
363 1 1 0 5.79100168 9.77312080 7.50000000 0 0 0
364 1 1 0 6.51487697 10.99476090 7.50000000 0 0 0
365 1 1 0 7.93478588 10.97868669 7.50000000 0 0 0
366 1 1 0 8.63081992 9.74097238 7.50000000 0 0 0
367 1 1 0 10.05072894 9.72489816 7.50000000 0 0 0
368 1 1 0 10.77460422 10.94653826 7.50000000 0 0 0
369 1 1 0 12.19451314 10.93046405 7.50000000 0 0 0
370 1 1 0 12.89054717 9.69274973 7.50000000 0 0 0
371 1 1 0 14.31045619 9.67667552 7.50000000 0 0 0
372 1 1 0 15.03433147 10.89831562 7.50000000 0 0 0
373 1 1 0 16.45424039 10.88224141 7.50000000 0 0 0
374 1 1 0 17.15027443 9.64452709 7.50000000 0 0 0
375 1 1 0 18.57018344 9.62845288 7.50000000 0 0 0
376 1 1 0 19.29405873 10.85009298 7.50000000 0 0 0
377 1 1 0 20.71396765 10.83401877 7.50000000 0 0 0
378 1 1 0 21.41000168 9.59630445 7.50000000 0 0 0
379 1 1 0 22.82991070 9.58023024 7.50000000 0 0 0
380 1 1 0 23.55378598 10.80187034 7.50000000 0 0 0
381 1 1 0 24.97369490 10.78579613 7.50000000 0 0 0
382 1 1 0 25.66972893 9.54808181 7.50000000 0 0 0
383 1 1 0 27.08963795 9.53200760 7.50000000 0 0 0
384 1 1 0 27.81351324 10.75364770 7.50000000 0 0 0
385 1 1 0 29.23342216 10.73757348 7.50000000 0 0 0
386 1 1 0 29.92945619 9.49985917 7.50000000 0 0 0
387 1 1 0 31.34936521 9.48378495 7.50000000 0 0 0
388 1 1 0 32.07324049 10.70542505 7.50000000 0 0 0
389 1 1 0 33.49314941 10.68935084 7.50000000 0 0 0
390 1 1 0 34.18918344 9.45163653 7.50000000 0 0 0
391 1 1 0 35.60909246 9.43556231 7.50000000 0 0 0
392 1 1 0 36.33296775 10.65720241 7.50000000 0 0 0
393 1 1 0 37.75287666 10.64112820 7.50000000 0 0 0
394 1 1 0 38.44891070 9.40341388 7.50000000 0 0 0
395 1 1 0 39.86881972 9.38733967 7.50000000 0 0 0
396 1 1 0 40.59269500 10.60897977 7.50000000 0 0 0
397 1 1 0 42.01260392 10.59290556 7.50000000 0 0 0
398 1 1 0 42.70863795 9.35519124 7.50000000 0 0 0
399 1 1 0 44.12854697 9.33911703 7.50000000 0 0 0
400 1 1 0 44.85242225 10.56075713 7.50000000 0 0 0
401 1 1 0 46.27233117 10.54468292 7.50000000 0 0 0
402 1 1 0 46.96836521 9.30696860 7.50000000 0 0 0
403 1 1 0 48.38827422 9.29089439 7.50000000 0 0 0
404 1 1 0 49.11214951 10.51253449 7.50000000 0 0 0
405 1 1 0 50.53205843 10.49646028 7.50000000 0 0 0
406 1 1 0 51.22809246 9.25874596 7.50000000 0 0 0
407 1 1 0 52.64800148 9.24267175 7.50000000 0 0 0
408 1 1 0 53.37187676 10.46431185 7.50000000 0 0 0
409 1 1 0 54.79178568 10.44823763 7.50000000 0 0 0
410 1 1 0 55.48781971 9.21052332 7.50000000 0 0 0
411 1 1 0 56.90772873 9.19444911 7.50000000 0 0 0
412 1 1 0 57.63160402 10.41608921 7.50000000 0 0 0
413 1 1 0 59.05151294 10.40001499 7.50000000 0 0 0
414 1 1 0 59.74754697 9.16230068 7.50000000 0 0 0
415 1 1 0 61.16745599 9.14622646 7.50000000 0 0 0
416 1 1 0 61.89133127 10.36786656 7.50000000 0 0 0
417 1 1 0 63.31124019 10.35179235 7.50000000 0 0 0
418 1 1 0 64.00727422 9.11407804 7.50000000 0 0 0
419 1 1 0 65.42718324 9.09800382 7.50000000 0 0 0
420 1 1 0 66.15105853 10.31964392 7.50000000 0 0 0
421 1 1 0 67.57096744 10.30356971 7.50000000 0 0 0
422 1 1 0 68.26700148 9.06585539 7.50000000 0 0 0
423 1 1 0 69.68691050 9.04978118 7.50000000 0 0 0
424 1 1 0 70.41078578 10.27142128 7.50000000 0 0 0
425 1 1 0 71.83069470 10.25534707 7.50000000 0 0 0
426 1 1 0 72.52672873 9.01763275 7.50000000 0 0 0
427 1 1 0 73.94663775 9.00155854 7.50000000 0 0 0
428 1 1 0 74.67051303 10.22319864 7.50000000 0 0 0
429 1 1 0 76.09042195 10.20712443 7.50000000 0 0 0
430 1 1 0 76.78645599 8.96941011 7.50000000 0 0 0
431 1 1 0 78.20636500 8.95333590 7.50000000 0 0 0
432 1 1 0 78.93024029 10.17497600 7.50000000 0 0 0
433 1 1 0 80.35014921 10.15890179 7.50000000 0 0 0
434 1 1 0 81.04618324 8.92118747 7.50000000 0 0 0
435 1 1 0 82.46609226 8.90511326 7.50000000 0 0 0
436 1 1 0 83.18996754 10.12675336 7.50000000 0 0 0
437 1 1 0 84.60987646 10.11067914 7.50000000 0 0 0
438 1 1 0 85.30591049 8.87296483 7.50000000 0 0 0
439 1 1 0 86.72581951 8.85689061 7.50000000 0 0 0
440 1 1 0 87.44969480 10.07853071 7.50000000 0 0 0
441 1 1 0 88.86960372 10.06245650 7.50000000 0 0 0
442 1 1 0 89.56563775 8.82474219 7.50000000 0 0 0
443 1 1 0 90.98554677 8.80866797 7.50000000 0 0 0
444 1 1 0 91.70942205 10.03030807 7.50000000 0 0 0
445 1 1 0 93.12933097 10.01423386 7.50000000 0 0 0
446 1 1 0 93.82536500 8.77651954 7.50000000 0 0 0
447 1 1 0 95.24527402 8.76044533 7.50000000 0 0 0
448 1 1 0 95.96914931 9.98208543 7.50000000 0 0 0
449 1 1 0 97.38905822 9.96601122 7.50000000 0 0 0
450 1 1 0 98.08509226 8.72829690 7.50000000 0 0 0
451 1 1 0 99.50500127 8.71222269 7.50000000 0 0 0
452 1 1 0 100.22887656 9.93386279 7.50000000 0 0 0
453 1 1 0 101.64878548 9.91778858 7.50000000 0 0 0
454 1 1 0 102.34481951 8.68007426 7.50000000 0 0 0
455 1 1 0 103.76472853 8.66400005 7.50000000 0 0 0
456 1 1 0 104.48860381 9.88564015 7.50000000 0 0 0
457 1 1 0 105.90851273 9.86956594 7.50000000 0 0 0
458 1 1 0 106.60454677 8.63185162 7.50000000 0 0 0
459 1 1 0 108.02445578 8.61577741 7.50000000 0 0 0
460 1 1 0 0.13920676 12.29677207 7.50000000 0 0 0
461 1 1 0 1.55911578 12.28069786 7.50000000 0 0 0
462 1 1 0 2.28299106 13.50233796 7.50000000 0 0 0
463 1 1 0 3.70289998 13.48626375 7.50000000 0 0 0
464 1 1 0 4.39893401 12.24854943 7.50000000 0 0 0
465 1 1 0 5.81884303 12.23247522 7.50000000 0 0 0
466 1 1 0 6.54271832 13.45411532 7.50000000 0 0 0
467 1 1 0 7.96262724 13.43804111 7.50000000 0 0 0
468 1 1 0 8.65866127 12.20032679 7.50000000 0 0 0
469 1 1 0 10.07857029 12.18425258 7.50000000 0 0 0
470 1 1 0 10.80244557 13.40589268 7.50000000 0 0 0
471 1 1 0 12.22235449 13.38981847 7.50000000 0 0 0
472 1 1 0 12.91838852 12.15210415 7.50000000 0 0 0
473 1 1 0 14.33829754 12.13602994 7.50000000 0 0 0
474 1 1 0 15.06217283 13.35767004 7.50000000 0 0 0
475 1 1 0 16.48208174 13.34159582 7.50000000 0 0 0
476 1 1 0 17.17811578 12.10388151 7.50000000 0 0 0
477 1 1 0 18.59802480 12.08780729 7.50000000 0 0 0
478 1 1 0 19.32190008 13.30944739 7.50000000 0 0 0
479 1 1 0 20.74180900 13.29337318 7.50000000 0 0 0
480 1 1 0 21.43784303 12.05565887 7.50000000 0 0 0
481 1 1 0 22.85775205 12.03958465 7.50000000 0 0 0
482 1 1 0 23.58162734 13.26122475 7.50000000 0 0 0
483 1 1 0 25.00153625 13.24515054 7.50000000 0 0 0
484 1 1 0 25.69757029 12.00743622 7.50000000 0 0 0
485 1 1 0 27.11747930 11.99136201 7.50000000 0 0 0
486 1 1 0 27.84135459 13.21300211 7.50000000 0 0 0
487 1 1 0 29.26126351 13.19692790 7.50000000 0 0 0
488 1 1 0 29.95729754 11.95921358 7.50000000 0 0 0
489 1 1 0 31.37720656 11.94313937 7.50000000 0 0 0
490 1 1 0 32.10108184 13.16477947 7.50000000 0 0 0
491 1 1 0 33.52099076 13.14870526 7.50000000 0 0 0
492 1 1 0 34.21702479 11.91099094 7.50000000 0 0 0
493 1 1 0 35.63693381 11.89491673 7.50000000 0 0 0
494 1 1 0 36.36080910 13.11655683 7.50000000 0 0 0
495 1 1 0 37.78071802 13.10048262 7.50000000 0 0 0
496 1 1 0 38.47675205 11.86276830 7.50000000 0 0 0
497 1 1 0 39.89666107 11.84669409 7.50000000 0 0 0
498 1 1 0 40.62053635 13.06833419 7.50000000 0 0 0
499 1 1 0 42.04044527 13.05225997 7.50000000 0 0 0
500 1 1 0 42.73647930 11.81454566 7.50000000 0 0 0
501 1 1 0 44.15638832 11.79847144 7.50000000 0 0 0
502 1 1 0 44.88026361 13.02011154 7.50000000 0 0 0
503 1 1 0 46.30017252 13.00403733 7.50000000 0 0 0
504 1 1 0 46.99620656 11.76632302 7.50000000 0 0 0
505 1 1 0 48.41611558 11.75024880 7.50000000 0 0 0
506 1 1 0 49.13999086 12.97188890 7.50000000 0 0 0
507 1 1 0 50.55989978 12.95581469 7.50000000 0 0 0
508 1 1 0 51.25593381 11.71810037 7.50000000 0 0 0
509 1 1 0 52.67584283 11.70202616 7.50000000 0 0 0
510 1 1 0 53.39971812 12.92366626 7.50000000 0 0 0
511 1 1 0 54.81962703 12.90759205 7.50000000 0 0 0
512 1 1 0 55.51566107 11.66987773 7.50000000 0 0 0
513 1 1 0 56.93557008 11.65380352 7.50000000 0 0 0
514 1 1 0 57.65944537 12.87544362 7.50000000 0 0 0
515 1 1 0 59.07935429 12.85936941 7.50000000 0 0 0
516 1 1 0 59.77538832 11.62165509 7.50000000 0 0 0
517 1 1 0 61.19529734 11.60558088 7.50000000 0 0 0
518 1 1 0 61.91917262 12.82722098 7.50000000 0 0 0
519 1 1 0 63.33908154 12.81114677 7.50000000 0 0 0
520 1 1 0 64.03511557 11.57343245 7.50000000 0 0 0
521 1 1 0 65.45502459 11.55735824 7.50000000 0 0 0
522 1 1 0 66.17889988 12.77899834 7.50000000 0 0 0
523 1 1 0 67.59880880 12.76292412 7.50000000 0 0 0
524 1 1 0 68.29484283 11.52520981 7.50000000 0 0 0
525 1 1 0 69.71475185 11.50913560 7.50000000 0 0 0
526 1 1 0 70.43862713 12.73077570 7.50000000 0 0 0
527 1 1 0 71.85853605 12.71470148 7.50000000 0 0 0
528 1 1 0 72.55457008 11.47698717 7.50000000 0 0 0
529 1 1 0 73.97447910 11.46091295 7.50000000 0 0 0
530 1 1 0 74.69835439 12.68255305 7.50000000 0 0 0
531 1 1 0 76.11826330 12.66647884 7.50000000 0 0 0
532 1 1 0 76.81429734 11.42876453 7.50000000 0 0 0
533 1 1 0 78.23420636 11.41269031 7.50000000 0 0 0
534 1 1 0 78.95808164 12.63433041 7.50000000 0 0 0
535 1 1 0 80.37799056 12.61825620 7.50000000 0 0 0
536 1 1 0 81.07402459 11.38054188 7.50000000 0 0 0
537 1 1 0 82.49393361 11.36446767 7.50000000 0 0 0
538 1 1 0 83.21780890 12.58610777 7.50000000 0 0 0
539 1 1 0 84.63771781 12.57003356 7.50000000 0 0 0
540 1 1 0 85.33375185 11.33231924 7.50000000 0 0 0
541 1 1 0 86.75366086 11.31624503 7.50000000 0 0 0
542 1 1 0 87.47753615 12.53788513 7.50000000 0 0 0
543 1 1 0 88.89744507 12.52181092 7.50000000 0 0 0
544 1 1 0 89.59347910 11.28409660 7.50000000 0 0 0
545 1 1 0 91.01338812 11.26802239 7.50000000 0 0 0
546 1 1 0 91.73726340 12.48966249 7.50000000 0 0 0
547 1 1 0 93.15717232 12.47358828 7.50000000 0 0 0
548 1 1 0 93.85320635 11.23587396 7.50000000 0 0 0
549 1 1 0 95.27311537 11.21979975 7.50000000 0 0 0
550 1 1 0 95.99699066 12.44143985 7.50000000 0 0 0
551 1 1 0 97.41689958 12.42536563 7.50000000 0 0 0
552 1 1 0 98.11293361 11.18765132 7.50000000 0 0 0
553 1 1 0 99.53284263 11.17157710 7.50000000 0 0 0
554 1 1 0 100.25671791 12.39321720 7.50000000 0 0 0
555 1 1 0 101.67662683 12.37714299 7.50000000 0 0 0
556 1 1 0 102.37266086 11.13942868 7.50000000 0 0 0
557 1 1 0 103.79256988 11.12335446 7.50000000 0 0 0
558 1 1 0 104.51644517 12.34499456 7.50000000 0 0 0
559 1 1 0 105.93635408 12.32892035 7.50000000 0 0 0
560 1 1 0 106.63238812 11.09120603 7.50000000 0 0 0
561 1 1 0 108.05229714 11.07513182 7.50000000 0 0 0
562 1 1 0 0.16704811 14.75612649 7.50000000 0 0 0
563 1 1 0 1.58695713 14.74005228 7.50000000 0 0 0
564 1 1 0 2.31083242 15.96169237 7.50000000 0 0 0
565 1 1 0 3.73074133 15.94561816 7.50000000 0 0 0
566 1 1 0 4.42677537 14.70790385 7.50000000 0 0 0
567 1 1 0 5.84668439 14.69182963 7.50000000 0 0 0
568 1 1 0 6.57055967 15.91346973 7.50000000 0 0 0
569 1 1 0 7.99046859 15.89739552 7.50000000 0 0 0
570 1 1 0 8.68650262 14.65968121 7.50000000 0 0 0
571 1 1 0 10.10641164 14.64360699 7.50000000 0 0 0
572 1 1 0 10.83028692 15.86524709 7.50000000 0 0 0
573 1 1 0 12.25019584 15.84917288 7.50000000 0 0 0
574 1 1 0 12.94622988 14.61145856 7.50000000 0 0 0
575 1 1 0 14.36613889 14.59538435 7.50000000 0 0 0
576 1 1 0 15.09001418 15.81702445 7.50000000 0 0 0
577 1 1 0 16.50992310 15.80095024 7.50000000 0 0 0
578 1 1 0 17.20595713 14.56323592 7.50000000 0 0 0
579 1 1 0 18.62586615 14.54716171 7.50000000 0 0 0
580 1 1 0 19.34974143 15.76880181 7.50000000 0 0 0
581 1 1 0 20.76965035 15.75272760 7.50000000 0 0 0
582 1 1 0 21.46568438 14.51501328 7.50000000 0 0 0
583 1 1 0 22.88559340 14.49893907 7.50000000 0 0 0
584 1 1 0 23.60946869 15.72057917 7.50000000 0 0 0
585 1 1 0 25.02937761 15.70450496 7.50000000 0 0 0
586 1 1 0 25.72541164 14.46679064 7.50000000 0 0 0
587 1 1 0 27.14532066 14.45071643 7.50000000 0 0 0
588 1 1 0 27.86919594 15.67235653 7.50000000 0 0 0
589 1 1 0 29.28910486 15.65628231 7.50000000 0 0 0
590 1 1 0 29.98513889 14.41856800 7.50000000 0 0 0
591 1 1 0 31.40504791 14.40249378 7.50000000 0 0 0
592 1 1 0 32.12892320 15.62413388 7.50000000 0 0 0
593 1 1 0 33.54883211 15.60805967 7.50000000 0 0 0
594 1 1 0 34.24486615 14.37034536 7.50000000 0 0 0
595 1 1 0 35.66477517 14.35427114 7.50000000 0 0 0
596 1 1 0 36.38865045 15.57591124 7.50000000 0 0 0