ITEM: TIMESTEP
243
ITEM: NUMBER OF ATOMS
16856
ITEM: BOX BOUNDS pp pp pp
0.0000000000000000e+00 1.1289669000000001e+02
0.0000000000000000e+00 1.9554280299999999e+02
0.0000000000000000e+00 1.8399999600000001e+01
ITEM: ATOMS id type x y z c_csym c_2[1] c_2[2] c_2[3] c_2[4] c_2[5] c_2[6] c_3 
1 1 6.2884e-06 -5.27426e-08 7.43539 6.04528 -16628.6 -16662.1 -6938.6 15.749 0.14489 -0.657153 -7.41274 
2 1 2.15748 1.17948 7.44217 6.03454 -26919.7 -7037.92 -4356.21 767.91 12662.5 -23006 -7.41302 
3 1 3.5767 1.14757 7.45006 6.02073 -26139.4 -10367.2 -3278.75 23040.5 10329.8 -28906.1 -7.41316 
4 1 6.41416 1.08622 7.46982 6.01597 -32913.3 -2224.95 3197.56 33098.5 10956.8 -42622.1 -7.41431 
5 1 7.83337 1.05911 7.47854 6.0229 -30967.4 -9173.34 -1811.84 66713.9 -2572.25 -25500.5 -7.4139 
54 1 0.0572755 2.45839 7.44217 6.02752 -23144.3 -11585.3 -4984.43 -8585.62 23827.6 1203.88 -7.41295 
55 1 1.47654 2.42523 7.44426 6.02716 -22773.4 -11962 -4187.53 -2357.24 26212 -12974.2 -7.41307 
56 1 2.2132 3.63876 7.45357 6.02088 -46815.4 10974 -1307.26 -14532.1 27806.6 -19735.3 -7.41339 
57 1 3.63235 3.60688 7.45983 6.01484 -44279.5 5562.16 -2705.58 6616.8 30256.2 -22499.2 -7.41343 
58 1 4.31351 2.36119 7.45839 6.02639 -46273.2 11941 1764.37 8979.94 18651.8 -38109.6 -7.41385 
59 1 5.73264 2.33153 7.46757 6.0174 -43557.5 2310.03 -3561.46 40375 13051.9 -28617.7 -7.41343 
60 1 6.46769 3.54634 7.47564 6.0228 -60905.2 30218.7 8760.83 16954.6 16928.1 -39133.4 -7.41499 
61 1 7.88679 3.51873 7.48253 6.02368 -54613.2 10889.3 -8874.52 48661.3 8209.19 -17350.9 -7.41341 
62 1 8.56901 2.27377 7.48365 6.01787 -42683.7 12959.8 9606.64 41400.7 12735.4 -33765.3 -7.41537 
160 1 0.111876 4.91695 7.45835 6.01685 -30893.2 -8010.25 -3192.51 -29275.2 33820.3 2454.14 -7.4133 
161 1 1.53115 4.88405 7.45985 6.02067 -28110.5 -7042 1014.59 -23431.3 42080.2 -10940.6 -7.41384 
162 1 2.26562 6.09875 7.46976 6.01937 -61416.2 21647.4 -1427.48 -36696.3 27949.5 -13925 -7.41367 
163 1 3.68475 6.06707 7.47373 6.01137 -54600.5 16696.4 378.725 -18264.8 36954.2 -14404.2 -7.41414 
164 1 4.36694 4.82173 7.46983 6.01992 -69761 35168.5 4345.05 -12430.9 23252.7 -30990 -7.41429 
165 1 5.786 4.79179 7.47636 6.01331 -63074.3 20451.7 -5769.74 16133.6 23760.3 -18818 -7.41355 
166 1 6.5189 6.00774 7.48389 6.01568 -78440.2 49581.7 10574 -9266.22 13407.8 -29977.6 -7.41539 
167 1 7.93796 5.97939 7.48837 6.01998 -66693.9 24354.2 -12664.2 18790.3 11693.5 -7896.67 -7.41336 
168 1 8.62057 4.73438 7.48812 6.02052 -60914.3 37175.7 15813.7 17586.4 11710.4 -29266.5 -7.41612 
266 1 0.162579 7.37556 7.47551 6.01776 -36326.2 -6868.74 -6197.75 -48065.8 27412.9 2507.61 -7.41343 
267 1 1.58189 7.34327 7.4764 6.01984 -28573 -3135.87 7522.81 -43054.3 41896.5 -7950.67 -7.41493 
268 1 2.31453 8.55897 7.4835 6.02756 -66158.3 23958.5 -6526.61 -50751.6 16013.4 -8509.02 -7.41365 
269 1 3.73371 8.52782 7.48547 6.01386 -54109.2 21506.3 5637.16 -36551.8 30798.9 -5242.73 -7.41504 
270 1 4.41722 7.28304 7.48187 6.01998 -81882.9 45369.8 2303.56 -35161.2 15898 -21176.9 -7.41444 
271 1 5.83629 7.25294 7.48562 6.0129 -69876.2 30413.3 -4538.52 -11538.4 23379 -7922.92 -7.41405 
272 1 6.56764 8.46964 7.49065 6.01554 -83912.6 54675.1 7843.61 -32115.7 3355.9 -20396.8 -7.41536 
273 1 7.98674 8.4406 7.49322 6.02016 -67357.7 30613.6 -12084.6 -9626.9 9145.52 742.254 -7.41368 
274 1 8.67013 7.1958 7.49293 6.01661 -69470.1 48235 17413.9 -10963.9 4685.69 -22750 -7.41639 
377 1 5.88406 9.71444 7.49176 6.01707 -65493.8 32854.4 -71.551 -29389.8 16565 2270.67 -7.41472 
380 1 8.71795 9.65739 7.49604 6.01757 -71505.3 50049.9 14833.1 -33254.8 -3730.67 -18304.8 -7.41617 
6 1 10.6713 1.00389 7.49013 6.01602 -25753.9 -4601.6 6126.95 54687.6 11649.1 -19528 -7.41524 
7 1 12.0906 0.979388 7.49271 6.02199 -23356.9 -10074.4 -4514.3 77743.4 -12122.2 -2456.23 -7.41434 
8 1 14.9296 0.925951 7.49461 6.01766 -16575.6 -7264.04 5378 57039.7 16843.5 -3033.27 -7.41534 
9 1 16.3488 0.901826 7.4951 6.01709 -13800.2 -9145.63 -6246.58 81102.2 -15185.9 -2227.52 -7.41451 
63 1 9.98819 2.24819 7.48872 6.03016 -37857.5 -2673.11 -8381.57 69877.2 -4394.49 -10347 -7.41373 
64 1 10.723 3.4634 7.49192 6.02067 -39389.1 16730.9 16491.1 37648.9 12653.1 -20058.8 -7.4163 
65 1 12.1422 3.43822 7.4937 6.03126 -30749.6 -5297.31 -16452.8 60776.2 -7204.01 441.363 -7.41339 
66 1 12.8261 2.19425 7.4938 6.0187 -23419.9 -265.491 12580.6 49337 15226.6 -9038.62 -7.41595 
67 1 14.2454 2.1697 7.49421 6.02372 -17586.9 -11728.7 -12549.6 70682.8 -11658.7 2110.19 -7.4139 
68 1 14.9808 3.38452 7.49549 6.01712 -16233.7 -5782.73 18662.1 42610.8 21208.5 -8071.89 -7.41649 
69 1 16.4002 3.36 7.49598 6.02148 -7162.2 -17208.9 -20897.6 68522.4 -8074.53 -3938.45 -7.41361 
70 1 17.0848 2.11649 7.49579 6.01096 -13699.7 -10124.6 11375.8 61297.7 24868 -9356.05 -7.41589 
71 1 18.5041 2.09318 7.49769 6.01039 -7580.79 -12567.3 -14733.6 93341.4 -10864.8 -12569.7 -7.41418 
169 1 10.0397 4.70788 7.49171 6.03092 -50266.6 9132.96 -16740 44385.3 531.351 -4266.23 -7.41315 
170 1 10.7731 5.92373 7.49515 6.02482 -47251.9 29549.9 22816.8 9812.99 8709.85 -18831.8 -7.41697 
171 1 12.1923 5.89735 7.49654 6.03745 -32705.2 -634.949 -24978.5 32947.4 -4199.02 1545.24 -7.41288 
172 1 12.8768 4.65347 7.49593 6.02406 -27384.6 8527.88 23056.2 27061.1 14988.2 -12244.3 -7.41695 
173 1 14.2961 4.62807 7.49634 6.03169 -15359.5 -13490.2 -24678.9 49984.4 -6742.98 647.994 -7.41313 
174 1 15.0307 5.84318 7.49966 6.02216 -18052.3 -3361.86 29197.8 19004.8 21527 -16149.8 -7.4174 
175 1 16.4501 5.81795 7.50106 6.03011 -3654.13 -18027.5 -32689.6 47955.2 -1381.82 -9133.36 -7.41311 
176 1 17.1356 4.5748 7.49956 6.01123 -14437.7 -12027.6 24977 43498.3 30266.8 -17733.7 -7.417 
177 1 18.5549 4.55119 7.50222 6.01577 -2818.97 -17262.6 -29167.9 78211.9 -1239.78 -16609.6 -7.41357 
275 1 10.0893 7.16812 7.49534 6.02887 -53355.8 16914.9 -20844.3 13094.9 1277.63 766.568 -7.41303 
276 1 10.8215 8.38442 7.49846 6.0226 -51351.2 35311.6 24586.4 -18044.9 2189.5 -18997.3 -7.41709 
277 1 12.2408 8.35675 7.50021 6.03648 -32605.9 6302.31 -28889.9 4474.55 -2280.41 324.595 -7.41283 
278 1 12.9259 7.11301 7.49974 6.02969 -31054.1 14511.4 29454.6 -674.232 11303.4 -17312.1 -7.4175 
279 1 14.3452 7.08649 7.50098 6.03875 -14164.4 -9680.82 -32867.9 24330.1 -2574.65 -3580.23 -7.41281 
280 1 15.0787 8.30211 7.50591 6.0289 -25607.2 4196.19 36305.8 -6026.01 18631.7 -27069.9 -7.41794 
281 1 16.4981 8.27615 7.50875 6.02798 -7679 -7878.99 -40801.5 26186.7 4266.99 -15730.2 -7.41301 
282 1 17.1844 7.03326 7.50719 6.01718 -21724.6 -6718.81 36645.4 20559.2 30378.1 -29485 -7.41794 
283 1 18.6038 7.00929 7.51106 6.01958 -5968.1 -10394.4 -41154.2 58555.6 6456.08 -22281.5 -7.4133 
381 1 10.1372 9.62868 7.4981 6.02776 -52208.6 23226.7 -20368.2 -13370.3 869.94 3637.78 -7.41329 
384 1 12.9733 9.57286 7.50395 6.02862 -38506.8 22500.4 31727.9 -25584.3 6767.15 -24915.8 -7.41757 
385 1 14.3927 9.54531 7.50662 6.0357 -19037.3 3053.6 -36586.2 940.255 1668.63 -9249.29 -7.41291 
388 1 17.2307 9.49234 7.51611 6.02517 -37749.4 8950.17 45305.5 -1291.21 26548 -42600.1 -7.4186 
389 1 18.6501 9.46817 7.521 6.01481 -19483 9503.19 -50396.1 39781.5 11747.4 -27005.8 -7.41329 
10 1 19.1883 0.849538 7.49911 6.00281 -14224.8 -6926.41 3201.2 87132 24590.2 -16055.9 -7.4154 
11 1 20.6076 0.828175 7.5031 5.99739 -11090.7 -4888.93 -6997.18 126687 -17098.5 -23734.2 -7.41478 
12 1 23.4471 0.781185 7.51509 5.97016 -17639.5 -837.079 3603.09 161698 33393.6 -36354.4 -7.41591 
13 1 24.8664 0.765999 7.52197 5.96792 -14703.8 2733.84 -6827 210864 -22057.7 -39674.9 -7.41512 
14 1 27.7061 0.727628 7.53541 5.94106 -22335.3 7715.68 4726.46 251427 40535.8 -43587.1 -7.41641 
72 1 19.24 3.30795 7.5015 6 -16798.3 -11202.3 18532.8 75630.4 35592.2 -22538.8 -7.41654 
73 1 20.6593 3.28654 7.50614 6.00086 -8031.79 -10217.1 -23186.1 116816 -4390.88 -25267.2 -7.41406 
74 1 21.3437 2.04314 7.50681 5.98751 -19576.2 -5370.05 11235 115966 36613.3 -29443.9 -7.41618 
75 1 22.763 2.02457 7.51316 5.98488 -13653.7 -2022 -15527.2 162596 -11613.9 -33541.8 -7.41456 
76 1 23.4985 3.24022 7.5207 5.97222 -33488 5666.36 21861.2 149506 48803.5 -40704.1 -7.41721 
77 1 24.9177 3.22496 7.52847 5.97565 -25368.2 9195.78 -24946.8 199323 -5888.72 -38791.1 -7.41435 
78 1 25.6022 1.98195 7.52846 5.95706 -30810.1 9985.03 13780.6 202479 46674 -43257.5 -7.41686 
79 1 27.0214 1.97027 7.53557 5.95803 -25716.7 11863.1 -16395.9 250965 -15905.9 -40337.5 -7.41477 
80 1 27.7559 3.18728 7.54458 5.94528 -48955.5 28243.5 25447 235823 57393.3 -44921.4 -7.41799 
178 1 19.2897 5.76643 7.50943 6.0028 -24962.8 -7976.08 33807.5 55443.6 40080.7 -32762.7 -7.41774 
179 1 20.709 5.74491 7.51499 6.00823 -11582.9 -5541.38 -38116.9 98961 5996.23 -28829.8 -7.41365 
180 1 21.3944 4.50192 7.51392 5.98773 -30669.3 -2028.61 28675.6 98986.4 46491 -36795.9 -7.41748 
181 1 22.8137 4.48332 7.52107 5.99279 -19826.4 2398.18 -32427.6 146849 1778.12 -34687.6 -7.414 
182 1 23.5473 5.6999 7.53181 5.97823 -53653.6 19546.3 41900.6 125926 54300.4 -46677.5 -7.41873 
183 1 24.9664 5.68455 7.53998 5.98884 -41150.3 24289.1 -43813.3 176015 5471.19 -38241.6 -7.41383 
184 1 25.6517 4.44178 7.53876 5.96116 -54249 26467 34652 180841 57975.3 -46506.6 -7.41846 
185 1 27.0708 4.42986 7.54643 5.97159 -44441.3 27057 -36176.1 229448 -1408.43 -38974.3 -7.41406 
186 1 27.8029 5.64818 7.55781 5.95601 -77067.2 52418.5 48590.1 204373 62299.9 -46350.9 -7.41981 
284 1 19.3367 8.22547 7.52006 6.01154 -41340.1 5999.77 47502.4 33094.6 37644.4 -44592.6 -7.41882 
285 1 20.756 8.20395 7.52623 6.00929 -24581.2 11896.2 -51760.6 78990.3 12434.2 -31578.9 -7.41345 
286 1 21.4423 6.96125 7.52524 5.99517 -48296.2 11029.1 46346.4 75841.6 47184.7 -45891.2 -7.41885 
287 1 22.8615 6.94267 7.53277 6.0017 -33488.6 18311.4 -49326.3 124821 10321.8 -35515 -7.41364 
288 1 23.5926 8.16065 7.54408 5.99136 -78611.7 41771.8 61589.9 99216.7 49551.7 -52690.2 -7.42023 
289 1 25.0116 8.14528 7.55195 6.00062 -62444.1 49283 -63291.2 149124 10480.5 -36036.5 -7.41339 
290 1 25.6979 6.90274 7.55172 5.97375 -80811.1 49121.9 56876.3 150381 57162.3 -49942.5 -7.42016 
291 1 27.1169 6.89056 7.55936 5.98893 -66775.7 50900.4 -57466.9 198545 5974.8 -36734 -7.4135 
292 1 27.846 8.11053 7.5704 5.97402 -106011 80115.4 72148.2 168538 55449.9 -47683.5 -7.42156 
392 1 21.4868 9.42166 7.53645 6.00812 -72219.7 33957.9 61880 53310.4 40662.7 -54762.5 -7.42007 
393 1 22.906 9.40325 7.54361 6.00067 -54436.1 44439.2 -65471.1 102963 13989.9 -34222.7 -7.41333 
396 1 25.7401 9.36513 7.56237 5.99154 -108974 76626.6 77626.5 120568 47517.5 -52897.2 -7.42166 
397 1 27.159 9.35279 7.56943 5.9966 -91331.5 81166.2 -78559.2 167704 7339.74 -32611.9 -7.41292 
15 1 29.1253 0.719448 7.54093 5.94125 -20352.7 9797.8 -7107.1 295225 -27125.5 -39345.5 -7.41533 
16 1 31.9654 0.68974 7.54943 5.92273 -26260.5 14159.6 4761.56 322941 44210.2 -37894.7 -7.41657 
17 1 33.3846 0.687179 7.55221 5.92352 -25170.2 14332.4 -7276.18 353211 -29801.4 -30150.7 -7.41543 
18 1 36.2251 0.664162 7.55599 5.91187 -29928.3 17765.2 4630.48 365440 45390.2 -28132.9 -7.41653 
81 1 29.175 3.1788 7.55079 5.95398 -42007.8 25858.9 -27245.4 280175 -9743.27 -37443.9 -7.41437 
82 1 29.8604 1.93663 7.54818 5.93214 -39034.5 23855.5 15212.1 284898 52478.6 -41922.7 -7.41733 
83 1 31.2795 1.93134 7.55256 5.93743 -35059.6 21076.8 -17525 322784 -19325.9 -34178.7 -7.41482 
84 1 32.0131 3.14966 7.56135 5.92616 -56353.3 42448.5 26656.9 304172 61070.4 -37243.9 -7.41837 
85 1 33.4321 3.14663 7.56435 5.93878 -50664.8 33287.3 -28480.6 335584 -12117.5 -28487.8 -7.41434 
86 1 34.1188 1.90547 7.55923 5.9169 -43112 30967.1 15332.9 341072 54521.4 -32564.5 -7.41744 
87 1 35.5378 1.90478 7.56097 5.92498 -40046.1 24594 -17612.9 365302 -21006.5 -24121.5 -7.41484 
88 1 36.2705 3.12409 7.56916 5.91557 -57512.7 46814.5 26496 344981 61919.4 -26702.6 -7.41843 
187 1 29.2219 5.63924 7.56425 5.9721 -65597.6 48186.4 -49072 248638 930.143 -35593.7 -7.41369 
188 1 29.9079 4.39715 7.56111 5.93959 -68335.1 50158.2 38075.3 257225 63791.7 -41980.8 -7.4192 
189 1 31.3269 4.39133 7.56582 5.95493 -59799.4 41752.4 -39141.4 295654 -4891.78 -32614.3 -7.41396 
190 1 32.0578 5.61109 7.57646 5.93953 -85571.1 71239.8 51131.9 266138 65770.3 -36455.5 -7.42041 
191 1 33.4766 5.60729 7.57953 5.95919 -75444.7 57020.9 -51467.8 298304 -2274.62 -27244.5 -7.41355 
192 1 34.164 4.36617 7.57397 5.92564 -71687.1 60028.3 38682.6 309511 65813.3 -31223.8 -7.41948 
193 1 35.5829 4.36478 7.5756 5.94343 -64183.3 44961.2 -39703.4 335010 -6821.82 -23117.1 -7.41391 
194 1 36.3128 5.5855 7.58543 5.92925 -83025.9 74610.6 50834.7 303613 67045.7 -25253.4 -7.42058 
293 1 29.2648 8.10111 7.57668 5.99006 -90452.5 77265.7 -72030.7 212093 3798.77 -32427.2 -7.41304 
294 1 29.9518 6.85917 7.57538 5.9562 -97633.1 78310.6 62781.4 218052 61989.9 -42103.6 -7.42113 
295 1 31.3706 6.85264 7.58016 5.97578 -84709.1 68622 -62600.1 256379 876.826 -30580.2 -7.41326 
296 1 32.0983 8.07409 7.59029 5.96016 -113537 99999.3 76462.2 222530 58466.6 -36229.9 -7.42233 
297 1 33.5171 8.06941 7.59344 5.97691 -99100.4 85899.2 -75725.6 254771 -1177.83 -25353.5 -7.41282 
298 1 34.2055 6.82841 7.58981 5.94359 -98614.8 88527 64046.3 264596 64276.4 -30346.1 -7.42157 
299 1 35.6243 6.82606 7.59137 5.96458 -86832.6 70110.6 -63674.6 290908 -2035.61 -22183.6 -7.41316 
300 1 36.3511 8.04837 7.60082 5.95009 -106899 101019 76355.3 255620 60486.4 -24828.6 -7.42262 
400 1 29.9915 9.32275 7.58614 5.97498 -125833 107253 86561.7 179455 50842 -42483.4 -7.4228 
401 1 31.4102 9.31555 7.5909 5.98915 -108921 99697.3 -85947.9 217218 -38.426 -27286.2 -7.41254 
404 1 34.2428 9.29216 7.60222 5.96342 -123728 116043 89065.1 219922 53231 -30433 -7.42337 
405 1 35.6615 9.28881 7.60393 5.97918 -107875 99145.7 -87875.5 246627 -4493.63 -20646.2 -7.4124 
19 1 37.6442 0.665283 7.55702 5.91451 -29315.3 16592.3 -6823.76 383214 -31031.3 -20189.4 -7.41549 
20 1 40.4849 0.646752 7.55835 5.90823 -32488.1 19662 4616.71 385264 45447.4 -19523.7 -7.41647 
21 1 41.904 0.650037 7.55859 5.91118 -31853.8 18034.4 -6169.79 394659 -31847.3 -12311 -7.41555 
22 1 44.7447 0.634307 7.55885 5.90825 -33998.6 20989.2 4623.98 392056 45036.6 -13060.2 -7.41644 
23 1 46.1637 0.63877 7.55874 5.91081 -33355 18913.9 -5607.04 396665 -32542.2 -6512.34 -7.41562 
89 1 37.6894 3.12471 7.56986 5.92969 -52580.8 33850.9 -28048.8 364299 -13471.5 -18957.9 -7.41435 
90 1 38.3774 1.88444 7.56353 5.90984 -44470 32863.1 15110 370579 54725.5 -22868.5 -7.4174 
91 1 39.7964 1.88661 7.56381 5.91878 -41747.2 24775.6 -16853.1 384446 -22089.3 -15285.5 -7.41489 
92 1 40.5282 3.10661 7.57119 5.9109 -54923.4 45572.3 25867.7 364166 61616.4 -17932 -7.41838 
93 1 41.9472 3.1094 7.57065 5.92484 -50279.5 31119.9 -26865 375265 -14594 -11401.7 -7.41441 
94 1 42.6363 1.86982 7.56429 5.90767 -43545.4 32341.6 14815.3 382632 54221 -15325.8 -7.41735 
95 1 44.0553 1.87362 7.56385 5.91645 -40962.7 23586.3 -15929.9 390046 -23026.6 -8665.49 -7.41496 
96 1 44.7864 3.09407 7.57012 5.90955 -50460.5 41965.7 25188.4 370793 60862.9 -11497.2 -7.41832 
97 1 46.2054 3.09807 7.56892 5.92213 -45960 26920.1 -25662 376944 -15615.6 -5849.3 -7.41449 
98 1 46.8954 1.85899 7.5633 5.90786 -41578.6 30807.9 14551.3 385683 53457.6 -9812.68 -7.41732 
195 1 37.7317 5.58522 7.58579 5.9499 -73788.6 54843.8 -50995.7 324208 -4011.59 -18431.9 -7.41354 
196 1 38.4204 4.34504 7.57868 5.91815 -68252.6 59880.1 37919.3 337399 66130.1 -21150.2 -7.41949 
197 1 39.8394 4.34647 7.57836 5.93605 -61384.7 41626.4 -38576.8 352832 -8111.42 -14710.1 -7.41394 
198 1 40.5687 5.56774 7.58726 5.92357 -74787.5 69482.9 49348.2 321608 67337.4 -16366.3 -7.42056 
199 1 41.9875 5.56962 7.58592 5.94292 -66123.9 47398.5 -49210.2 334067 -5199.94 -11271.9 -7.4136 
200 1 42.6776 4.33022 7.57842 5.91479 -61518 55012.3 36762.1 349073 65716.2 -13586.4 -7.41942 
201 1 44.0965 4.3333 7.577 5.93132 -55033.8 35445.6 -36973.8 358029 -9229.41 -8347.69 -7.41402 
202 1 44.8254 5.55486 7.58463 5.92075 -64104.4 60766.1 47706.5 327951 67063.6 -9949.53 -7.42048 
203 1 46.2443 5.55795 7.58225 5.93869 -55785 37663.6 -47268.4 335290 -6209.17 -5919.74 -7.41369 
204 1 46.9354 4.31915 7.57531 5.91352 -53272 48124.1 35726.4 352059 64963.6 -8126.28 -7.41936 
301 1 37.7699 8.04699 7.60102 5.9684 -93459.4 80210.9 -75416.2 277037 -3694.35 -17812.4 -7.4128 
302 1 38.4598 6.80701 7.59529 5.93557 -90046 85058 62746.4 289974 65485.8 -20085.8 -7.42165 
303 1 39.8786 6.80739 7.59445 5.95648 -79061.6 62506.5 -62209.7 306542 -3549.62 -14519.8 -7.4132 
304 1 40.6051 8.03011 7.60313 5.94342 -92927.5 91470.3 74196.3 271727 61932 -15925.5 -7.42265 
305 1 42.0239 8.03084 7.60113 5.96349 -80265.6 67582.8 -73198.4 285063 -4919.68 -11330.1 -7.41288 
306 1 42.7153 6.79174 7.59435 5.93086 -77304.6 75297.7 60616.1 300722 66011.4 -12489.3 -7.4216 
307 1 44.1341 6.79376 7.59195 5.95046 -66891.6 50883.9 -59912.5 310727 -4544.98 -8496.7 -7.41329 
308 1 44.8604 8.01659 7.59944 5.93907 -76071.1 77401.1 71627.3 277167 62732.9 -9438.44 -7.42259 
309 1 46.2793 8.01854 7.59593 5.95799 -63946 52099.5 -70597.9 285212 -5703.34 -6234.04 -7.41299 
310 1 46.9719 6.78016 7.58921 5.92796 -62822.9 62915.1 58643.3 303363 65970.3 -6998.26 -7.42153 
408 1 38.495 9.2703 7.60931 5.95735 -110321 108940 87796.9 242142 55389 -20288.2 -7.42355 
409 1 39.9138 9.26953 7.60826 5.97302 -95343.5 87118.3 -86499.1 259479 -6569.51 -14205 -7.41245 
412 1 42.7488 9.25432 7.60863 5.95185 -91818.3 94070.8 85062.7 251305 57090 -12662.4 -7.42355 
413 1 44.1677 9.25514 7.60547 5.96963 -77539.4 70015.2 -83828.7 261942 -7531.31 -8739.54 -7.41257 
416 1 47.0043 9.24194 7.60211 5.94746 -71402.2 76116.9 82308.9 252960 58069 -7008.63 -7.42351 
24 1 49.0044 0.624697 7.55854 5.90956 -34793.6 21737.9 4626.47 393111 44433 -8306.57 -7.41644 
25 1 50.4235 0.629762 7.55826 5.9115 -34052.1 19214.3 -5204.97 395230 -33196.3 -2165.91 -7.41567 
26 1 53.2641 0.616561 7.55786 5.91074 -34294.9 21909.4 4611.81 392649 43767.6 -4620.06 -7.41645 
27 1 54.6832 0.62188 7.55751 5.91212 -33358.3 18884.4 -4968.91 393502 -33839.5 1330.78 -7.4157 
99 1 48.3144 1.86365 7.5625 5.91561 -39023 21513.6 -15159.7 389594 -23866.6 -3796.13 -7.41503 
100 1 49.0451 3.08435 7.56735 5.90947 -44764.9 37235.1 24668.4 371638 59970.4 -6782 -7.41829 
101 1 50.4641 3.08898 7.56576 5.92069 -40284.7 21704.1 -24734.6 375158 -16507.8 -1701 -7.41455 
102 1 51.1547 1.85023 7.5614 5.90869 -38462.8 28437.4 14375.7 385463 52645.1 -5678.63 -7.41731 
103 1 52.5737 1.85531 7.56039 5.91516 -35786.9 18777.8 -14639.6 387516 -24610.4 -39.5618 -7.41507 
104 1 53.3043 3.07607 7.5636 5.90937 -37645.7 31808.4 24366 370850 59100.9 -3073.75 -7.41828 
105 1 54.7234 3.08097 7.5618 5.91936 -33079.4 15753.4 -24168 372942 -17245.4 1651.85 -7.41458 
106 1 55.4143 1.84241 7.55903 5.90904 -33964.3 25417.5 14281.7 384956 51879.4 -2254.44 -7.41731 
205 1 48.3544 4.32312 7.57323 5.92864 -46975.6 27910 -35545.7 357277 -10228.9 -3656.69 -7.4141 
206 1 49.0831 5.54475 7.57924 5.91907 -52114.1 50504 46420.6 328686 66452.2 -5242.06 -7.42043 
207 1 50.5021 5.54849 7.57621 5.93566 -43889.8 26949.1 -45722 333184 -7101.4 -1885.56 -7.41376 
208 1 51.1939 4.31012 7.57049 5.91276 -43653.5 40201.6 35021.9 351679 64101.5 -4001.29 -7.41933 
209 1 52.613 4.31452 7.56802 5.92656 -37278.2 19705.3 -34546.9 354880 -11076.9 -33.6617 -7.41415 
210 1 53.3419 5.53603 7.57219 5.91732 -38567 39655.4 45635.4 327703 65683.9 -1470.95 -7.4204 
211 1 54.761 5.54005 7.56881 5.9328 -30377.9 15344.5 -44754.8 330457 -7846.21 1396.34 -7.4138 
212 1 55.4533 4.30198 7.56473 5.91155 -32768.8 31572 34666.3 350809 63258 -501.815 -7.41932 
311 1 48.3909 6.78308 7.58579 5.94628 -52769.3 37660.8 -57775.5 309415 -5386.28 -3939.7 -7.41339 
312 1 49.1172 8.00581 7.59164 5.93574 -58015.3 61500.5 69513.9 277417 62885.3 -4601.73 -7.42253 
313 1 50.5362 8.00839 7.58713 5.95355 -46129.1 35544.3 -68445.5 282266 -6387.46 -2262.34 -7.41308 
314 1 51.2298 6.77058 7.58137 5.92553 -46959.9 49507.7 57246.2 302772 65518.6 -2789.2 -7.42149 
315 1 52.6489 6.77394 7.57733 5.94268 -36930.8 23814.6 -56247.9 306431 -6144.47 -368.576 -7.41344 
316 1 53.3756 7.99639 7.58124 5.93255 -38347.3 44970.5 68155.9 276010 62517.3 -635.154 -7.4225 
317 1 54.7947 7.99924 7.57621 5.94926 -26530 18144 -67071.8 278817 -7026.47 1026.53 -7.41312 
318 1 55.489 6.76185 7.57202 5.92291 -29991.1 35250.6 56495.1 301533 64815.2 872.343 -7.42147 
417 1 48.4233 9.24365 7.59745 5.96504 -57663.3 50814.7 -81156 259361 -8155.91 -4345.91 -7.41269 
420 1 51.2616 9.23152 7.59154 5.94354 -49440.9 56893.5 80240 251661 58289.4 -2559.07 -7.42347 
421 1 52.6807 9.23366 7.58594 5.96008 -35845.5 30894.2 -79167.8 255311 -8736.12 -776.028 -7.41275 
424 1 55.5208 9.2219 7.57867 5.93957 -26346.1 36795.9 79048.5 249942 57890.2 1408.78 -7.42346 
28 1 57.524 0.608966 7.55705 5.9104 -32643.7 21133.3 4564.25 392854 43104.6 -1353.07 -7.41644 
29 1 58.943 0.614304 7.55669 5.91155 -31747.7 17116.9 -4877.67 392820 -34449.6 4540.66 -7.41571 
30 1 61.784 0.601152 7.55624 5.90911 -30332.4 18869.2 4464 394118 42490.4 2140.23 -7.41642 
31 1 63.2031 0.606283 7.55589 5.91014 -29228.6 14197.9 -4909.43 392996 -34982.6 8092.2 -7.4157 
107 1 56.8334 1.84762 7.55794 5.91439 -31161.3 15008 -14370.8 385978 -25249.2 3176.53 -7.41509 
108 1 57.5642 3.06826 7.55942 5.90855 -29411.7 25446.1 24249.7 370529 58320.7 296.766 -7.41827 
109 1 58.9833 3.07318 7.55761 5.91753 -24814.6 8413.89 -23926.2 371594 -17799.7 4781.05 -7.41459 
110 1 59.6743 1.83471 7.55655 5.9086 -28823.4 21091.9 14242.9 385378 51202.8 1118.83 -7.4173 
111 1 61.0934 1.83983 7.5555 5.91299 -25956.8 9768.49 -14317.9 385466 -25750.1 6445.39 -7.41509 
112 1 61.8247 3.06018 7.55542 5.90713 -20742.1 17626.2 24278 371159 57691.4 3982.67 -7.41827 
113 1 63.2439 3.06489 7.55376 5.91511 -15834.4 -56.5416 -23969.1 370997 -18141.6 8288.31 -7.41457 
114 1 63.9348 1.82639 7.55431 5.9076 -22489.5 15635.9 14236.5 386622 50674.5 5058.63 -7.41728 
115 1 65.354 1.83117 7.55336 5.91113 -19347.8 3776.67 -14462.1 385107 -26057.8 10386.9 -7.41507 
213 1 56.8725 4.30652 7.56211 5.92427 -26285.4 10333.6 -34008 352717 -11732.2 3100.77 -7.41417 
214 1 57.6018 5.52774 7.56442 5.91514 -24191 27614.9 45312.3 326937 64874.1 2054.21 -7.4204 
215 1 59.021 5.53177 7.56104 5.92949 -15872.3 2352.32 -44321.9 328419 -8400.08 4497.84 -7.4138 
216 1 59.7137 4.2939 7.55882 5.90972 -21295.6 21636.8 34597.7 350698 62502.3 3038.15 -7.41932 
217 1 61.1329 4.29836 7.55633 5.92139 -14712.5 -580.826 -33861.7 351447 -12173.4 6328.57 -7.41416 
218 1 61.8629 5.5191 7.55702 5.91241 -9504.98 14026.8 45366.3 327071 64129.6 5978.19 -7.4204 
219 1 63.2822 5.52293 7.55397 5.92564 -754.312 -11797.5 -44368.9 327067 -8754.47 7984.11 -7.41377 
220 1 63.975 4.28514 7.55355 5.90747 -8845.94 10577.2 34760.9 351317 61917.7 7234.66 -7.41932 
221 1 65.3942 4.28926 7.55139 5.91811 -1846.86 -12225.7 -34083 350279 -12350.9 10229.9 -7.41413 
319 1 56.9082 6.76534 7.56775 5.93892 -19854.8 8717.05 -55409.7 303661 -6775.11 2754.74 -7.41346 
320 1 57.6356 7.98732 7.56974 5.92903 -17988.1 27201.2 67536.9 274912 61801.7 3158.56 -7.4225 
321 1 59.0549 7.99018 7.5647 5.94451 -6007.95 -710.778 -66456.7 276147 -7581.58 4151.27 -7.41311 
322 1 59.7497 6.75311 7.56244 5.91979 -12483.8 19607 56293.8 301058 63999.2 4655.61 -7.42147 
323 1 61.169 6.7565 7.5584 5.93461 -2149.91 -8011.77 -55181 301748 -7264.62 5985.01 -7.41345 
324 1 61.8974 7.97785 7.55878 5.9251 2480.08 7526.4 67530.3 274905 60919 7405.87 -7.42251 
325 1 63.3168 7.9805 7.55426 5.93921 15024 -20878.6 -66542.5 274328 -8049.63 7628.39 -7.41307 
326 1 64.0119 6.74363 7.55395 5.91635 5657.23 2615.51 56541.7 301389 63199.7 9159.06 -7.42148 
327 1 65.4313 6.74669 7.55049 5.92993 16518.5 -25420 -55535 299984 -7569.26 9850.26 -7.41339 
425 1 56.94 9.22416 7.57273 5.95491 -12663.7 9834.25 -78051 251782 -9289.35 2386.02 -7.41277 
428 1 59.7819 9.21221 7.5654 5.93518 -3107.88 14911.9 78634.7 249358 57089.8 5547.96 -7.42346 
429 1 61.2013 9.21436 7.55978 5.94915 10904.3 -13142.9 -77747.6 249434 -9806.78 5625.83 -7.41274 
432 1 64.0449 9.20173 7.5537 5.93053 20519.2 -8507.63 78863.3 249973 56091.3 10419.9 -7.42346 
433 1 65.4645 9.20356 7.54894 5.94299 35195.8 -36730 -78228.9 247701 -10216.8 9386.26 -7.41267 
32 1 66.0442 0.59234 7.55546 5.90758 -26583.6 15918.9 4293.72 395494 41959.7 6430.12 -7.41638 
33 1 67.4633 0.596951 7.55508 5.9089 -25296.3 10803.8 -5051.68 392136 -35368 12619.1 -7.41569 
34 1 70.3047 0.581482 7.55452 5.90694 -22281 12539.1 4025.44 394166 41468.9 12101.1 -7.41633 
35 1 71.7239 0.58505 7.55398 5.90804 -20867.7 7076.79 -5263.57 386499 -35487.9 18748.2 -7.4157 
36 1 74.5654 0.567003 7.55286 5.90908 -17760.6 9013.73 3623.15 384693 40881.3 19788.9 -7.41627 
116 1 66.086 3.05104 7.55202 5.90554 -10817.8 9066.08 24425.3 371887 57258.1 8561.48 -7.41825 
117 1 67.5052 3.05525 7.55059 5.91261 -5633.57 -9051.81 -24278.4 369354 -18171 12772 -7.41455 
118 1 68.1959 1.81658 7.55238 5.90566 -15386.8 9737.22 14234.8 386799 50290.6 10122.1 -7.41725 
119 1 69.6151 1.82063 7.55149 5.90975 -12061 -2550.75 -14772.4 382139 -26060.1 15618.5 -7.41506 
120 1 70.348 3.03986 7.54931 5.90505 -976.633 348.449 24611.3 369981 56964.2 14611.5 -7.41823 
121 1 71.7673 3.04306 7.54806 5.91137 4552.87 -17892.7 -24745.8 362992 -17725 18819.8 -7.41454 
122 1 72.4574 1.80403 7.55053 5.90551 -8345.25 3798.58 14153 382048 49935.9 16928.3 -7.4172 
123 1 73.8766 1.80667 7.54956 5.91045 -4845.07 -8567.19 -15126.3 371499 -25584.2 22703.2 -7.41508 
124 1 74.6107 3.02512 7.54699 5.90693 7814.26 -7815.16 24643.2 360395 56630 22736.6 -7.41817 
222 1 66.1252 5.50937 7.55087 5.9096 6009.23 -267.03 45734.2 327378 63518.3 10876.4 -7.42041 
223 1 67.5446 5.51271 7.54833 5.92176 15149.9 -26536.8 -44861.2 324761 -8789.69 12402.1 -7.41373 
224 1 68.2373 4.27487 7.54938 5.90563 3790.5 -1016.67 35106 350982 61511.3 12649.9 -7.41931 
225 1 69.6567 4.27828 7.54759 5.91537 11177 -23998.2 -34604.5 346538 -12099.4 15377.2 -7.4141 
226 1 70.3888 5.49761 7.54638 5.90803 20839.4 -14717.5 46284.2 325230 63032.2 17297.5 -7.4204 
227 1 71.8083 5.49998 7.54441 5.91924 30493.6 -40738.5 -45605.4 317873 -8233.55 18264.2 -7.4137 
228 1 72.5006 4.2619 7.54633 5.90584 15543.8 -12287 35454.4 345948 61195.8 19871.5 -7.41928 
229 1 73.92 4.26394 7.54486 5.91488 23334.6 -34828.5 -35182.9 335471 -11141.9 22273.9 -7.4141 
230 1 74.6534 5.48239 7.54358 5.90976 33352.3 -28155.3 46671.9 316105 62654.5 25748.1 -7.42035 
328 1 66.1609 7.96725 7.54978 5.92116 23093.6 -12987.7 68030.1 275379 59994.2 12645.4 -7.42251 
329 1 67.5804 7.96944 7.54611 5.93392 36230.1 -41561.7 -67274 271928 -8268.42 11914.4 -7.413 
330 1 68.2755 6.73263 7.54743 5.91342 23295.9 -15078.8 57150.3 301040 62471.4 14916.3 -7.42149 
331 1 69.6951 6.73501 7.54471 5.9258 34775.2 -42849.8 -56346.9 295898 -7442.53 14833.7 -7.41334 
332 1 70.426 7.95466 7.54358 5.91855 42420.5 -33624.1 68832 273868 59145.8 19323.9 -7.4225 
333 1 71.8456 7.95591 7.54092 5.93002 56282 -61299.5 -68348.6 265414 -7797.95 17367.9 -7.41293 
334 1 72.5405 6.719 7.54326 5.91266 39181 -32164.9 57835.4 296413 61885.3 22412.4 -7.42146 
335 1 73.9602 6.72007 7.54133 5.92405 51352.8 -58794.2 -57233.7 285120 -6411.25 21305.8 -7.4133 
336 1 74.6925 7.93873 7.54058 5.91925 58538.9 -52668 69439.4 266169 58667.1 27739.5 -7.42242 
436 1 68.3099 9.18973 7.54498 5.92645 43046.5 -32576.3 79586.2 250434 55060.6 16454.3 -7.42345 
437 1 69.7296 9.19092 7.54139 5.93741 58549.8 -60101.8 -79291.5 244187 -10145.6 13996.1 -7.41257 
440 1 72.5767 9.1752 7.54004 5.92462 62906.2 -55746.2 80410.4 247281 54307.2 23924.8 -7.42339 
441 1 73.9965 9.17515 7.53781 5.9343 79337.7 -81424.8 -80405.7 234648 -8886.44 19617.4 -7.41249 
37 1 75.9846 0.568627 7.55184 5.91045 -16189.4 3577.06 -5440.04 369295 -35116 26935.2 -7.41575 
38 1 78.8262 0.546427 7.54909 5.91688 -12784.2 5947.24 3133.93 358463 39842.7 29686.1 -7.41618 
39 1 80.2455 0.544674 7.54682 5.91986 -11411.4 625.724 -5312.34 331169 -33756.6 36457 -7.41583 
40 1 83.0867 0.516192 7.54037 5.93386 -9915.87 3199.08 2788.29 305879 37285 39548.3 -7.41602 
41 1 84.506 0.509137 7.53576 5.93534 -9210.85 -1675.55 -4759.16 264596 -30461.2 42876.6 -7.41581 
125 1 76.0301 3.02643 7.54571 5.91358 13783 -25032.6 -25104.7 345608 -16517.6 26814.3 -7.41458 
126 1 76.7192 1.7868 7.54807 5.90971 -1747.36 -1328.02 13845.1 365521 49341.4 25998.1 -7.41712 
127 1 78.1385 1.78688 7.54656 5.91558 2006.87 -12720.2 -15233.7 345121 -24302.3 31671 -7.41516 
128 1 78.8737 3.00443 7.54412 5.91444 14136.3 -13318.4 24216.1 335240 55834 33021.6 -7.41804 
129 1 80.2932 3.00245 7.54223 5.92127 20244.8 -28117.2 -24783.8 308638 -14059 35937.2 -7.4147 
130 1 80.981 1.7619 7.54314 5.92192 1903.13 -4410.94 13242.6 327939 47763.1 36610.7 -7.41695 
131 1 82.4004 1.75772 7.54015 5.9258 5431.16 -13786.3 -14585.5 294017 -21616.7 40261.9 -7.41526 
132 1 83.1364 2.97431 7.53834 5.9323 13100.8 -14287.9 23157.2 286051 53386.5 43102.4 -7.4177 
133 1 84.5559 2.96713 7.5348 5.93575 18993.7 -24085.5 -23162.8 245749 -9984.01 41988.5 -7.41482 
231 1 76.073 5.48295 7.5421 5.92022 43750.5 -52175.5 -46154.7 300952 -6591.32 25854.1 -7.41372 
232 1 76.7645 4.24438 7.54405 5.91092 25041.5 -21595.9 35427.2 330186 60797.8 29315.7 -7.41919 
233 1 78.184 4.24396 7.54263 5.91947 33394 -41611.4 -35306.5 309940 -8991.23 30875.8 -7.41418 
234 1 78.9186 5.46146 7.54196 5.91814 41041.6 -37363.7 46305.5 293347 62301.4 36136.5 -7.42016 
235 1 80.3383 5.45886 7.54056 5.92702 51849.1 -57167.8 -45639.9 266642 -3125.48 34389.4 -7.41385 
236 1 81.0286 4.21946 7.54122 5.9235 27791.6 -26128.4 34571.7 295694 59743.1 40123.9 -7.41892 
237 1 82.4482 4.21491 7.53906 5.92908 36298.1 -41146 -34069.3 262319 -5075.56 39094.6 -7.41435 
238 1 83.1836 5.4315 7.53953 5.93675 37060.7 -38614.2 44575.5 249936 61148.6 46223.4 -7.41967 
239 1 84.6033 5.42395 7.53714 5.94013 48006.2 -49862.3 -42841.2 210261 2382.4 40416.1 -7.41408 
337 1 76.1123 7.93827 7.539 5.92968 73337.9 -77783.6 -69132.8 249932 -5869.81 24097.9 -7.41291 
338 1 76.8065 6.701 7.54146 5.91673 51424 -46522.9 58013.9 282427 61628.1 31869.8 -7.42134 
339 1 78.2263 6.69973 7.54021 5.92734 64376 -69626.9 -57449.9 261504 -3684.03 29130.3 -7.41336 