ITEM: TIMESTEP
0
ITEM: NUMBER OF ATOMS
16856
ITEM: BOX BOUNDS pp pp pp
0.0000000000000000e+00 1.1289669000000001e+02
0.0000000000000000e+00 1.9554280299999999e+02
0.0000000000000000e+00 1.8399999600000001e+01
ITEM: ATOMS id type x y z c_csym c_2[1] c_2[2] c_2[3] c_2[4] c_2[5] c_2[6] c_3 
1 1 0 0 7.5 6.04905 10586.4 10422.8 -64747.1 -31.1573 0.164646 0.166128 -7.41189 
2 1 2.14327 1.20648 7.5 6.04912 9835.95 11301.4 -62864 -1472.55 9475.02 -16807.6 -7.41199 
3 1 3.56318 1.19101 7.5 6.04918 11463.1 9021.41 -60635.9 2989.52 9020.83 -26237.5 -7.41211 
4 1 6.40302 1.16008 7.5 6.04918 9645.55 8748.01 -52413 -4241.68 8731.45 -43655.1 -7.41253 
5 1 7.82293 1.14461 7.5 6.04918 10988 6276.72 -48352.3 6174.56 5969.25 -45905.6 -7.41274 
54 1 0.0267909 2.45937 7.5 6.04907 8319.9 12298.6 -62945.1 -61.0238 18961.7 63.1331 -7.41199 
55 1 1.44671 2.4439 7.5 6.04912 12132.4 8873.5 -62297.7 1352.24 19183.6 -10914.3 -7.41201 
56 1 2.17006 3.66585 7.5 6.04913 7154.78 13090 -59349.1 -1154.54 26605.4 -16071.1 -7.41217 
57 1 3.58998 3.65038 7.5 6.0492 12426.5 7244.8 -57333.4 3516.98 26753.9 -24740.4 -7.41228 
58 1 4.28654 2.41296 7.5 6.04918 8560.07 11198.7 -57330.6 -2532.22 17465.6 -31523.4 -7.41227 
59 1 5.70645 2.3975 7.5 6.04918 11875.6 6982.72 -54412.3 5027.23 16295 -37244 -7.41243 
60 1 6.42981 3.61944 7.5 6.0492 7076.31 10555.8 -48707.3 -3360.41 22892.1 -42104.6 -7.41272 
61 1 7.84972 3.60398 7.5 6.0492 12081.7 4759.02 -46604.9 7104.14 20692.6 -42764.5 -7.41284 
62 1 8.54629 2.36656 7.5 6.04918 8308.75 7958.35 -42857 -5009.59 14690.1 -50383 -7.41302 
160 1 0.0535817 4.91873 7.5 6.04907 5275.97 13941.9 -57966.4 -119.16 34730.7 343.149 -7.41225 
161 1 1.4735 4.90326 7.5 6.04912 12633.6 6936.73 -56855.8 1601 35908.1 -10338.1 -7.41229 
162 1 2.19685 6.12521 7.5 6.04913 3889.56 14674.2 -53156.2 -916.577 39393.7 -14413.6 -7.41249 
163 1 3.61677 6.10975 7.5 6.0492 12635 5378.09 -50770.4 3957.13 40781.3 -22253.8 -7.41262 
164 1 4.31333 4.87233 7.5 6.0492 5591.38 12889.1 -52377 -1972.39 31573.6 -29464.3 -7.41253 
165 1 5.73324 4.85686 7.5 6.0492 12501.1 5259.08 -50196.4 5751.75 31310.1 -34004.9 -7.41265 
166 1 6.4566 6.07881 7.5 6.0492 3997.15 12253 -42787.3 -2642.87 33225.6 -38418.5 -7.41302 
167 1 7.87651 6.06334 7.5 6.0492 12528.3 3275.78 -42147.3 7825.52 32260.5 -37656.1 -7.41307 
168 1 8.57308 4.82593 7.5 6.0492 5551.02 9716.17 -37940.7 -4060.36 25227.3 -47376.3 -7.41327 
266 1 0.0803726 7.3781 7.5 6.04907 1856.96 15425.5 -50789 -174.039 45038.9 742.885 -7.41262 
267 1 1.50029 7.36263 7.5 6.04912 12512.4 4972.63 -48350 1782.94 47772.1 -9473.07 -7.41273 
268 1 2.22364 8.58458 7.5 6.04913 494.1 16099.4 -45421.4 -754.278 46108.1 -12124.8 -7.4129 
269 1 3.64356 8.56911 7.5 6.0492 12402.1 3538.99 -41674.7 4217.78 49317.6 -18960.6 -7.41308 
270 1 4.34012 7.3317 7.5 6.0492 2279.45 14459.6 -45441.7 -1537.03 40608.1 -26012.8 -7.41289 
271 1 5.76004 7.31623 7.5 6.0492 12561.7 3588.92 -43242.5 6238.11 41882.7 -29352.4 -7.41301 
272 1 6.48339 8.53818 7.5 6.0492 821.888 13864.8 -35695.6 -2128.34 38253.7 -33176.6 -7.41339 
273 1 7.9033 8.52271 7.5 6.0492 12589.7 1919.96 -35546.8 8206.79 39145.3 -31033 -7.41341 
274 1 8.59987 7.28529 7.5 6.0492 2531.18 11466.5 -31627.9 -3311.24 31563.5 -42188.4 -7.4136 
377 1 5.78683 9.77559 7.5 6.0492 12368.7 2001.27 -34366.6 6433.92 46853.8 -23675.5 -7.41346 
380 1 8.62666 9.74466 7.5 6.0492 -347.568 13154.8 -24968.6 -2825.74 32861.1 -35597.6 -7.41394 
6 1 10.6628 1.11368 7.5 6.04918 9240.24 5390.43 -35865.2 -6800.29 8069.37 -53113.5 -7.41338 
7 1 12.0827 1.09821 7.5 6.04918 10366.9 3516.61 -32379.5 8698.49 1272.41 -46657.9 -7.41357 
8 1 14.9225 1.06727 7.5 6.04918 8756.89 3283.09 -19460.5 -8911.75 8185.93 -44027.4 -7.41422 
9 1 16.3424 1.0518 7.5 6.04918 9783.82 2559.05 -18539.7 10321.9 -4013.67 -32028.5 -7.41427 
63 1 9.9662 2.35109 7.5 6.04918 11372.5 4103.87 -40415.2 8041.5 10299.5 -47151.8 -7.41315 
64 1 10.6896 3.57304 7.5 6.0492 6847.04 7158.73 -31741.1 -5689.26 17836.2 -51486.5 -7.41359 
65 1 12.1095 3.55757 7.5 6.0492 11660.8 2389.76 -32897.5 9661.39 11612.9 -42836.9 -7.41354 
66 1 12.806 2.32016 7.5 6.04918 7913.31 4935.99 -25231.5 -7361.97 11992.1 -50218.7 -7.41392 
67 1 14.2259 2.30469 7.5 6.04918 10833.2 2284.42 -25971.3 10064.1 2840.56 -39061.3 -7.4139 
68 1 14.9493 3.52664 7.5 6.0492 6537.37 4863.55 -14645.4 -7942.64 13680.6 -43140.7 -7.41446 
69 1 16.3692 3.51117 7.5 6.0492 11311.8 1877.74 -21471.2 10974 2111.63 -28500.9 -7.41412 
70 1 17.0658 2.27375 7.5 6.04918 7509.38 3781.23 -10397.2 -9294.15 10813.9 -35018.7 -7.41468 
71 1 18.4857 2.25829 7.5 6.04918 10444.3 2701.15 -15798.6 10977.8 -4221.11 -20841.6 -7.4144 
169 1 9.99299 4.81046 7.5 6.0492 12240.8 2789.27 -38532.1 8949.98 21749.5 -42404.7 -7.41326 
170 1 10.7163 6.03241 7.5 6.0492 4076.77 8955.45 -26164.9 -4766.11 24582.2 -47236.7 -7.41387 
171 1 12.1363 6.01694 7.5 6.0492 12455.8 1442.41 -31436.5 10356.4 19652.5 -36871.3 -7.41362 
172 1 12.8328 4.77952 7.5 6.0492 5421.26 6659.33 -20185 -6369.15 18372.6 -47527.8 -7.41418 
173 1 14.2527 4.76406 7.5 6.0492 12007.6 1463.78 -26886.7 10805.8 10196.4 -34260.2 -7.41385 
174 1 14.9761 5.986 7.5 6.0492 4094.08 6583.4 -9167.03 -7121.49 17021 -39993.8 -7.41474 
175 1 16.396 5.97054 7.5 6.0492 12484.2 1461.52 -23079.7 11367.3 6859.29 -23426.9 -7.41404 
176 1 17.0926 4.73312 7.5 6.0492 5247.33 5263.11 -4894 -8561.46 13859.6 -33753.1 -7.41495 
177 1 18.5125 4.71765 7.5 6.0492 11927.6 2342.5 -19289.8 11311.3 -96.768 -17156 -7.41423 
275 1 10.0198 7.26982 7.5 6.0492 12647.4 1659.79 -34490.5 9513.62 29673 -35735.7 -7.41346 
276 1 10.7431 8.49177 7.5 6.0492 1269.89 10774 -20020.8 -4093.87 27216.9 -41085.4 -7.41419 
277 1 12.1631 8.47631 7.5 6.0492 12937.3 734.706 -28333.7 10644.7 24250.4 -29326.9 -7.41378 
278 1 12.8596 7.23889 7.5 6.0492 2778.31 8495.25 -14475.9 -5573 21649.5 -42625.5 -7.41447 
279 1 14.2795 7.22342 7.5 6.0492 12833.1 937.279 -26256.4 11182.8 15174.6 -27786.5 -7.41388 
280 1 15.0029 8.44537 7.5 6.0492 1684.12 8411.05 -3732.16 -6506.6 17522.9 -35271.8 -7.41501 
281 1 16.4228 8.4299 7.5 6.0492 13401.4 1345.2 -23465.5 11388.3 9489.01 -17318.4 -7.41402 
282 1 17.1194 7.19249 7.5 6.0492 2946.58 6927.62 644.938 -7950.41 14823.2 -30941.6 -7.41523 
283 1 18.5393 7.17702 7.5 6.0492 13147.2 2307.19 -21673.6 11338.8 2727.21 -12614.9 -7.4141 
381 1 10.0466 9.72919 7.5 6.0492 12829.5 708.633 -28874.6 9664.92 33165 -27760.9 -7.41375 
384 1 12.8864 9.69825 7.5 6.0492 295.417 10352.1 -8945.69 -5042.59 21291.1 -36350.8 -7.41475 
385 1 14.3063 9.68279 7.5 6.0492 13455.7 663 -24390.2 11140 17172.1 -20283.7 -7.41398 
388 1 17.1462 9.65185 7.5 6.0492 825.197 8661.17 5579.85 -7516.35 13439.7 -27286.7 -7.41548 
389 1 18.5661 9.63638 7.5 6.0492 14158.1 2530.14 -23014.6 11039.4 3905.58 -7713.16 -7.41403 
10 1 19.1823 1.02087 7.5 6.04918 8376.86 3420.61 -8019.81 -10292 9624.24 -24774.9 -7.41479 
11 1 20.6022 1.0054 7.5 6.04918 9438.11 3794.99 -10322.5 10949 -8863.8 -12910 -7.41467 
12 1 23.442 0.974466 7.5 6.04918 8277.05 5126.98 -2770.08 -10730.3 12472.5 -7583.46 -7.41504 
13 1 24.8619 0.958998 7.5 6.04918 9481.69 6007.47 -7476.68 10649.8 -12638.8 -626.928 -7.41479 
14 1 27.7018 0.928063 7.5 6.04918 8563.95 6675.87 -1405.61 -10202.7 16297.4 -1374.08 -7.41508 
72 1 19.209 3.48023 7.5 6.0492 6266.17 4628.97 -2266.52 -9716.58 12281.1 -25145.7 -7.41508 
73 1 20.629 3.46477 7.5 6.0492 11199.3 3529.95 -15298.9 11122.8 -5495.32 -10309.7 -7.41442 
74 1 21.3255 2.22735 7.5 6.04918 7263.45 4657.58 -1582.63 -10451 12007.9 -15838.8 -7.41511 
75 1 22.7454 2.21188 7.5 6.04918 10378 4844.3 -11351.2 10878 -9520.71 -4365.04 -7.4146 
76 1 23.4688 3.43383 7.5 6.0492 6174.83 5840.79 4047.12 -10597.5 14310 -9221.5 -7.41539 
77 1 24.8887 3.41836 7.5 6.0492 11438.1 6065.3 -13816 10402.8 -10013 904.567 -7.41446 
78 1 25.5853 2.18095 7.5 6.04918 7320.78 6274.03 1812.99 -10598.7 15474.8 -3850.51 -7.41526 
79 1 27.0052 2.16548 7.5 6.04918 10719.3 6980.89 -10607.8 10017.8 -12614.1 1538.09 -7.41461 
80 1 27.7285 3.38743 7.5 6.0492 6378.18 6903.24 6420.98 -10381.3 19074 -3823.36 -7.41548 
178 1 19.2358 5.9396 7.5 6.0492 4066.83 6013.62 3586.28 -9206.06 13489.3 -24233.2 -7.41538 
179 1 20.6558 5.92413 7.5 6.0492 12700.7 3517.17 -19340.6 11101.5 -2736.71 -7196.04 -7.41421 
180 1 21.3523 4.68672 7.5 6.0492 5125.24 5689.7 4734.11 -10122.5 13449.2 -16484.1 -7.41543 
181 1 22.7722 4.67125 7.5 6.0492 12118.9 4831.91 -16696.3 10769.8 -6885.25 -2296.58 -7.41433 
182 1 23.4956 5.8932 7.5 6.0492 4074.47 6688.61 10761.1 -10440.5 15103.6 -10714.7 -7.41573 
183 1 24.9155 5.87773 7.5 6.0492 13161.2 6274.96 -19286.9 10057.8 -7529.32 1948.85 -7.41417 
184 1 25.6121 4.64031 7.5 6.0492 5175.55 6759.91 9172.78 -10632.2 17156.2 -6127.93 -7.41564 
185 1 27.032 4.62485 7.5 6.0492 12624.2 7166.81 -16912.6 9632.99 -9641.6 2198.82 -7.41428 
186 1 27.7553 5.84679 7.5 6.0492 4231.92 7179.72 14291.3 -10475.1 20883.8 -6982.84 -7.4159 
284 1 19.2626 8.39897 7.5 6.0492 1963.23 7534.72 8983.81 -8790.81 12883 -22542.9 -7.41565 
285 1 20.6825 8.3835 7.5 6.0492 13965.5 3778.01 -22362.7 10818.2 -1020.67 -3906.36 -7.41405 
286 1 21.3791 7.14608 7.5 6.0492 3036.64 6901.13 10753.2 -9805.07 13518.3 -16601.6 -7.41574 
287 1 22.799 7.13061 7.5 6.0492 13626 5077.9 -21091.6 10465.8 -4783.08 -353.886 -7.4141 
288 1 23.5224 8.35256 7.5 6.0492 2115.7 7645.68 16918.5 -10250.7 14657 -12322.5 -7.41605 
289 1 24.9423 8.3371 7.5 6.0492 14617.1 6654.96 -23708.2 9595.68 -5464.84 2388.71 -7.41394 
290 1 25.6389 7.09968 7.5 6.0492 3132.18 7367.19 16251.7 -10575.5 17759.7 -8809.45 -7.41601 
291 1 27.0588 7.08421 7.5 6.0492 14263.5 7483.22 -22176.9 9180.51 -6854.4 1999.37 -7.41401 
292 1 27.7821 8.30616 7.5 6.0492 2250.24 7509.44 21802.5 -10439.3 21545.2 -10882 -7.41629 
392 1 21.4059 9.60545 7.5 6.0492 1143.88 8181.79 15985.3 -9528.36 12112.7 -16631 -7.41601 
393 1 22.8258 9.58998 7.5 6.0492 14882.1 5510.68 -24441.5 9985.62 -3410.1 1214.46 -7.41392 
396 1 25.6656 9.55905 7.5 6.0492 1298.57 8009.21 22642.4 -10430.7 17220.9 -12044.6 -7.41634 
397 1 27.0856 9.54358 7.5 6.0492 15579.2 7866.07 -26254.8 8712.19 -4425.31 943.68 -7.41379 
15 1 29.1217 0.912595 7.5 6.04918 9953.36 7336.34 -6841.96 9638.27 -15234.1 -772.007 -7.41479 
16 1 31.9615 0.88166 7.5 6.04918 9225.46 6539.96 -8.28864 -8904.75 20337.8 -7582.7 -7.41513 
17 1 33.3814 0.866192 7.5 6.04918 10754 6547.41 -4592.92 8207.5 -16973.9 -11274.2 -7.41488 
18 1 36.2212 0.835256 7.5 6.04918 10132.2 4310.25 4556.41 -7173.72 23837.3 -20803.5 -7.41536 
81 1 29.1485 3.37196 7.5 6.0492 12031.4 7590.7 -13820.3 9194.45 -11620.1 -32.512 -7.41442 
82 1 29.845 2.13454 7.5 6.04918 7747.54 6911.31 3128.36 -9754.76 20277.3 -4321.51 -7.4153 
83 1 31.2649 2.11908 7.5 6.04918 11419.6 7412.06 -9790.51 8717.24 -13948.8 -4698.04 -7.41462 
84 1 31.9883 3.34103 7.5 6.0492 6914.7 6420.18 8612.95 -9177.7 24969.6 -10157.7 -7.41558 
85 1 33.4082 3.32556 7.5 6.0492 12852.2 6878.18 -11676.6 7830.58 -11494.9 -10856.8 -7.41451 
86 1 34.1048 2.08814 7.5 6.04918 8499.51 5583.26 6118.5 -8185.88 25122.3 -14885.9 -7.41544 
87 1 35.5247 2.07267 7.5 6.04918 12308.7 5529.17 -5722.16 7260.98 -14458.1 -17888.1 -7.41482 
88 1 36.248 3.29462 7.5 6.0492 7717.06 4046.99 13685 -7350.43 30275.9 -22881.3 -7.41584 
187 1 29.1753 5.83133 7.5 6.0492 13834.9 7858.47 -19760.7 8759.22 -8015.69 -374.935 -7.41412 
188 1 29.8718 4.59391 7.5 6.0492 5494.39 6919.43 11540.9 -9981.12 23452.2 -7398.32 -7.41574 
189 1 31.2917 4.57844 7.5 6.0492 13366.1 7664.4 -16314.3 8319.15 -9427.36 -4780.58 -7.41428 
190 1 32.0151 5.80039 7.5 6.0492 4626.74 6269.78 17649.7 -9355.26 28454.1 -13764.1 -7.41606 
191 1 33.435 5.78492 7.5 6.0492 14582.3 7110.42 -17485.1 7560.16 -6168.21 -11575.7 -7.41421 
192 1 34.1316 4.54751 7.5 6.0492 6100.55 5309.08 15391.2 -8412.64 30124.9 -17785.6 -7.41594 
193 1 35.5515 4.53204 7.5 6.0492 14162 5772.42 -12077.9 7078.68 -8105.45 -17983.7 -7.41449 
194 1 36.2748 5.75399 7.5 6.0492 5263.7 3715.69 23659.6 -7467.29 35253.3 -25793.8 -7.41637 
293 1 29.202 8.29069 7.5 6.0492 15298.8 8164.24 -24486.7 8348.11 -4696.85 -1721.34 -7.41387 
294 1 29.8986 7.05328 7.5 6.0492 3354.63 6975.97 19969.3 -10062.2 25462.8 -11392.9 -7.41619 
295 1 31.3185 7.03781 7.5 6.0492 14967.1 7917.79 -21596.6 7972.27 -5135.67 -5972.76 -7.41401 
296 1 32.0419 8.25976 7.5 6.0492 2501.25 6126.86 26718.3 -9363.31 30508.8 -18276.4 -7.41654 
297 1 33.4618 8.24429 7.5 6.0492 15876 7277.99 -21935.8 7423.96 -1381.77 -13226 -7.41398 
298 1 34.1584 7.00687 7.5 6.0492 3787.92 5036.97 25112.3 -8495.43 33626.7 -21599 -7.41645 
299 1 35.5783 6.99141 7.5 6.0492 15562.2 5940.65 -17047.7 7038.11 -2298.3 -18965.1 -7.41423 
300 1 36.3016 8.21335 7.5 6.0492 2947.56 3381.8 34110.8 -7432.76 38327 -29355.7 -7.41693 
400 1 29.9254 9.51264 7.5 6.0492 1432.23 7031.29 28030.7 -9975.95 26180.4 -16224.6 -7.41662 
401 1 31.3453 9.49717 7.5 6.0492 16153.8 8119.94 -25546.6 7740.59 -1324.27 -8081.25 -7.4138 
404 1 34.1851 9.46624 7.5 6.0492 1689.76 4750.83 34894.6 -8395.61 35377.6 -26121.2 -7.41698 
405 1 35.6051 9.45077 7.5 6.0492 16461 5995.57 -20675.5 7194.59 2583.23 -20542.6 -7.41405 
19 1 37.6412 0.819789 7.5 6.04918 11687.1 3688.8 1592.7 6631.78 -18339.6 -24927.4 -7.4152 
20 1 40.481 0.788853 7.5 6.04918 11083.8 732.541 13121.8 -5347.39 26327.4 -32832 -7.41581 
21 1 41.9009 0.773386 7.5 6.04918 12537.9 -179.515 11554.3 5086.54 -19689.9 -33926.3 -7.41573 
22 1 44.7407 0.74245 7.5 6.04918 11895.6 -2961.89 24126.9 -3646.56 27724.8 -37079.8 -7.4164 
23 1 46.1607 0.726982 7.5 6.04918 13164.9 -3790.87 23042.6 3626.07 -21115.7 -33491.1 -7.41635 
89 1 37.668 3.27915 7.5 6.0492 13687.4 4020.47 -5364.07 6501.47 -11080.6 -24420.7 -7.41484 
90 1 38.3645 2.04174 7.5 6.04918 9429.97 2515.17 12880.1 -6285.48 28932.1 -28212.5 -7.4158 
91 1 39.7844 2.02627 7.5 6.04918 13164 1992.66 2574.97 5819.05 -15025.7 -30010.7 -7.41526 
92 1 40.5078 3.24822 7.5 6.0492 8634.03 504.784 22499.2 -5339.86 33864.4 -34062.9 -7.4163 
93 1 41.9277 3.23275 7.5 6.0492 14337 134.252 4691.72 5228.93 -11383.3 -33147.2 -7.41538 
94 1 42.6243 1.99533 7.5 6.04918 10348.9 -1229.69 23023.4 -4405.39 31216.5 -36566.1 -7.41633 
95 1 44.0442 1.97987 7.5 6.04918 13811.7 -1901.08 13682.6 4426.96 -16091 -34551.1 -7.41585 
96 1 44.7675 3.20182 7.5 6.0492 9492.9 -3058.98 33582.2 -3484.28 35508.9 -37446 -7.41689 
97 1 46.1875 3.18635 7.5 6.0492 14712.9 -3475.48 16120.4 3922.84 -12617.4 -32518.3 -7.416 
98 1 46.884 1.94893 7.5 6.04918 11098.2 -4520.68 34171.9 -2743.61 32105.2 -35362.9 -7.41693 
195 1 37.6947 5.73852 7.5 6.0492 15200.4 4213.71 -10901.7 6551.23 -4278.27 -24686 -7.41455 
196 1 38.3913 4.5011 7.5 6.0492 6913.64 2188.13 22719.1 -6383.76 35298.3 -30210.8 -7.41632 
197 1 39.8112 4.48564 7.5 6.0492 14800 2220.82 -3593.51 5946.19 -7353.13 -29657 -7.41494 
198 1 40.5346 5.70759 7.5 6.0492 6057.17 226.326 33076.6 -5330.79 39618.4 -35642.5 -7.41687 
199 1 41.9545 5.69212 7.5 6.0492 15530.1 350.27 -781.981 5588.05 -3876.07 -32637.9 -7.4151 
200 1 42.6511 4.4547 7.5 6.0492 7787.37 -1441.82 33149 -4350.1 38120.3 -37407 -7.41687 
201 1 44.071 4.43923 7.5 6.0492 15153.9 -1647.9 7501.3 4792.17 -7953.99 -33702.3 -7.41554 
202 1 44.7943 5.66118 7.5 6.0492 6863.36 -3147.69 44452.6 -3372.87 41270.6 -37689.2 -7.41747 
203 1 46.2142 5.64571 7.5 6.0492 15555.1 -3161.3 10409.1 4426.63 -5201.67 -31461.9 -7.41571 
204 1 46.9108 4.4083 7.5 6.0492 8562.04 -4553.06 44387.6 -2601.4 38858.1 -35239.6 -7.41747 
301 1 37.7215 8.19789 7.5 6.0492 16179.2 4309.84 -15093.7 6800.12 1514.74 -25470 -7.41434 
302 1 38.4181 6.96047 7.5 6.0492 4427.21 1862.89 33427.8 -6382.11 39739 -32737.3 -7.41689 
303 1 39.838 6.945 7.5 6.0492 15873.8 2379.08 -8401.51 6265.24 -657.607 -29709.4 -7.41469 
304 1 40.5614 8.16695 7.5 6.0492 3571.64 -26.1338 44513.4 -5223.78 42980.2 -37405.8 -7.41748 
305 1 41.9813 8.15148 7.5 6.0492 16109.6 521.177 -5124.08 6162.85 2113.95 -32160.4 -7.41488 
306 1 42.6778 6.91407 7.5 6.0492 5179.28 -1609.14 44457.6 -4254.36 42721.3 -38282.7 -7.41747 
307 1 44.0978 6.8986 7.5 6.0492 15840.9 -1386.17 2475.45 5352.74 -1203.31 -32818.3 -7.41529 
308 1 44.8211 8.12055 7.5 6.0492 4265.91 -3155.03 56445.4 -3221.89 44259.8 -37711.5 -7.41811 
309 1 46.241 8.10508 7.5 6.0492 15729.4 -2783.37 5476.57 5116.46 279.337 -30138.9 -7.41546 
310 1 46.9376 6.86766 7.5 6.0492 5897.87 -4475.63 55965.9 -2464.81 43058.2 -34817.3 -7.41808 
408 1 38.4449 9.41984 7.5 6.0492 2139.48 1541.83 44614.4 -6234.11 41871.7 -35569.3 -7.41749 
409 1 39.8648 9.40437 7.5 6.0492 16381.9 2442.58 -12070.7 6810.49 4547.69 -29867.9 -7.41451 
412 1 42.7046 9.37343 7.5 6.0492 2739.38 -1726.17 56570.3 -4070.37 44524.7 -39027.7 -7.41812 
413 1 44.1246 9.35797 7.5 6.0492 15925.9 -1126.97 -1799 6120.8 3541.32 -31647.6 -7.41507 
416 1 46.9644 9.32703 7.5 6.0492 3363.52 -4291 68557.8 -2292.16 44128 -34020.4 -7.41875 
24 1 49.0005 0.696047 7.5 6.04918 12462.6 -5801.19 34608.9 -2137.73 28230.3 -31025.9 -7.41696 
25 1 50.4204 0.680579 7.5 6.04918 13536.8 -6328.79 32920.2 2226.34 -22471.2 -23114.9 -7.41688 
26 1 53.2602 0.649644 7.5 6.04918 12765.6 -7378.25 41539.4 -779.167 28129.8 -16257.2 -7.41734 
27 1 54.6802 0.634176 7.5 6.04918 13694.7 -7547.14 38426.2 847.556 -23522 -5809.24 -7.41718 
99 1 48.3039 1.93346 7.5 6.04918 14197.5 -5043.63 24712.7 3035.89 -17555.7 -28944.2 -7.41645 
100 1 49.0273 3.15541 7.5 6.0492 10155.8 -5760.8 44056.8 -1931.36 35725.9 -30755.5 -7.41745 
101 1 50.4472 3.13995 7.5 6.0492 14861.7 -5990.36 25824.6 2486.87 -14301.9 -22196.1 -7.41652 
102 1 51.1438 1.90253 7.5 6.04918 11592.1 -6698.48 43197.4 -1329.93 32092.2 -24314.7 -7.41741 
103 1 52.5637 1.88706 7.5 6.04918 14373.9 -6924.63 32611.3 1595.05 -18977.1 -14652.9 -7.41688 
104 1 53.287 3.10901 7.5 6.0492 10546.5 -7249.91 50941.9 -652.366 35309.1 -15658.6 -7.41782 
105 1 54.7069 3.09354 7.5 6.0492 14902.2 -7190.11 31169.4 909.419 -15680.5 -5203.69 -7.41682 
106 1 55.4035 1.85613 7.5 6.04918 11809.6 -7602.31 47476.4 -83.0693 31680.3 -6584.6 -7.41764 
205 1 48.3307 4.39283 7.5 6.0492 15245.6 -4724.45 18314.5 3449.06 -9644.72 -27902.7 -7.41613 
206 1 49.0541 5.61478 7.5 6.0492 7531.28 -5639.39 55008.2 -1800.52 41081.2 -30134.7 -7.41803 
207 1 50.474 5.59931 7.5 6.0492 15411.5 -5549.79 19722 2899.33 -7381.81 -21145.2 -7.41622 
208 1 51.1706 4.36189 7.5 6.0492 9113.34 -6577.97 53397.2 -1209.24 38465 -23666.7 -7.41794 
209 1 52.5905 4.34643 7.5 6.0492 15214.8 -6538.12 25947.6 1846.64 -11495.7 -13846.5 -7.41655 
210 1 53.3138 5.56838 7.5 6.0492 7949.4 -6987.33 61866 -591.206 40347.6 -14784.2 -7.41839 
211 1 54.7337 5.55291 7.5 6.0492 15304.4 -6669.53 24773.9 1037.86 -9122.03 -4684.36 -7.4165 
212 1 55.4303 4.31549 7.5 6.0492 9373.15 -7410.45 57616.4 -71.4347 37912.2 -5827.86 -7.41817 
311 1 48.3575 6.8522 7.5 6.0492 15571.8 -4282.89 12778.3 4014.88 -3416.06 -26647.4 -7.41585 
312 1 49.0809 8.07415 7.5 6.0492 4881.5 -5376.96 67226.1 -1667.66 43445 -29145.5 -7.41868 
313 1 50.5008 8.05868 7.5 6.0492 15264.7 -4931.06 14047.7 3429.8 -2657.1 -19851.5 -7.41594 
314 1 51.1973 6.82126 7.5 6.0492 6440.99 -6289.15 65035.3 -1110.6 42182.2 -22683.4 -7.41856 
315 1 52.6173 6.80579 7.5 6.0492 15298.1 -5937.18 19905.9 2171.56 -5840.22 -12962.6 -7.41624 
316 1 53.3406 8.02774 7.5 6.0492 5284.81 -6542.76 74117.3 -538.753 42333.5 -13687.1 -7.41904 
317 1 54.7605 8.01227 7.5 6.0492 14998.8 -5904.33 18609.6 1191.1 -4848.99 -4216.17 -7.41619 
318 1 55.4571 6.77486 7.5 6.0492 6707.56 -7019.88 69216.1 -71.3622 41514.8 -4952.68 -7.41878 
417 1 48.3843 9.31156 7.5 6.0492 15283.6 -3722.16 7547.44 4731.49 437.818 -25003.3 -7.41559 
420 1 51.2241 9.28063 7.5 6.0492 3862.57 -5845.51 77797 -1005.46 42611.1 -21378.5 -7.41924 
421 1 52.644 9.26516 7.5 6.0492 14767.6 -5118.45 13832.5 2565.5 -2750.19 -11909.8 -7.41594 
424 1 55.4839 9.23422 7.5 6.0492 4113.83 -6452.23 81981.8 -73.6166 41822.2 -4046.26 -7.41946 
28 1 57.52 0.603241 7.5 6.04918 12829.7 -7664.33 42899 509.315 27630.1 2903.86 -7.41741 
29 1 58.9399 0.587773 7.5 6.04918 13680.3 -7471.22 38051.3 -533.275 -24089.3 13432.8 -7.41716 
30 1 61.7797 0.556838 7.5 6.04918 12668.1 -6674.65 38260.8 1806.67 26808.1 21006.5 -7.41716 
31 1 63.1996 0.54137 7.5 6.04918 13483.1 -6095.41 31936.7 -1935.49 -24100.8 29110.7 -7.41683 
107 1 56.8234 1.84066 7.5 6.04918 14422.8 -7489.62 35215.5 107.273 -19891.1 4139.93 -7.41702 
108 1 57.5468 3.06261 7.5 6.0492 10640.9 -7518.58 52234.4 489.026 34839.1 3604.44 -7.41789 
109 1 58.9667 3.04714 7.5 6.0492 14921.3 -7118.37 30744.2 -721.086 -16198 13591.1 -7.41679 
110 1 59.6633 1.80972 7.5 6.04918 11757.2 -7261.26 45743.9 1121 31119.9 12799.2 -7.41755 
111 1 61.0832 1.79425 7.5 6.04918 14372.1 -6771.61 31841 -1382.62 -20066.4 22067.6 -7.41684 
112 1 61.8065 3.0162 7.5 6.0492 10435 -6578.91 47517.7 1662.13 34408.6 21757.8 -7.41764 
113 1 63.2264 3.00074 7.5 6.0492 14896.1 -5759.85 24684.5 -2289.29 -15777.2 28861.2 -7.41646 
114 1 63.923 1.76332 7.5 6.04918 11431.9 -5648.56 38444.6 2406.13 30348.5 28420.7 -7.41716 
115 1 65.3429 1.74785 7.5 6.04918 14163.9 -4727.91 23447 -2846.67 -19566.3 33942.1 -7.41638 
213 1 56.8502 4.30002 7.5 6.0492 15213.1 -7082.37 28415.1 73.2509 -12555.6 4410.69 -7.41668 
214 1 57.5736 5.52197 7.5 6.0492 8055.71 -7226.85 63092.1 432.762 39995.9 4327.73 -7.41846 
215 1 58.9935 5.50651 7.5 6.0492 15364.7 -6611.86 24327.9 -935.647 -9504.16 13375 -7.41647 
216 1 59.69 4.26909 7.5 6.0492 9315.67 -7093.38 55810.5 1004.41 37645 13483.4 -7.41807 
217 1 61.11 4.25362 7.5 6.0492 15285.3 -6399.66 25098.9 -1681.89 -12398 21783 -7.4165 
218 1 61.8333 5.47557 7.5 6.0492 7833.77 -6373.42 58294.4 1508.49 40103.8 22325.9 -7.4182 
219 1 63.2532 5.4601 7.5 6.0492 15557 -5345.41 18498.5 -2743.49 -8474.2 28121.7 -7.41615 
220 1 63.9498 4.22269 7.5 6.0492 8943.74 -5589.32 48431.2 2221.16 37404.7 29150.5 -7.41768 
221 1 65.3697 4.20722 7.5 6.0492 15332.9 -4415.45 16871.2 -3255.73 -11301.2 33344.5 -7.41605 
319 1 56.877 6.75939 7.5 6.0492 15237.8 -6431.39 22168.1 14.3305 -7038.14 4440.14 -7.41637 
320 1 57.6004 7.98134 7.5 6.0492 5388.41 -6745.17 75290.8 373.935 42168.5 4964.56 -7.4191 
321 1 59.0203 7.96587 7.5 6.0492 15102.8 -5871.78 18186.2 -1223.65 -5030.62 12746.7 -7.41617 
322 1 59.7168 6.72845 7.5 6.0492 6648.89 -6738.63 67334.6 894.354 41665.6 14004.9 -7.41868 
323 1 61.1368 6.71299 7.5 6.0492 15452 -5832.52 19047.8 -2097.81 -6409.73 20995.2 -7.4162 
324 1 61.8601 7.93494 7.5 6.0492 5170.15 -6006.86 70387.7 1355.48 42987.5 22555.7 -7.41884 
325 1 63.28 7.91947 7.5 6.0492 15531.4 -4783.18 12852.7 -3354.35 -3193.68 26786.6 -7.41587 
326 1 63.9766 6.68205 7.5 6.0492 6273.82 -5392.82 59839.5 2047.7 42156.8 29598 -7.41828 
327 1 65.3965 6.66658 7.5 6.0492 15804.3 -4010.99 11263.1 -3844.95 -4475.31 32253 -7.41577 
425 1 56.9038 9.21876 7.5 6.0492 14649.9 -5533.09 15795.9 -68.6548 -4109.02 4238.03 -7.41605 
428 1 59.7436 9.18782 7.5 6.0492 4055.02 -6216.68 80019.4 780.091 42505.7 14216.9 -7.41936 
429 1 61.1635 9.17235 7.5 6.0492 15005.3 -5071.99 13059.6 -2627.22 -2886.3 19634.4 -7.4159 
432 1 64.0034 9.14142 7.5 6.0492 3699.74 -5070.33 72347.3 1855.12 43952.1 29562.2 -7.41895 
433 1 65.4233 9.12595 7.5 6.0492 15666.9 -3524.37 6112.04 -4617.92 141.177 30521.1 -7.41551 
32 1 66.0395 0.510434 7.5 6.04918 12260 -4373.6 28897.2 3182.56 25655.8 32884.2 -7.41666 
33 1 67.4594 0.494967 7.5 6.04918 13048 -3417.51 21845.7 -3402.56 -23545.6 36610 -7.41628 
34 1 70.2992 0.464031 7.5 6.04918 11592 -932.568 17435.1 4692.45 24148.6 35099.9 -7.41604 
35 1 71.7191 0.448564 7.5 6.04918 12346.7 230.087 10691.5 -4987.14 -22402.7 33786.5 -7.41569 
36 1 74.559 0.417628 7.5 6.04918 10714 2949.47 7027.64 6340 22276 27506 -7.41549 
116 1 66.0663 2.9698 7.5 6.0492 9935.98 -4381.22 38076.7 3018.6 33655 33803 -7.41713 
117 1 67.4862 2.95433 7.5 6.0492 14710.6 -3082.99 14657.5 -3745.44 -14781.8 36108.2 -7.41592 
118 1 68.1828 1.71692 7.5 6.04918 10833.7 -2777.58 27612.2 3868.35 29108 35831.6 -7.41658 
119 1 69.6027 1.70145 7.5 6.04918 13709.1 -1470.24 12420.4 -4313.64 -18625.3 36196.4 -7.41578 
120 1 70.326 2.9234 7.5 6.0492 9185.48 -1062.85 26533.8 4640.2 32034.7 36375.8 -7.41652 
121 1 71.7459 2.90793 7.5 6.0492 14253.4 592.05 3479.38 -5138.78 -13730.8 33181.7 -7.41531 
122 1 72.4425 1.67051 7.5 6.04918 10005.3 961.836 16266.7 5538.84 27139.9 33063.5 -7.41597 
123 1 73.8624 1.65505 7.5 6.04918 12981.2 2377.92 1897.98 -5842.49 -17451.7 28504.1 -7.41522 
124 1 74.5858 2.87699 7.5 6.0492 8282.83 2736.81 15990.8 6481.97 29178 29266.5 -7.41596 
222 1 66.0931 5.42917 7.5 6.0492 7313.72 -4348.25 48737 2847.32 39934.8 34578.2 -7.4177 
223 1 67.513 5.4137 7.5 6.0492 15703.1 -2776.2 8758.55 -4222.76 -6801.73 35323.5 -7.41562 
224 1 68.2095 4.17628 7.5 6.0492 8296.7 -2876.48 37492.2 3725.92 36452.8 36923.5 -7.4171 
225 1 69.6295 4.16081 7.5 6.0492 15188.2 -1193.16 5950.14 -4618.64 -10010.5 35617.9 -7.41545 
226 1 70.3528 5.38276 7.5 6.0492 6574.51 -1224.64 36977.7 4550.03 38416.1 37848.6 -7.41707 
227 1 71.7727 5.3673 7.5 6.0492 15599.3 840.571 -2302.88 -5412.61 -5576.28 32787.7 -7.41502 
228 1 72.4693 4.12988 7.5 6.0492 7463.46 720.766 25957 5539.2 34046.5 34820 -7.41649 
229 1 73.8892 4.11441 7.5 6.0492 14735.5 2661.04 -4639.86 -5876.58 -9247.61 28138.4 -7.41488 
230 1 74.6126 5.33636 7.5 6.0492 5746.15 2453.92 26025.5 6533.4 34805.2 31729.8 -7.41649 
328 1 66.1199 7.88853 7.5 6.0492 4674.71 -4210.78 60625.9 2658.37 43668.3 35013.2 -7.41833 
329 1 67.5398 7.87306 7.5 6.0492 16048.2 -2440.24 3771.25 -4907.86 -533.9 34093 -7.41537 
330 1 68.2363 6.63565 7.5 6.0492 5648.66 -2906.67 48681.2 3571.26 41757.7 37911.9 -7.41769 
331 1 69.6562 6.62018 7.5 6.0492 16046.8 -933.717 728.951 -5124.88 -2518.68 34893.8 -7.41519 
332 1 70.3796 7.84213 7.5 6.0492 4005.3 -1344.59 48457.2 4398.65 42600.6 39286.9 -7.41769 
333 1 71.7995 7.82666 7.5 6.0492 16362.6 1021.82 -6853.59 -5903.17 1263.63 32406.8 -7.41479 
334 1 72.4961 6.58924 7.5 6.0492 4890.86 491.417 36720.5 5478.86 39226.6 36913.4 -7.41706 
335 1 73.916 6.57378 7.5 6.0492 15970.2 2864.19 -9777.82 -6088.02 -1809.37 28182.9 -7.41462 
336 1 74.6393 7.79573 7.5 6.0492 3308.09 2170.34 36774.6 6469.27 38639.5 34651.2 -7.41707 
436 1 68.2631 9.09501 7.5 6.0492 3132.11 -2868.25 60821.6 3360.12 44438.4 38544.3 -7.41835 
437 1 69.683 9.07955 7.5 6.0492 16317.7 -710.841 -3590.02 -5853.79 3140.71 33813.2 -7.41497 
440 1 72.5229 9.04861 7.5 6.0492 2487.69 276.678 48170.3 5308.88 42212 39054.3 -7.41768 
441 1 73.9428 9.03314 7.5 6.0492 16666 2957.28 -13680 -6520.89 4266.99 28398 -7.41442 
37 1 75.9789 0.40216 7.5 6.04918 11441.9 3934.11 1563.95 -6687.11 -20623.4 22451.1 -7.4152 
38 1 78.8187 0.371225 7.5 6.04918 9768.32 6074.16 113.322 8025.19 20031.7 14210.7 -7.41513 
39 1 80.2386 0.355757 7.5 6.04918 10500.4 6425.4 -3592.95 -8374.81 -18188.2 8657.92 -7.41494 
40 1 83.0785 0.324822 7.5 6.04918 8962.76 7314.08 -2831.4 9520.98 17404.2 2719.25 -7.41499 
41 1 84.4984 0.309354 7.5 6.04918 9739.4 6797.24 -5112.32 -9789.07 -15186.5 664.237 -7.41488 
125 1 76.0057 2.86153 7.5 6.0492 13515.9 4324.15 -5757.33 -6559.93 -12946.6 21773 -7.41482 
126 1 76.7022 1.62411 7.5 6.04918 9064.07 4613.73 7337.76 7330.85 24356.7 22026.9 -7.4155 
127 1 78.1222 1.60864 7.5 6.04918 12073.5 5632.56 -5391.99 -7436.77 -16083 14850.9 -7.41484 
128 1 78.8455 2.83059 7.5 6.0492 7392.86 5896.22 8787.05 8332.89 25162.8 16409.5 -7.41558 
129 1 80.2654 2.81512 7.5 6.0492 12632.2 6781.04 -10965.3 -8033.62 -12323.3 7776.07 -7.41455 
130 1 80.962 1.57771 7.5 6.04918 8196.49 6950.88 2350.58 9014.35 20928.7 8728.21 -7.41525 
131 1 82.3819 1.56224 7.5 6.04918 11185.1 7064.63 -8453.91 -8973.72 -14360.3 2778.23 -7.41469 
132 1 83.1053 2.78419 7.5 6.0492 6703.74 7340.71 5291.88 9839.66 20595.9 5104.94 -7.41542 
133 1 84.5252 2.76872 7.5 6.0492 11825.9 6997.81 -12241.5 -9439.23 -11317.1 -654.154 -7.41451 
231 1 76.0325 5.32089 7.5 6.0492 15151.9 4578.42 -11680.7 -6502.94 -5526.09 21859.1 -7.41451 
232 1 76.729 4.08348 7.5 6.0492 6588.65 4334.82 16668 7499.73 29928.1 24514.7 -7.416 
233 1 78.149 4.06801 7.5 6.0492 14004 5930.45 -12116.8 -7170.06 -9234.12 14592.2 -7.41449 
234 1 78.8723 5.28996 7.5 6.0492 4992.44 5663.69 18141.4 8499.47 29231 19705.2 -7.41608 
235 1 80.2922 5.27449 7.5 6.0492 14440.8 7060.62 -17139.1 -7683.07 -6504.4 7947.82 -7.41423 
236 1 80.9888 4.03707 7.5 6.0492 5847.85 6813.13 11070 9263.22 24608.6 11658.4 -7.41571 
237 1 82.4087 4.0216 7.5 6.0492 13168.6 7321.07 -15250.5 -8540.57 -9464.42 2218.73 -7.41434 
238 1 83.1321 5.24355 7.5 6.0492 4460.43 7385.72 13691.3 9993.91 22860.7 8577.5 -7.41586 
239 1 84.552 5.22809 7.5 6.0492 13667.9 7246.69 -18426.2 -8990.27 -7393.79 -1161.23 -7.41419 
337 1 76.0593 7.78026 7.5 6.0492 16294.6 4735.6 -16227.2 -6626.39 1017.42 22519 -7.41428 
338 1 76.7558 6.54284 7.5 6.0492 4154.89 4048.44 26705.4 7554.83 34097.6 27831.8 -7.41653 
339 1 78.1757 6.52737 7.5 6.0492 15528.3 6165.54 -17485.1 -7015.97 -2808.13 15223.5 -7.41421 
340 1 78.8991 7.74932 7.5 6.0492 2730.84 5430.55 27790.1 8512 31891.5 23882.8 -7.4166 
341 1 80.319 7.73386 7.5 6.0492 15855.5 7298.23 -21992.9 -7435.47 -1171.64 9050.09 -7.41398 
342 1 81.0156 6.49644 7.5 6.0492 3586.44 6703.97 20064.9 9369.16 27148.4 15666.9 -7.41619 
343 1 82.4355 6.48097 7.5 6.0492 14846.6 7610.64 -20881.7 -8126.68 -4744.89 2641.85 -7.41405 
344 1 83.1588 7.70292 7.5 6.0492 2368.03 7476.81 21961.9 9997.24 23963.2 13012.1 -7.4163 
345 1 84.5788 7.68745 7.5 6.0492 15201.9 7574.39 -23464.9 -8533.43 -3737.19 -844.031 -7.41393 
444 1 76.7826 9.00221 7.5 6.0492 1918.07 3749.34 37050.8 7451.77 36542.7 31691.2 -7.41709 
445 1 78.2025 8.98674 7.5 6.0492 16587.9 6296.52 -21492.6 -7036.45 2748.99 16539.4 -7.41401 
448 1 81.0424 8.9558 7.5 6.0492 1531.4 6593.34 28934.6 9302.76 28357.2 20536.7 -7.41666 
449 1 82.4623 8.94034 7.5 6.0492 16146.6 7883.59 -25223.8 -7793.91 -505.664 3961.93 -7.41382 
42 1 87.3382 0.278419 7.5 6.04918 8489.87 6421.29 -3833.3 10521.7 14404.8 649.752 -7.41497 
43 1 88.7581 0.262951 7.5 6.04918 9330.99 5252.15 -5773.43 -10606.5 -11847.8 4705.84 -7.41488 
44 1 91.598 0.232016 7.5 6.04918 8446.24 4420.45 -6637.95 10743.1 11126 11163.9 -7.41485 
45 1 93.0179 0.216548 7.5 6.04918 9329.67 3214.78 -9537.84 -10564.6 -8491.78 20653.5 -7.41471 