ITEM: TIMESTEP
76
ITEM: NUMBER OF ATOMS
10088
ITEM: BOX BOUNDS pp pp pp
0.0000000000000000e+00 8.7338652999999994e+01
0.0000000000000000e+00 1.5127498399999999e+02
0.0000000000000000e+00 1.8399999600000001e+01
ITEM: ATOMS id type x y z c_csym c_2[1] c_2[2] c_2[3] c_2[4] c_2[5] c_2[6] c_3 
1 1 -6.07938e-07 -2.13779e-06 7.3405 6.0482 -3712.52 -3686.76 -264.206 5.40658 -0.151981 -0.204527 -7.41135 
2 1 2.15274 1.18917 7.34159 6.04638 -5776.72 -1568.3 -203.673 -949.426 2205.19 -4087.48 -7.41138 
3 1 3.57239 1.1625 7.34301 6.04347 -4485.02 -2521.14 -339.46 5548.94 1598.44 -5962.63 -7.41142 
4 1 6.41151 1.10968 7.3477 6.04112 -7607.39 733.837 220.142 4270.22 3140.37 -11273.7 -7.4116 
5 1 7.83115 1.08415 7.35081 6.03909 -6331.22 -362.818 -657.927 19448.6 -537.541 -11687.8 -7.41163 
42 1 0.0465216 2.45894 7.34159 6.0451 -5683.17 -1591.56 -285.496 -1436.33 4185.38 -104.164 -7.41138 
43 1 1.46618 2.43207 7.34195 6.04511 -3398.98 -3924.15 -240.715 315.267 4494.45 -2401.08 -7.41139 
44 1 2.199 3.64826 7.3437 6.04315 -10165.2 3143.36 -201.489 -3772 5959.18 -4466.4 -7.41145 
45 1 3.61864 3.62162 7.34507 6.04154 -6695.3 -157.089 -439.847 2745.67 6254.74 -5302 -7.41147 
46 1 4.30523 2.37871 7.34473 6.04439 -10024.3 3154.58 128.876 -363.688 4428.64 -8255.07 -7.4115 
47 1 5.72486 2.35252 7.34705 6.04061 -7539.65 1046.44 -749.427 10679.2 2934.22 -8552.4 -7.41151 
48 1 6.45727 3.56903 7.3496 6.04252 -16403.6 9707.78 927.428 1565.23 6522.29 -12210.6 -7.4117 
49 1 7.87688 3.54351 7.35259 6.0374 -12694.9 6230.76 -1700.75 16569.8 3791.47 -10259.8 -7.41161 
50 1 8.56358 2.30069 7.3532 6.03894 -13763.3 6783.12 1200.64 8807.53 5674.91 -14724.8 -7.41184 
124 1 0.0925752 4.91793 7.34473 6.04199 -7520.8 569.887 -515.919 -5740.61 7583.43 -186.406 -7.41145 
125 1 1.51224 4.89109 7.34507 6.04319 -3111.08 -3861.61 42.4252 -3917.41 9213.41 -2197.47 -7.4115 
126 1 2.24458 6.10754 7.3477 6.04047 -14333 7638.16 -526.14 -9111.5 8818.8 -4728.13 -7.41154 
127 1 3.66421 6.08094 7.34897 6.03896 -8836.36 2293.05 -173.615 -2731.02 10836.1 -4530.4 -7.41161 
128 1 4.351 4.8381 7.3477 6.04142 -16612.8 10007.5 266.278 -4521.34 7608.94 -8809.55 -7.4116 
129 1 5.77062 4.81192 7.3499 6.03791 -11880.3 5642.39 -1088.27 6366.16 7474.34 -7383.68 -7.41157 
130 1 6.50238 6.02879 7.3532 6.0391 -24804 18232.7 1291.75 -3831.46 9044.37 -12875.3 -7.41184 
131 1 7.92196 6.00328 7.35599 6.03361 -18833.7 12772.9 -2370.98 10809.2 8144.04 -8635.52 -7.41167 
132 1 8.60869 4.76041 7.35575 6.03918 -24122.3 17225.5 2339.07 4573.12 8402.9 -15760.7 -7.412 
206 1 0.137745 7.37697 7.34959 6.03865 -9214.61 2713.02 -1188.59 -12197.8 10003.8 -263.429 -7.41155 
207 1 1.55742 7.35018 7.34991 6.04131 -3068.81 -3719.99 788.202 -10381.5 13685.1 -1954.42 -7.41171 
208 1 2.2891 8.56699 7.35317 6.03829 -18068.1 11927.5 -1392.05 -16508.7 10686.4 -4903.56 -7.41164 
209 1 3.70874 8.54045 7.35433 6.03621 -11020.5 4602.95 640.178 -10350.6 15073.6 -3670.37 -7.41183 
210 1 4.39592 7.29778 7.35231 6.03889 -22782.7 16486.3 -42.9358 -10952.7 9846.45 -9176.63 -7.41171 
211 1 5.81553 7.27163 7.35432 6.03421 -16209.1 10032.8 -957.339 -447.458 11837.2 -6069.31 -7.41172 
212 1 6.54648 8.48895 7.35814 6.03585 -32523.4 26310.6 1089.85 -11483.8 10630.6 -13313.8 -7.41197 
213 1 7.96604 8.46345 7.36067 6.02943 -24793.2 18988.7 -2460.88 2589.97 12265.4 -6863.82 -7.41181 
214 1 8.65298 7.22062 7.35973 6.03484 -33789.3 27209 2998.82 -2146.24 10237.7 -16509 -7.41216 
6 1 10.6702 1.03341 7.35813 6.03353 -8654.82 2147.02 868.053 16842.3 5121.96 -16287.9 -7.41197 
7 1 12.0898 1.00975 7.36213 6.03507 -7166.6 1472.18 -1182.4 38377.3 -3720.94 -15323.3 -7.41193 
8 1 14.9289 0.961881 7.37048 6.02527 -8994.25 3170.98 1556.2 34587.6 7899.99 -18957.8 -7.4124 
9 1 16.3485 0.940496 7.37464 6.02768 -7551.48 2637.91 -1808.29 59940.7 -7443.23 -17077 -7.41227 
10 1 19.1876 0.895912 7.38283 6.01699 -8987.13 3534.41 2184.16 55671.5 11113.9 -19713.9 -7.41283 
51 1 9.9832 2.27603 7.35679 6.03728 -10995.8 4740.32 -1789.3 27390.3 -2.13893 -12949.3 -7.41172 
52 1 10.7151 3.49296 7.35972 6.03705 -20765.7 14062.4 2851.11 14048.4 7999.52 -17709.2 -7.41216 
53 1 12.1347 3.46927 7.36357 6.03502 -16453 11075.9 -3670.51 35445.4 172.512 -13446.8 -7.4118 
54 1 12.8218 2.22671 7.36475 6.03112 -15464.5 9215.34 2631.73 24208.2 7846.63 -18734.4 -7.4123 
55 1 14.2414 2.20414 7.36884 6.03343 -12467.9 7437.16 -3188.07 47909.8 -3745.28 -15436.4 -7.41199 
56 1 14.9727 3.42154 7.37177 6.02904 -22837.3 16591.3 5180.07 31741.1 10322.9 -20701.7 -7.4127 
57 1 16.3923 3.40011 7.37577 6.03222 -18246.4 13813.9 -6017.79 56996.7 -3946.9 -15034.9 -7.41201 
58 1 17.0799 2.15793 7.37719 6.02282 -16332 10243.1 4166 43854.3 10695.5 -20487.8 -7.4128 
59 1 18.4995 2.13774 7.38116 6.02556 -13230 8730.85 -4699.41 70085.8 -7740.53 -16374.5 -7.41227 
60 1 19.2304 3.35562 7.38387 6.02072 -23321.4 17026.2 7578.16 52769.9 13199.6 -21560.4 -7.41324 
133 1 10.0283 4.73573 7.35917 6.03438 -18806.9 13044.1 -3346.24 22931 4190.22 -11148.9 -7.41169 
134 1 10.7594 5.95309 7.36272 6.03528 -32244 25612.7 4462.96 8422.67 10043.8 -18817.6 -7.41236 
135 1 12.1789 5.92935 7.36633 6.03069 -25403.9 20617.2 -5767.9 29356 4214.85 -11373.4 -7.41174 
136 1 12.8659 4.68665 7.36684 6.03425 -28337.2 21901.8 5247.19 19804.2 10081.7 -20192.3 -7.41255 
137 1 14.2855 4.66402 7.37073 6.0329 -22440.1 18062.4 -6351.66 43284.2 73.4788 -13354 -7.41183 
138 1 15.016 5.88189 7.3742 6.03104 -36089.4 29696.2 8412.69 25770.3 11909 -22181.9 -7.413 
139 1 16.4355 5.86034 7.37798 6.02994 -28641.1 24953.6 -9820.79 50598.5 -201.001 -12837.1 -7.41182 
140 1 17.123 4.61798 7.37888 6.02606 -30291.6 23743.6 8512.8 39246.8 12524.7 -22198.6 -7.41315 
141 1 18.5425 4.59769 7.38267 6.03086 -24010.5 20218.2 -9635.04 65353.7 -4238 -14262.6 -7.41198 
142 1 19.2725 5.81604 7.38587 6.02313 -37044.9 30333.6 12579.7 46439.1 14424.5 -23218.6 -7.41366 
215 1 10.0725 7.19591 7.36288 6.02942 -26369.5 21030 -4403.99 15659.1 8336.75 -9166.74 -7.41173 
216 1 10.8027 8.41379 7.36686 6.03042 -42841.6 36581.3 5460.7 309.644 11200.2 -19645.7 -7.41256 
217 1 12.2223 8.38997 7.37018 6.02554 -33989.4 29794.3 -7233.14 20564.2 8167.19 -9144.13 -7.41176 
218 1 12.9093 7.14723 7.3701 6.03134 -40453.6 34145.7 7346.18 12665.5 11445.7 -21364.4 -7.4128 
219 1 14.3288 7.12449 7.37373 6.02731 -32116 28368.9 -8981.07 35551.3 3974.1 -11108.5 -7.41175 
220 1 15.0584 8.3429 7.37757 6.02756 -48437.5 42208.9 10985.4 17100.4 12610.7 -23405.3 -7.41329 
221 1 16.4779 8.32119 7.38107 6.02437 -38622.8 35872.2 -12945.3 41289.5 3567.26 -10502.9 -7.41171 
222 1 17.1653 7.07872 7.38153 6.02748 -43503.3 36852.2 12321.1 31598.3 13466.9 -23683 -7.4135 
223 1 18.5848 7.05826 7.38508 6.02746 -34453.8 31550.5 -14015.7 57225.3 -566.434 -12021.4 -7.41176 
224 1 19.3139 8.27716 7.38863 6.02427 -49960.2 43181.3 16897.7 37149.3 14731.3 -24677.1 -7.41405 
11 1 20.6073 0.876977 7.38668 6.01908 -7483.88 3399.47 -2399.29 82272.7 -11228.3 -17340 -7.41259 
12 1 23.4466 0.835784 7.39395 6.00927 -8712.19 3649.37 2692.9 78349 14361.4 -18895.8 -7.4132 
13 1 24.8662 0.819278 7.39721 6.01062 -7324.41 3663.04 -2855.79 103842 -14684.3 -16280.5 -7.41288 
14 1 27.7058 0.781322 7.40315 6.00259 -8202.62 3656.5 3030.61 100811 17283.3 -16658.5 -7.41348 
61 1 20.6499 3.33661 7.38756 6.02377 -18398.9 14862.7 -8381.53 79332.6 -8043.14 -15338.4 -7.41221 
62 1 21.3382 2.09489 7.38895 6.01465 -15889.7 10325.5 5615.86 65934.1 13837.7 -20417 -7.41325 
63 1 22.7578 2.07715 7.39245 6.01693 -12782.2 9059.62 -6091.63 92255.5 -11544.9 -16023.7 -7.41252 
64 1 23.4882 3.29549 7.39482 6.0127 -22387.2 16137.1 9771.33 75402.4 16210.7 -20631.4 -7.41372 
65 1 24.9078 3.2789 7.3979 6.01519 -17429.6 14331.8 -10462.7 100922 -11742.9 -14472.2 -7.41239 
66 1 25.5968 2.03764 7.39912 6.00718 -14936.5 9548.46 6829.88 88746.1 16862.9 -18766.3 -7.41364 
67 1 27.0164 2.02225 7.40193 6.00867 -11790.9 8741.45 -7202.62 112904 -14834.3 -14449.5 -7.41273 
68 1 27.7464 3.24099 7.4039 6.00558 -20290.6 14412 11542.8 97813.1 18962.5 -18123.6 -7.4141 
143 1 20.6921 5.79688 7.38934 6.02842 -29021.7 26309 -13957 72717.7 -4547.91 -13221.1 -7.4119 
144 1 21.3802 4.55495 7.39036 6.01785 -29742.6 23390.5 11719.2 61149.7 15373 -22155.2 -7.41373 
145 1 22.7997 4.53709 7.39367 6.02232 -23250.7 20252.6 -12753.3 87436.6 -8295.87 -14052 -7.41211 
146 1 23.5293 5.75587 7.39651 6.01512 -35459.4 28565.3 16472.3 68745.1 17175.1 -22240.1 -7.41425 
147 1 24.9488 5.73908 7.39939 6.02059 -27198.7 25051.3 -17679.4 94135.8 -8463.82 -12575.4 -7.41196 
148 1 25.6376 4.49764 7.40032 6.0102 -27638.8 21233.4 14518.8 83794.7 18191.3 -20331 -7.41421 
149 1 27.0572 4.48211 7.40294 6.01385 -21004.2 18658.7 -15366.4 107952 -11798.1 -12745.6 -7.41222 
150 1 27.7865 5.70124 7.40537 6.00793 -31846.1 25004.3 19702.3 90842.3 19745.6 -19504.4 -7.41473 
225 1 20.7333 8.25776 7.39186 6.02558 -39295.7 37610.4 -18832.6 62937.9 -963.481 -10990.3 -7.41166 
226 1 21.4214 7.01571 7.39256 6.02057 -42949 36133.6 17285.1 53046.7 15987.6 -23733.4 -7.41419 
227 1 22.8409 6.99762 7.39565 6.0263 -33411.1 31447.2 -18863.5 79002.4 -4832.11 -11978 -7.41177 
228 1 23.5696 8.21692 7.39884 6.01844 -47760 40668.3 22494.5 58870.8 17179.3 -23706.8 -7.41475 
229 1 24.9891 8.19985 7.40149 6.02457 -36633.9 35723.5 -24205.7 83916.8 -5063.56 -10583.9 -7.4116 
230 1 25.6778 6.95829 7.40221 6.01288 -39767.1 32717.3 21691.3 75266 18571.6 -21787.9 -7.41478 
231 1 27.0973 6.94249 7.40463 6.01871 -29951.5 28631.7 -23003.2 99215.4 -8529.14 -10960.4 -7.41177 
232 1 27.8258 8.16209 7.40741 6.01126 -42739.5 35406.4 27209.4 80409.5 19539.5 -20790 -7.41533 
15 1 29.1254 0.767044 7.40568 6.00299 -6998.55 3663.34 -3128.06 123100 -17529.4 -13967 -7.41311 
16 1 31.9652 0.731928 7.41012 5.99695 -7670.24 3546.36 3167.96 121082 19631.9 -13200.9 -7.41368 
17 1 33.3848 0.719506 7.41187 5.9968 -6590.67 3510.65 -3206.34 138368 -19619.6 -10572.4 -7.41328 
18 1 36.2247 0.686612 7.4148 5.99278 -7239.15 3184.69 3114.92 137212 21292 -8854.57 -7.4138 
19 1 37.6443 0.675529 7.41583 5.99261 -6183.42 3169.68 -3110.08 148256 -20929.8 -6390.99 -7.41339 
69 1 29.1659 3.22661 7.40624 6.00722 -15451.5 12705.9 -12065.9 120137 -14789.2 -12467.5 -7.41253 
70 1 29.8556 1.98579 7.40718 6.00092 -13524.5 8329.02 7700.43 110349 19447.6 -15718 -7.41392 
71 1 31.2752 1.97247 7.40923 6.00148 -10434.9 7703.12 -7950.72 130347 -17403.2 -11738.2 -7.41289 
72 1 32.0049 3.19152 7.41079 5.99887 -17438.9 11878 12771.3 117940 21189.3 -14300.5 -7.41437 
73 1 33.4245 3.17899 7.41236 6.00054 -12717.1 10257.5 -13111.7 135310 -17043.3 -9460.01 -7.41263 
74 1 34.1147 1.93856 7.41297 5.9953 -11737.5 6816.35 8191.56 128708 21407.6 -11569.4 -7.41411 
75 1 35.5343 1.92684 7.41426 5.99596 -8809.88 6080.86 -8327.66 143072 -19172.1 -8112.72 -7.413 
76 1 36.2639 3.14611 7.41543 5.9939 -13992 8749.3 13446.2 133920 22771.5 -9544.2 -7.41454 
77 1 37.6835 3.13491 7.41626 5.99572 -9287.67 7235.47 -13618.8 145091 -18473.4 -5708.92 -7.4127 
78 1 38.3741 1.89477 7.41655 5.99166 -9493.61 5061.69 8334.11 142091 22684 -6709.43 -7.41421 
151 1 29.206 5.68665 7.40751 6.01294 -23568 21807.1 -20640.3 113110 -11703.6 -10901.4 -7.41201 
152 1 29.8955 4.44569 7.40824 6.00359 -24187.2 17914.7 16670.1 105190 20631.2 -16974.6 -7.41459 
153 1 31.3151 4.4322 7.4101 6.00625 -17564.9 15644.7 -17280.2 125222 -14549.3 -10398 -7.4123 
154 1 32.0442 5.65159 7.41212 6.00206 -26675.5 20128.9 22047.9 110638 21853.3 -15346.4 -7.41508 
155 1 33.4638 5.63882 7.41349 6.0058 -18476.8 17062.2 -22681.7 128027 -14124.3 -8303.92 -7.41204 
156 1 34.1539 4.39831 7.41395 5.9974 -19798.9 13778.9 18079.4 123340 22496 -12446 -7.41484 
157 1 35.5735 4.38641 7.41505 6.00018 -13269.8 11544.8 -18449.8 137770 -16463.9 -7196.74 -7.41236 
158 1 36.3026 5.60594 7.41667 5.99651 -20185.8 14259.4 23472.3 126341 23367.5 -10203.5 -7.4153 
159 1 37.7222 5.59449 7.41731 6.00023 -11982.1 11343.1 -23813.8 137591 -15680 -5007.98 -7.41207 
160 1 38.4129 4.35435 7.41747 5.99312 -14414.2 9126.35 18783.7 136541 23721.9 -7176.31 -7.41498 
233 1 29.2453 8.14716 7.40934 6.0174 -31406.1 30909.9 -28556.1 102466 -8486 -9260.28 -7.41156 
234 1 29.9348 6.90613 7.40993 6.00632 -34315.1 27308.8 25154.5 96236.8 20855.7 -18161.4 -7.41525 
235 1 31.3544 6.89235 7.41158 6.0119 -24377.7 23720.6 -26117.1 116150 -11460 -8998.33 -7.41177 
236 1 32.0828 8.11214 7.41396 6.00543 -35230.3 28176.7 30709.6 99719.2 21517.2 -16333.5 -7.41576 
237 1 33.5023 8.099 7.41513 6.01122 -23852.4 23985.9 -31634 116989 -11072.8 -7096.72 -7.41152 
238 1 34.1926 6.85847 7.4155 6.00114 -27290 20573.5 27514.1 113974 22627.7 -13281.9 -7.41557 
239 1 35.6121 6.84626 7.4164 6.00579 -17357.3 17178.5 -28113.3 128374 -13524.2 -6246.63 -7.41177 
240 1 36.3406 8.06611 7.4184 6.00067 -25815.7 19594.6 32918 115000 22965.2 -10831.9 -7.41604 
241 1 37.7602 8.05428 7.41885 6.00579 -14369 15614.1 -33427.2 126172 -12758 -4284.39 -7.41151 
242 1 38.4511 6.81418 7.41895 5.99616 -18717.7 13065.2 28803.3 126871 23811.7 -7624.43 -7.41575 
316 1 29.9732 9.36711 7.41205 6.01027 -43713.7 36515.8 32854.4 83963.5 20073 -19261.9 -7.41587 
317 1 31.3928 9.35292 7.4135 6.01668 -30898.1 31831.9 -34168.6 103642 -8331.62 -7531.22 -7.41132 
320 1 34.2303 9.31904 7.41745 6.0053 -34090.1 27255.5 36205.7 101160 21741.9 -14067.1 -7.41626 
321 1 35.6499 9.3064 7.41816 6.01128 -21176.5 22870.3 -37036 115421 -10545.4 -5256.12 -7.41127 
324 1 38.4884 9.27427 7.4208 6.00079 -22491.7 16847.1 38113.7 113642 22884.4 -8049.1 -7.41649 
20 1 40.4844 0.644069 7.41733 5.99078 -6415.73 2819.75 2912.78 147717 22246.8 -3998.11 -7.41385 
21 1 41.904 0.633709 7.41767 5.9907 -5468.14 2548.5 -2875.73 151875 -21495.1 -1747.37 -7.41346 
22 1 44.7442 0.602787 7.41782 5.99012 -5637.74 2142.03 2609.44 151801 22514.1 1030.96 -7.41384 
23 1 46.1638 0.592485 7.4175 5.99059 -4719.65 1701.04 -2543.7 148856 -21348.5 3061.2 -7.41347 
79 1 39.7937 1.8841 7.41713 5.99253 -6622.07 4205.74 -8371.99 149865 -20151.1 -3879.06 -7.41307 
80 1 40.5233 3.10345 7.41793 5.991 -9806.8 5398.04 13634 144283 23691.9 -4262.36 -7.41462 
81 1 41.9429 3.09298 7.41808 5.99274 -5222.71 3621.55 -13655.9 148565 -19107 -1514.38 -7.41274 
82 1 42.6337 1.85302 7.41804 5.99024 -7022.39 3020.09 8191.85 149393 23285.6 -1512.33 -7.41423 
83 1 44.0533 1.84273 7.41795 5.99096 -4277.95 1883.47 -8142.4 150090 -20378.3 658.656 -7.41311 
84 1 44.783 3.06205 7.41841 5.99039 -5631.33 1659.84 13411.5 148244 23969.7 1193.54 -7.41461 
85 1 46.2027 3.05164 7.4179 5.99154 -1045.07 -326.025 -13290.2 145406 -18974 2837.91 -7.41276 
86 1 46.8936 1.81173 7.41753 5.99012 -4272.27 793.797 7820.08 150098 23229.3 3706.55 -7.41419 
87 1 48.3132 1.80117 7.41679 5.99137 -1566.85 -637.792 -7684.77 143700 -19872.5 5217.7 -7.41311 
161 1 39.8325 4.34348 7.41786 5.99588 -7948.72 6837.68 -18933.9 144359 -17540.5 -3417.03 -7.41239 
162 1 40.5617 5.56302 7.41913 5.99292 -12813.6 7907.11 24060.9 136501 24263.7 -4515.25 -7.4154 
163 1 41.9813 5.55229 7.41909 5.99607 -4685.95 4845.95 -24133.9 140891 -16386.2 -1288.49 -7.41209 
164 1 42.6724 4.31239 7.41894 5.99096 -8548.14 4041.91 18875.6 143688 24315.8 -1560.62 -7.41502 
165 1 44.092 4.30192 7.41867 5.99312 -2178.48 1480.89 -18823.3 144467 -17809.8 654.561 -7.41242 
166 1 44.8215 5.52133 7.41959 5.9916 -5083.27 1110.34 23919.8 140323 24558.3 1351.1 -7.4154 
167 1 46.2411 5.51066 7.4189 5.99411 3039.56 -2174.55 -23735.7 137611 -16266.5 2581.18 -7.41211 
168 1 46.9324 4.2709 7.41843 5.99086 -2367.31 -1255.21 18432.8 144281 24294.6 4075.22 -7.41497 
169 1 48.3521 4.26015 7.4175 5.99276 3972.36 -4062.33 -18179.7 137992 -17288.4 4743.43 -7.41243 
243 1 39.8707 6.80299 7.41915 6.00031 -8859.13 9633.71 -29061.5 134740 -14703.5 -2948.79 -7.41178 
244 1 40.5994 8.02277 7.42079 5.99646 -15231.8 10282.4 33930.2 124870 23843.7 -4758.61 -7.41618 
245 1 42.019 8.01164 7.42057 6.00084 -3854.73 6152.65 -34052.5 129233 -13540.2 -1070.89 -7.41151 
246 1 42.7104 6.77187 7.42038 5.99339 -9424.54 4985.39 29139.2 133843 24405.7 -1608.04 -7.41581 
247 1 44.1301 6.76107 7.41993 5.99682 398.614 1253.13 -29079.5 134662 -15017.4 627.972 -7.4118 
248 1 44.8592 7.98064 7.42123 5.99447 -4117.72 429.543 33874.4 128573 24160 1500.76 -7.41618 
249 1 46.2789 7.96957 7.42037 5.99814 7301.01 -3905.36 -33625.3 125882 -13434 2284.44 -7.41153 
250 1 46.9706 6.73001 7.41986 5.9929 43.055 -3342.45 28620.2 134374 24423.5 4428.47 -7.41576 
251 1 48.3903 6.71894 7.41876 5.9957 9799.83 -7473.64 -28244.9 128176 -14478.2 4217.08 -7.41182 
325 1 39.908 9.26263 7.42082 6.00608 -9534.86 12542.2 -38482 121480 -11829.6 -2471.64 -7.41124 
328 1 42.7476 9.23145 7.42219 5.99736 -9920.18 5683.47 38711.5 120370 23482.1 -1653.4 -7.41657 
329 1 44.1673 9.22019 7.42156 6.00188 3034.81 1201.74 -38644.9 121269 -12188.8 577.004 -7.41125 
332 1 47.008 9.18906 7.42165 5.99622 2812.67 -5710.82 38110.9 120912 23541.8 4764.76 -7.41651 
333 1 48.4278 9.17753 7.4204 6.00002 15723 -10733.8 -37613.4 114813 -11630.1 3633.1 -7.41128 
24 1 49.004 0.561175 7.41631 5.99127 -4480.95 1347.27 2247.27 149221 22097.8 5939.16 -7.41377 
25 1 50.4236 0.550257 7.41532 5.9921 -3666.75 629.409 -2153.93 139320 -20492.7 7748.07 -7.41345 
26 1 53.2639 0.517654 7.41271 5.99476 -3599.19 303.142 1854.99 140301 20968.8 10429 -7.41365 
27 1 54.6835 0.505496 7.41099 5.99561 -2804.38 -479.182 -1740.5 124028 -18910.2 11989.9 -7.41336 
28 1 57.5236 0.470789 7.40688 6.00035 -2795.91 -652.795 1454.16 125846 19086.5 14167.6 -7.41346 
88 1 49.0431 3.02031 7.4169 5.9908 -1175.2 -2122.57 12828 145589 23610.5 6523.21 -7.41453 
89 1 50.4628 3.00929 7.41572 5.99279 3279.06 -4473.15 -12562 135840 -18077.7 7067.07 -7.41276 
90 1 51.1537 1.76931 7.41499 5.99212 -1757.48 -1576.27 7251.83 144282 22502.6 8654.68 -7.41409 
91 1 52.5733 1.75781 7.41355 5.99366 816.661 -3332.08 -7030.83 131146 -18623.2 9501.26 -7.41307 
92 1 53.3035 2.97667 7.41329 5.99361 2668.41 -5955.73 11891 136668 22586.4 11417.7 -7.41437 
93 1 54.7232 2.96441 7.41141 5.99584 7130.77 -8435.41 -11479.5 120606 -16405.4 10860.7 -7.41272 
94 1 55.4138 1.72424 7.41028 5.99638 703.29 -3861.31 6495.09 132451 21065.1 13008.8 -7.4139 
95 1 56.8335 1.71122 7.4081 5.99795 3161.84 -5792.57 -6196.03 113474 -16622.7 13170.1 -7.41299 
96 1 57.5641 2.92969 7.40745 5.99864 5864.74 -9348.47 10589.3 122358 20857.1 15521.9 -7.41412 
170 1 49.0819 5.47931 7.41808 5.992 2558.21 -5692.2 23104.7 137708 24257.4 7085.73 -7.4153 
171 1 50.5016 5.46803 7.41674 5.9946 10588.5 -9458.77 -22659.1 128049 -15324.1 6326.09 -7.41213 
172 1 51.1929 4.22828 7.41589 5.99214 3345.86 -6578.8 17479.1 138481 23648.4 9429.54 -7.41484 
173 1 52.6126 4.2166 7.41428 5.99481 9593.62 -9758.23 -17020 125470 -15968.9 8559.21 -7.41243 
174 1 53.3428 5.43539 7.4145 5.99413 9345.58 -12369.7 21605.9 128927 23336.8 12366.7 -7.4151 
175 1 54.7626 5.42289 7.41246 5.99743 17351.7 -16340.4 -20891 112979 -13552 9644.94 -7.41213 
176 1 55.4537 4.18302 7.4112 5.99578 8485.41 -11463.3 15995.3 126825 22339.1 14163 -7.4146 
177 1 56.8734 4.16983 7.40887 5.9984 14581.5 -14975.9 -15331.8 108001 -13850.8 11779.4 -7.4124 
178 1 57.6042 5.38816 7.40871 5.99858 14917.4 -18169.8 19382.8 114895 21761.5 16815.6 -7.41478 
252 1 49.1199 7.93816 7.41972 5.99474 6721.14 -9476.75 32814.9 125975 23919.4 7622.48 -7.41607 
253 1 50.5397 7.9265 7.41822 5.99787 18071.3 -14305.4 -32187.2 116413 -12441.8 5513.94 -7.41156 
254 1 51.2315 6.68702 7.41734 5.99378 8868.18 -11668.8 27263.2 128650 23858 10171.8 -7.41559 
255 1 52.6513 6.67503 7.41558 5.99701 18552.5 -16211 -26561.8 115814 -13081.9 7536.6 -7.41185 
256 1 53.3814 7.89382 7.41618 5.9962 16344 -18977.3 30725.8 117462 23103.9 13269.4 -7.41582 
257 1 54.8012 7.88095 7.41402 5.99998 27636.5 -24140.2 -29706.2 101681 -10564 8329.16 -7.41161 
258 1 55.493 6.64143 7.4127 5.99678 16533.5 -19220.6 25025.4 117268 22677.9 15264.1 -7.4153 
259 1 56.9129 6.62795 7.41025 6.00029 26066.7 -24154.5 -23994.9 98708.2 -10837.3 10281.5 -7.41187 
260 1 57.6436 7.84623 7.41048 6.00007 24217.3 -27182.6 27548.2 103881 21687.8 18037.6 -7.41543 
336 1 51.2693 9.14556 7.41916 5.99688 14661.3 -17031 36327.2 115396 23058.8 10875.7 -7.41632 
337 1 52.6892 9.13312 7.41727 6.00059 27478.8 -22569 -35383.2 102723 -10153.1 6424.64 -7.41134 
340 1 55.5315 9.0995 7.4146 5.99926 24785 -27275 33299.8 104441 22012.1 16300.5 -7.41597 
341 1 56.9514 9.08559 7.41205 6.00345 37398.7 -33316.6 -31904.4 86137.8 -7777.76 8667.49 -7.41142 
29 1 58.9433 0.456853 7.4044 6.00074 -2171.89 -1603.07 -1333.35 104334 -16610.3 15423.5 -7.41322 
30 1 61.7833 0.419393 7.39875 6.00759 -2182.24 -1489.54 1062.5 107196 16459.8 16831.2 -7.4132 
31 1 63.203 0.403278 7.39553 6.00694 -1743.08 -2529.9 -953.089 82136.1 -13689.5 17722.8 -7.41299 
32 1 66.0429 0.362629 7.38849 6.01585 -1944.36 -2267 703.326 85948.4 13214.8 18201.2 -7.41287 
33 1 67.4625 0.344106 7.38466 6.01436 -1648.63 -3172.33 -615.352 59417.3 -10366.2 18694.4 -7.41269 
97 1 58.9838 2.91566 7.40483 6.00016 10164.6 -12037.5 -10046.2 101071 -13974 13879 -7.41264 
98 1 59.674 1.6752 7.40329 6.00261 2376.01 -5932.73 5554.93 115755 18892.1 16415.3 -7.41364 
99 1 61.0937 1.66019 7.40036 6.00303 4764.32 -7818.55 -5198.95 92357.2 -13919.6 15881.4 -7.41284 
100 1 61.8248 2.87819 7.39933 6.00545 8142.29 -12000.3 8933.02 103936 18432.6 18475 -7.41376 
101 1 63.2445 2.86199 7.39599 6.00585 12221.7 -14857.1 -8293.38 79120.9 -10885.8 15835.3 -7.4125 
102 1 63.9341 1.62117 7.39404 6.01028 3335.99 -7509.3 4461.45 95715.7 16045 18570.4 -7.4133 
103 1 65.3538 1.60384 7.39044 6.0097 5592.87 -9327.56 -4077.91 69774.9 -10669.3 17392.3 -7.41262 
104 1 66.0854 2.82136 7.38908 6.01349 9243.29 -13694.7 7000.74 82991 15450.9 20009.7 -7.41332 
105 1 67.5052 2.80276 7.38517 6.01295 13038.4 -16657.4 -6316.18 56726.5 -7351.55 16584.6 -7.41231 
179 1 59.024 5.37391 7.40596 6.00104 22741.7 -22467.8 -18412 93797.2 -10978.5 12222.2 -7.41212 
180 1 59.7148 4.13381 7.40424 6.0015 12141.3 -15648.6 13962.2 110403 20344.7 17891.4 -7.41426 
181 1 61.1346 4.11864 7.40119 6.00292 18130.4 -19290.2 -13123 87194.4 -10992.9 14092.4 -7.41233 
182 1 61.8658 5.33647 7.40066 6.00495 18797.6 -22617 16444.7 96870.6 19547.5 20031.9 -7.41434 
183 1 63.2857 5.32007 7.39725 6.00624 26347.3 -27158.2 -15271.4 72366 -7716.75 13806.8 -7.41207 
184 1 63.976 4.07965 7.39505 6.00883 14392 -18612.6 11433.3 90723 17733.6 20264.9 -7.41382 
185 1 65.3958 4.06219 7.39137 6.00917 20170 -22292.7 -10477.6 65031.3 -7555.04 15296.7 -7.41221 
186 1 66.1276 5.2795 7.39056 6.01273 20688.3 -25213.5 12931.8 76428.9 16847.5 21692 -7.41379 
187 1 67.5474 5.26073 7.38663 6.01299 27813.8 -29991.8 -11650.6 50573.5 -3977.81 14293.9 -7.41199 
261 1 59.0635 7.83162 7.40765 6.00329 35266.1 -32807.3 -26150.8 83055.5 -7842.1 10440.5 -7.41166 
262 1 59.755 6.59195 7.40583 6.00199 22139.6 -25536.6 21872.9 101285 20868.8 19289.1 -7.41488 
263 1 61.1749 6.5765 7.4027 6.00426 31496.4 -30672.6 -20549.9 78442.1 -7817.34 12171.3 -7.41188 
264 1 61.9062 7.79424 7.4026 6.00599 29560.5 -33380.8 23301.1 86479.3 19699.7 21484.7 -7.41489 
265 1 63.3261 7.77752 7.39915 6.00797 40207.3 -39449 -21599.7 62340.1 -4404.57 11631.8 -7.41171 
266 1 64.0173 6.53758 7.3968 6.00895 25598.9 -29850.6 17890.6 82196.1 18510.4 21846.8 -7.41434 
267 1 65.4372 6.51987 7.3931 6.01005 34609.1 -35200.1 -16365.9 56943.8 -4192.16 13040.9 -7.41187 
268 1 66.169 7.73707 7.39277 6.01349 32140 -36831.7 18198.5 66715.1 17307 23227.1 -7.41424 
269 1 67.589 7.71803 7.38888 6.01437 42153.5 -43189.5 -16332.9 41387.6 -471.366 11832.8 -7.41174 
344 1 59.7944 9.04962 7.40788 6.00394 32253.2 -35699.9 28994 89069.1 20401.4 20589.5 -7.41546 
345 1 61.2144 9.03379 7.40471 6.00683 44547.9 -42116.1 -27194.1 66644.7 -4593.92 10113.7 -7.41151 
348 1 64.0577 8.99496 7.39911 6.01052 36739.2 -41349.7 23540.5 70704.2 18321.7 23290.6 -7.41482 
349 1 65.4777 8.97692 7.39544 6.01221 48529.6 -47992.9 -21461.5 46081.9 -787.373 10632.8 -7.4116 
34 1 70.3023 0.300072 7.3766 6.02451 -2138.26 -2932.86 399.926 63731 9625.51 18180.5 -7.41248 
35 1 71.7219 0.279088 7.37242 6.02251 -1936.17 -3582.33 -345.544 38038 -6967.51 18220.2 -7.41233 
36 1 74.5615 0.231728 7.36402 6.03295 -2331.63 -3340.72 157.732 42003.2 6080.37 16613.3 -7.41208 
37 1 75.9812 0.208419 7.35992 6.0309 -2269.54 -3749.26 -188.778 19669.7 -3879.41 16021.5 -7.41195 
106 1 68.1942 1.56151 7.38288 6.01878 3508.17 -8461.76 3286.93 73938.5 12734.5 19302 -7.41288 
107 1 69.6139 1.54173 7.3788 6.01743 5514.23 -10210.8 -2909.08 47668.4 -7138.85 17596 -7.41235 
108 1 70.346 2.75876 7.37725 6.02217 8981.71 -14273.6 4948.14 61103.8 12216.1 19978.8 -7.41283 
109 1 71.7657 2.73771 7.37303 6.02096 12452.3 -17141.3 -4289.91 35689.3 -3667.75 16062.8 -7.41207 
110 1 72.4541 1.49602 7.37051 6.0275 3007.64 -8645.51 2130.2 51907.5 9315.99 18493.7 -7.41242 
111 1 73.8738 1.47382 7.36627 6.02577 4748.46 -10227.1 -1817.1 27708.2 -3672.93 16351.6 -7.41203 
112 1 74.6063 2.69042 7.36477 6.03095 7412.24 -13312 2974.94 39708 9143.15 18193.1 -7.41231 
113 1 76.0261 2.66706 7.36067 6.02948 10442.4 -16010.6 -2461.12 17639.6 -188.729 14054 -7.41181 
114 1 76.7138 1.42493 7.35814 6.03583 1622.02 -7870.88 1089.91 31185 6214.87 15863.4 -7.41197 
188 1 68.2372 4.01991 7.384 6.0172 14941 -20023.1 8576.37 69345 14738.5 21055.3 -7.41329 
189 1 69.657 4.00002 7.37989 6.01665 20294.5 -23809.8 -7590.13 43381.3 -3789.4 15331.6 -7.41205 
190 1 70.3893 5.21685 7.37897 6.0214 20171.9 -25652.1 9137.45 55074 13992.6 21591.8 -7.41318 
191 1 71.8091 5.19566 7.3748 6.02086 26751.7 -30417 -7879.96 30154.6 -38.1469 13669.2 -7.41187 
192 1 72.4982 3.95441 7.37181 6.02606 13683 -19461.1 5659.86 47741.7 11746.9 20101.7 -7.41272 
193 1 73.918 3.93213 7.36762 6.02495 18465.3 -23235.9 -4764.43 23887.6 -7.56964 14118.5 -7.41186 
194 1 74.6507 5.14855 7.36686 6.03045 17101.6 -23221.6 5460.63 34201.8 11413.3 19522.6 -7.41256 
195 1 76.0706 5.12511 7.36288 6.02944 22921.1 -27854.9 -4404.05 12657.2 3769.73 11803.6 -7.41173 
196 1 76.7589 3.88339 7.35973 6.03487 10196.7 -16496.4 2999.03 27428.1 9178.08 17121 -7.41216 
270 1 68.2796 6.47772 7.38601 6.01716 26364.1 -31551.5 13351 61457.3 15855.2 22646.1 -7.41369 
271 1 69.6995 6.45763 7.38195 6.01729 34706.4 -37200.9 -11765.2 36047.6 -209.767 12869.1 -7.41183 
272 1 70.4318 7.67436 7.3816 6.0221 31190 -36924.1 12680.3 46094.1 14858.4 23000.8 -7.41352 
273 1 71.8518 7.65297 7.37756 6.02207 40388.9 -43375.9 -10842.6 21865.7 3686.24 11077.2 -7.41175 
274 1 72.5417 6.41222 7.37424 6.02612 24212.5 -30093.1 8697.83 40522 13310.6 21483.4 -7.41301 
275 1 73.9616 6.3898 7.37018 6.02554 31704.3 -35797.6 -7233.12 17317.7 3835.28 11645.2 -7.41176 
276 1 74.6943 7.60617 7.3701 6.03135 26516.9 -32746.6 7346.21 26008.5 12779.2 20594.5 -7.4128 
277 1 76.1142 7.5826 7.36633 6.03067 34601.5 -39291.2 -5767.84 5205.32 7741.77 9336.99 -7.41174 
278 1 76.8034 6.34136 7.36272 6.03533 18474.6 -24899.1 4463.14 20878.4 11274.5 18107.2 -7.41236 
352 1 68.3211 8.93496 7.38873 6.01854 37542.3 -43200.7 17330 50775.4 16040.2 24048.4 -7.41407 
353 1 69.7411 8.91459 7.3848 6.01917 48404.3 -50260.2 -15167.8 26172.1 3386.74 10240 -7.41168 
356 1 72.5843 8.86949 7.37757 6.02755 34350.3 -40614.9 10985.5 30707 13964.2 22623.8 -7.41329 
357 1 74.0043 8.84688 7.37373 6.0273 44058.7 -47788.8 -8980.96 8420.05 7633.08 8995.89 -7.41175 
360 1 76.8469 8.79888 7.36684 6.03426 26441.5 -32975.4 5247.44 11879.8 12446.3 18827.1 -7.41255 
38 1 78.8206 0.158088 7.35231 6.03889 -3086.25 -3655.41 -43.172 22548.8 3024.54 13115.3 -7.41171 
39 1 80.2403 0.132832 7.34897 6.0389 -3123.59 -3893.3 -173.301 6188.73 -1494.17 11649.8 -7.41161 
40 1 83.0797 0.0802511 7.3437 6.04319 -3408.56 -3642.16 -201.29 7657.56 888.479 7394.04 -7.41144 
41 1 84.4993 0.0537083 7.34195 6.0451 -3474.3 -3660.56 -240.666 -386.732 -167.921 5092.79 -7.41139 
115 1 78.1335 1.40057 7.35432 6.03421 2975.04 -9422.88 -957.465 11648.9 -661.908 13285.6 -7.41172 
116 1 78.8664 2.61682 7.3532 6.03907 3930.45 -10761.2 1291.6 20546 6628.76 14270.3 -7.41184 
117 1 80.2861 2.59154 7.3499 6.03791 6503.09 -13300.1 -1088.39 4441.93 2658.07 10164.5 -7.41157 
118 1 80.9732 1.34903 7.3477 6.04136 -719.375 -6344.51 266.27 13816.1 3825.19 10994.1 -7.4116 
119 1 82.3929 1.32302 7.34507 6.04153 516.113 -7523.18 -439.82 1456.15 1464.26 8067.85 -7.41147 
120 1 83.126 2.53907 7.34473 6.04438 -555.81 -6604.41 128.673 5997 4935.13 7962.52 -7.4115 
121 1 84.5457 2.51253 7.34301 6.04342 1768.79 -8828.24 -339.485 -1849.68 4364.4 4365.66 -7.41141 
122 1 85.2324 1.26974 7.34159 6.04637 -3381.58 -3855.09 -203.536 2364.81 2437.08 3953.57 -7.41138 
123 1 86.6521 1.2429 7.34086 6.04666 -2253.11 -5056.79 -257.231 -787.155 2295.93 1157.67 -7.41136 
197 1 78.1787 3.85897 7.35599 6.03366 14248.3 -20308.4 -2371.09 8234.71 3406.81 11370.6 -7.41167 
198 1 78.9117 5.07513 7.35575 6.03922 10833.4 -17666.8 2339.07 15526.2 9447.59 15157.7 -7.412 
199 1 80.3315 5.04981 7.35259 6.03748 15858 -22238.9 -1700.77 -110.534 6989.81 8413.27 -7.4116 
200 1 81.0192 3.80763 7.3496 6.04255 4334.1 -11333.4 927.077 10452.9 7313.83 11753.6 -7.41171 
201 1 82.4389 3.78161 7.34705 6.04063 7900.04 -14883.4 -749.561 -1582.81 5939.95 6816.86 -7.41151 
202 1 83.1719 4.99768 7.3477 6.04113 2359.72 -9294.46 219.625 1391.33 8192.86 8356.43 -7.4116 
203 1 84.5916 4.97114 7.34607 6.04162 6869.86 -13701.8 -156.199 -6129.64 8997.7 3492.59 -7.41152 
204 1 85.2788 3.72858 7.3437 6.04317 -2789.44 -4215.01 -217.081 -636.801 6239.55 4150.14 -7.41144 
205 1 86.6984 3.70175 7.34301 6.04463 488.447 -7695.4 -95.6118 -3676.39 7011.38 842.462 -7.41143 
279 1 78.2233 6.31687 7.35917 6.03439 24943.1 -30585.9 -3346.24 2275.43 7560.24 9203.52 -7.41169 
280 1 78.9561 7.53305 7.35972 6.03706 17497.1 -24153.3 2851.22 8053.75 11336.8 15782.5 -7.41216 
281 1 80.376 7.50769 7.35679 6.03727 24529.9 -30625.9 -1789.13 -6933.56 11215.7 6473.05 -7.41172 
282 1 81.0644 6.26592 7.3532 6.03896 9269.12 -16075.5 1200.33 4446.7 9914.56 12277.2 -7.41184 
283 1 82.4842 6.23989 7.35081 6.03917 14992.4 -21545.2 -658.026 -7120.2 10390.7 5378.53 -7.41162 
284 1 83.2169 7.45609 7.35231 6.03638 5166.3 -11655.4 -164.422 -5439.53 10483 8578.67 -7.41171 
285 1 84.6367 7.42958 7.35082 6.03995 11466.4 -18089.5 508.71 -12571 13416.3 2524.62 -7.41171 