ITEM: TIMESTEP
0
ITEM: NUMBER OF ATOMS
10088
ITEM: BOX BOUNDS pp pp pp
0.0000000000000000e+00 8.7338652999999994e+01
0.0000000000000000e+00 1.5127498399999999e+02
0.0000000000000000e+00 1.8399999600000001e+01
ITEM: ATOMS id type x y z c_csym c_2[1] c_2[2] c_2[3] c_2[4] c_2[5] c_2[6] c_3 
1 1 0 0 7.5 6.0491 5146.56 5070.69 -158772 -3.47208 -0.0135494 0.169922 -7.40754 
2 1 2.1471 1.19964 7.5 6.04915 3956.44 6553.35 -157880 -2498.05 4048.2 -7207.67 -7.40759 
3 1 3.56696 1.17965 7.5 6.0492 6592.2 3790.48 -156915 4313.34 3299.15 -10977.9 -7.40765 
4 1 6.40668 1.13966 7.5 6.0492 4175.49 5386.39 -152620 -7096.46 5341.67 -20337.6 -7.4079 
5 1 7.82654 1.11967 7.5 6.0492 6469.09 3053.11 -150910 8917.7 649.773 -22202.3 -7.40801 
42 1 0.0346307 2.45927 7.5 6.04911 2131.72 7995.86 -157961 -123.168 7691.13 -77.8622 -7.40759 
43 1 1.45449 2.43927 7.5 6.04915 7966.76 2488.52 -157640 1875.8 8104.46 -4354.02 -7.4076 
44 1 2.18174 3.65891 7.5 6.04915 836.758 9412.25 -156234 -2455.2 11199.4 -7631.05 -7.40769 
45 1 3.60159 3.63892 7.5 6.0492 9145.67 1038.84 -155393 4582.78 11538.9 -10044.2 -7.40774 
46 1 4.29421 2.39929 7.5 6.0492 2517.41 7471.36 -155098 -4773.24 8123.07 -14492.3 -7.40776 
47 1 5.71407 2.37929 7.5 6.0492 7870.41 2192.48 -154105 6895.54 6187.09 -16235 -7.40782 
48 1 6.44131 3.59893 7.5 6.0492 1011.06 8011.76 -150353 -6760.14 12006.2 -21453.8 -7.40804 
49 1 7.86117 3.57893 7.5 6.0492 9083.46 663.159 -150453 9336.4 8367.51 -20178.8 -7.40803 
50 1 8.55379 2.3393 7.5 6.0492 2714.58 5739.58 -147043 -8919.26 9779.35 -26569.7 -7.40824 
124 1 0.0692614 4.91854 7.5 6.04911 -1012.38 10846 -155736 -240.394 14353.2 -138.917 -7.40772 
125 1 1.48912 4.89854 7.5 6.04915 10264.9 -318.893 -154916 2046.43 16437.9 -4002.97 -7.40776 
126 1 2.21637 6.11818 7.5 6.04915 -2303.31 12185.1 -153357 -2378.41 17136.4 -7903.42 -7.40786 
127 1 3.63622 6.09819 7.5 6.0492 11202.8 -1626.08 -151972 4793.87 19643.5 -8929.94 -7.40794 
128 1 4.32884 4.85855 7.5 6.0492 -656.289 10209.9 -152569 -4546 14522.3 -15123.5 -7.40791 
129 1 5.7487 4.83856 7.5 6.0492 10214 -370.42 -152112 7206.96 14215.3 -14581.9 -7.40793 
130 1 6.47594 6.0582 7.5 6.0492 -2178.75 10580.7 -146942 -6341.08 17490.4 -22182.4 -7.40824 
131 1 7.8958 6.0382 7.5 6.0492 11202.8 -1624.21 -148209 9639.36 16038.6 -17805 -7.40817 
132 1 8.58842 4.79857 7.5 6.0492 -521.975 8159.13 -143673 -8414.15 15530.9 -27774.6 -7.40844 
206 1 0.103892 7.3778 7.5 6.04911 -4077.44 13576.7 -152467 -347.446 19638.1 -191.803 -7.40792 
207 1 1.52375 7.35781 7.5 6.04915 12024.4 -3009.47 -150236 2183.39 24398.2 -3585.21 -7.40804 
208 1 2.251 8.57745 7.5 6.04915 -5274.49 14809.5 -149644 -2266.89 21591.5 -8049.16 -7.40808 
209 1 3.67086 8.55745 7.5 6.0492 12686.5 -4148.54 -146623 4934.28 27206 -7663.84 -7.40826 
210 1 4.36347 7.31782 7.5 6.0492 -3756.46 12845.8 -149032 -4260.39 19573.7 -15491.6 -7.40812 
211 1 5.78333 7.29783 7.5 6.0492 12019.1 -2807.14 -148236 7417.38 21936.1 -12675.4 -7.40817 
212 1 6.51057 8.51747 7.5 6.0492 -5205.49 13035.7 -142780 -5841.85 21553 -22568.1 -7.40849 
213 1 7.93043 8.49747 7.5 6.0492 12742.1 -3764.04 -144120 9814.4 23283.4 -15146.8 -7.40841 
214 1 8.62305 7.25784 7.5 6.0492 -3691.9 10520.5 -139425 -7805.93 19996.4 -28530.6 -7.40869 
6 1 10.6663 1.07968 7.5 6.0492 4415.24 3514.54 -143027 -10920.1 7984.17 -30269 -7.40848 
7 1 12.0861 1.05968 7.5 6.0492 6438.68 1776.22 -141431 12531.5 -3529.22 -30005.5 -7.40858 
8 1 14.9258 1.0197 7.5 6.0492 4691.12 1206.42 -130549 -13594.7 11730.8 -36155.7 -7.40923 
9 1 16.3457 0.999702 7.5 6.0492 6506.79 69.6636 -129778 14844.6 -8745.15 -34097.5 -7.40928 
10 1 19.1854 0.959714 7.5 6.0492 5004.76 -1436.43 -116692 -14911.7 16221.8 -38268.4 -7.41006 
51 1 9.97365 2.31931 7.5 6.0492 7827.6 1392.89 -146893 11120.3 2369.5 -25399.8 -7.40825 
52 1 10.7009 3.53895 7.5 6.0492 1178.31 5709.74 -139589 -10377.2 13856.7 -32020.7 -7.40868 
53 1 12.1207 3.51895 7.5 6.0492 9131.47 -75.0968 -142670 13035.2 3404.86 -27193 -7.4085 
54 1 12.8134 2.27932 7.5 6.0492 2932.3 3366.72 -135085 -12131.5 12575.9 -34806 -7.40896 
55 1 14.2332 2.25933 7.5 6.0492 7885.67 188.743 -137107 14139.2 -2830.96 -31012.1 -7.40884 
56 1 14.9605 3.47896 7.5 6.0492 1371.95 2844.75 -125492 -12946.8 16707.5 -38422 -7.40953 
57 1 16.3803 3.45897 7.5 6.0492 9264.72 -1169.74 -133152 15376.9 -2668.24 -30844.9 -7.40907 
58 1 17.0729 2.21934 7.5 6.0492 3192.73 592.703 -120818 -14113.9 16304.2 -38933 -7.40981 
59 1 18.4928 2.19935 7.5 6.0492 8024.23 -1434 -125967 15749.8 -8789.96 -33282.7 -7.40951 
60 1 19.22 3.41898 7.5 6.0492 1616.01 -404.444 -109700 -14238.7 20362.1 -40850.6 -7.41048 
133 1 10.0083 4.77858 7.5 6.0492 10244.9 -696.94 -146377 11527.6 9773.52 -22731.5 -7.40828 
134 1 10.7355 5.99822 7.5 6.0492 -2092.66 7896.83 -135171 -9710.76 18594.6 -33248.5 -7.40895 
135 1 12.1554 5.97822 7.5 6.0492 11323.6 -1809.64 -142280 13393.2 10423.5 -23959.3 -7.40853 
136 1 12.848 4.73859 7.5 6.0492 -390.435 5305.93 -130397 -11455.1 17474.5 -36556.8 -7.40924 
137 1 14.2679 4.7186 7.5 6.0492 10374.8 -1307.5 -138621 14592.8 3793.36 -27716.9 -7.40875 
138 1 14.9951 5.93823 7.5 6.0492 -2001.09 4517 -119647 -12149.2 20586.7 -40141.2 -7.40988 
139 1 16.415 5.91824 7.5 6.0492 11509.4 -2291.59 -135065 15762.6 3632.05 -27188.5 -7.40896 
140 1 17.1076 4.67861 7.5 6.0492 -222.205 1956.84 -114432 -13369.7 20329.6 -41121.3 -7.4102 
141 1 18.5274 4.65861 7.5 6.0492 10552.9 -2317.15 -129844 16218.6 -2940.03 -29739.5 -7.40927 
142 1 19.2547 5.87825 7.5 6.0492 -1864.18 687.464 -102104 -13410.8 23419.9 -42940.9 -7.41094 
215 1 10.0429 7.23785 7.5 6.0492 12117.4 -2650.55 -144099 11789.1 17003.9 -19700.4 -7.40842 
216 1 10.7702 8.45748 7.5 6.0492 -5212.14 10021.5 -130157 -8921.65 21996.3 -34002.3 -7.40925 
217 1 12.19 8.43749 7.5 6.0492 12921.6 -3397.6 -140159 13595.6 17186.8 -20384.7 -7.40865 
218 1 12.8826 7.19786 7.5 6.0492 -3661.88 7237.86 -125012 -10638.5 21153.6 -37779.1 -7.40956 
219 1 14.3025 7.17786 7.5 6.0492 12306.4 -2666.43 -138517 14887.6 10406.5 -24037.9 -7.40875 
220 1 15.0297 8.3975 7.5 6.0492 -5247.05 6179.09 -113394 -11195.2 23205.6 -41352.5 -7.41026 
221 1 16.4496 8.37751 7.5 6.0492 13141.7 -3275.28 -135373 15995 9855.51 -23202.2 -7.40894 
222 1 17.1422 7.13788 7.5 6.0492 -3616.9 3353.23 -107539 -12464.2 23181.7 -42796.3 -7.41061 
223 1 18.5621 7.11788 7.5 6.0492 12507.7 -3070.53 -132251 16541.3 3049.99 -25852.7 -7.40913 
224 1 19.2893 8.33752 7.5 6.0492 -5258.71 1805.39 -94281.4 -12407.9 25259.5 -44560.1 -7.41142 
11 1 20.6053 0.93972 7.5 6.0492 6654.95 -2113.4 -117204 15736 -14448.7 -35011.6 -7.41003 
12 1 23.445 0.899732 7.5 6.0492 5324.47 -4475.73 -102726 -14819.2 21022.5 -37343.5 -7.41091 
13 1 24.8649 0.879738 7.5 6.0492 6835.36 -4889.68 -104720 15226.6 -20110.7 -33379.1 -7.41079 
14 1 27.7046 0.83975 7.5 6.0492 5602.95 -7932.9 -89666.2 -13389.4 25675.7 -33898 -7.4117 
61 1 20.6399 3.39899 7.5 6.0492 9437.84 -2751.46 -122948 16265.1 -9156.98 -31641.6 -7.40969 
62 1 21.3325 2.15936 7.5 6.0492 3492.56 -2540.35 -105728 -14724.1 20621.8 -39521.4 -7.41073 
63 1 22.7524 2.13936 7.5 6.0492 8197.59 -3613.23 -114515 15922.8 -14907.3 -32866 -7.4102 
64 1 23.4796 3.359 7.5 6.0492 1899.23 -4032.07 -93640.3 -14170.2 24460.4 -39977.8 -7.41146 
65 1 24.8995 3.33901 7.5 6.0492 9591.65 -4975.86 -112885 15738.7 -15472.7 -30159.7 -7.41029 
66 1 25.5921 2.09938 7.5 6.0492 3797.33 -6079.71 -91027.2 -13964.4 25091.4 -37244.2 -7.41161 
67 1 27.012 2.07938 7.5 6.0492 8353.9 -6426.94 -103566 14733 -20668.1 -30202.7 -7.41086 
68 1 27.7392 3.29902 7.5 6.0492 2185.77 -8010.2 -78507.5 -12793.8 28545.5 -36296.4 -7.41237 
143 1 20.6745 5.85826 7.5 6.0492 11688.9 -3279.01 -127391 16669.7 -3524.19 -27930.7 -7.40942 
144 1 21.3672 4.61863 7.5 6.0492 0.211848 -1774.41 -97391.1 -13986.8 23872.5 -41938.8 -7.41123 
145 1 22.787 4.59863 7.5 6.0492 10715.1 -3920.57 -120888 16394.2 -9732.19 -29382.5 -7.40981 
146 1 23.5143 5.81827 7.5 6.0492 -1670.36 -3517.47 -84105.9 -13379.7 26808.8 -42202.5 -7.41203 
147 1 24.9341 5.79827 7.5 6.0492 11797.4 -4957.72 -119891 16157.3 -10409.7 -26665.7 -7.40987 
148 1 25.6267 4.55864 7.5 6.0492 262.097 -5869.56 -80653.3 -13278.4 27701.1 -39611 -7.41224 
149 1 27.0466 4.53865 7.5 6.0492 10810 -6213 -112388 15195.4 -16050.3 -27018.2 -7.41032 
150 1 27.7738 5.75829 7.5 6.0492 -1438.64 -8007.37 -67023.5 -12086.6 30306.6 -38360.9 -7.41307 
225 1 20.7092 8.31752 7.5 6.0492 13311.6 -3681.96 -130352 16942.5 2180.46 -23934.5 -7.40924 
226 1 21.4018 7.07789 7.5 6.0492 -3520.35 -951.765 -88718.5 -13086.1 25964.4 -43909.8 -7.41175 
227 1 22.8216 7.0579 7.5 6.0492 12642.7 -4108.77 -125929 16748.4 -4301.54 -25614.6 -7.40951 
228 1 23.5489 8.27754 7.5 6.0492 -5212.48 -2952.51 -74500.2 -12418.4 27943 -44022.6 -7.41262 
229 1 24.9687 8.25754 7.5 6.0492 13366 -4820.11 -125534 16473.1 -5171.1 -22933.9 -7.40953 
230 1 25.6614 7.01791 7.5 6.0492 -3363.66 -5589.62 -70082.1 -12448.5 29140.4 -41607.9 -7.41289 
231 1 27.0812 6.99792 7.5 6.0492 12666.7 -5878.89 -120004 15571 -11101.5 -23602.3 -7.40987 
232 1 27.8085 8.21755 7.5 6.0492 -5103.28 -7937.15 -55593.6 -11234.3 30833.4 -40089 -7.41377 
15 1 29.1244 0.819756 7.5 6.0492 7001.71 -8213.05 -93159.1 13423.8 -25255.2 -29435.5 -7.41148 
16 1 31.9641 0.779768 7.5 6.0492 5795.4 -11551.4 -78430.5 -10781 29751 -28017.4 -7.41238 
17 1 33.384 0.759774 7.5 6.0492 7125.16 -11700.7 -83334.2 10492.4 -29466.9 -23083 -7.41208 
18 1 36.2237 0.719786 7.5 6.0492 5889.33 -14742.5 -69942.9 -7224.89 32877.1 -19680.1 -7.41289 
19 1 37.6436 0.699792 7.5 6.0492 7211.84 -14669.8 -76097.4 6663.09 -32404.1 -14356.9 -7.41252 
69 1 29.1591 3.27902 7.5 6.0492 9687.23 -7810.04 -103619 13898 -21147.8 -26593 -7.41085 
70 1 29.8517 2.03939 7.5 6.0492 4058.67 -9911.07 -77755.7 -11951 29253.8 -32394.4 -7.41242 
71 1 31.2715 2.0194 7.5 6.0492 8460.6 -9677.61 -93833.8 12309.4 -25638.2 -25305.5 -7.41144 
72 1 31.9988 3.23904 7.5 6.0492 2425.96 -12052.8 -65413.8 -10274.3 32165.4 -29919.5 -7.41317 
73 1 33.4186 3.21904 7.5 6.0492 9720.46 -10883.4 -95771.6 10884.8 -25790.1 -20824.7 -7.41132 
74 1 34.1113 1.97941 7.5 6.0492 4238.26 -13592 -66930.2 -8887.24 32697.6 -24964.2 -7.41307 
75 1 35.5311 1.95942 7.5 6.0492 8521.54 -12822.1 -86057.1 8837.14 -29443.3 -18066.2 -7.41191 
76 1 36.2584 3.17905 7.5 6.0492 2586.73 -15550.2 -55485.2 -6858.12 34952 -20892.9 -7.41377 
77 1 37.6782 3.15906 7.5 6.0492 9729.86 -13543.3 -89996.4 6912.92 -29051.5 -12873.4 -7.41167 
78 1 38.3708 1.91943 7.5 6.0492 4324.3 -16414.6 -59560.9 -5047.2 35098.7 -15112.9 -7.41352 
151 1 29.1937 5.73829 7.5 6.0492 11807.2 -7294.14 -113045 14309.3 -16562.5 -23530.1 -7.41028 
152 1 29.8863 4.49866 7.5 6.0492 522.725 -10170.7 -65446.6 -11351.9 31343.9 -34423.4 -7.41317 
153 1 31.3062 4.47867 7.5 6.0492 10824.3 -9001.2 -104876 12729.4 -21479.7 -22630 -7.41078 
154 1 32.0334 5.6983 7.5 6.0492 -1211.46 -12457.1 -52171.1 -9693.46 33453.2 -31553.9 -7.41398 
155 1 33.4533 5.67831 7.5 6.0492 11743.3 -9928.54 -107282 11237.9 -21602.1 -18401.2 -7.41063 
156 1 34.1459 4.43868 7.5 6.0492 736.121 -14208.5 -52991.7 -8419.28 34381.6 -26423.7 -7.41392 
157 1 35.5657 4.41869 7.5 6.0492 10793.1 -11764.7 -98890.7 9155.44 -25652.1 -16105.8 -7.41113 
158 1 36.293 5.63832 7.5 6.0492 -1034 -16238.4 -40878.1 -6453.68 35892.2 -21913.1 -7.41466 
159 1 37.7128 5.61833 7.5 6.0492 11674.7 -12248.4 -103047 7140.54 -25164.2 -11300.5 -7.41088 
160 1 38.4055 4.3787 7.5 6.0492 868.546 -17261.6 -44491.9 -4762.72 36512.4 -15860.3 -7.41444 
233 1 29.2283 8.19756 7.5 6.0492 13292.9 -6647.46 -121219 14643.5 -11737.2 -20271.7 -7.40979 
234 1 29.9209 6.95793 7.5 6.0492 -3171.6 -10345.6 -53050.4 -10643.3 32241.7 -36151.3 -7.41392 
235 1 31.3408 6.93794 7.5 6.0492 12586.7 -8185.79 -114825 13088 -16944.1 -19771.1 -7.41018 
236 1 32.068 8.15757 7.5 6.0492 -4957.42 -12774.3 -39082.1 -9007.88 33481.7 -32920.1 -7.41478 
237 1 33.4879 8.13758 7.5 6.0492 13143.2 -8812.82 -117642 11535.5 -17134.4 -15831.7 -7.41 
238 1 34.1805 6.89795 7.5 6.0492 -2985.5 -14719.8 -39052.9 -7882.51 34855.9 -27652.8 -7.41478 
239 1 35.6004 6.87795 7.5 6.0492 12469.4 -10536.2 -110724 9432.64 -21454.3 -14023.6 -7.41042 
240 1 36.3276 8.09759 7.5 6.0492 -4819.28 -16815.6 -26500 -5988.46 35556.3 -22746.8 -7.41555 
241 1 37.7475 8.0776 7.5 6.0492 13010.9 -10759.1 -115021 7329.89 -20970.3 -9654.21 -7.41016 
242 1 38.4401 6.83797 7.5 6.0492 -2852.04 -17979.7 -29484.5 -4447.8 36710.3 -16466.5 -7.41536 
316 1 29.9556 9.4172 7.5 6.0492 -6855.82 -10452 -40961.4 -9791.89 31857.2 -37572.5 -7.41466 
317 1 31.3754 9.3972 7.5 6.0492 13697.7 -7222.29 -123477 13374.1 -12255.7 -16749.7 -7.40965 
320 1 34.2151 9.35722 7.5 6.0492 -6760.05 -15138.4 -25512.6 -7248.14 34020.9 -28650.4 -7.41561 
321 1 35.635 9.33722 7.5 6.0492 13515.2 -9124.7 -121344 9656.01 -17068.2 -11836.3 -7.40978 
324 1 38.4747 9.29723 7.5 6.0492 -6671.96 -18584.1 -14939 -4084.3 35583.9 -16937.5 -7.41625 
20 1 40.4833 0.659804 7.5 6.0492 5899.22 -16770.2 -65062.4 -3023.54 34761.1 -9263.07 -7.41319 
21 1 41.9032 0.63981 7.5 6.0492 7280.05 -16387.7 -72225.2 2253.55 -33828.7 -3857.61 -7.41275 
22 1 44.7429 0.599821 7.5 6.0492 5856.21 -17080.5 -64362.5 1458.56 35205.5 2218.74 -7.41323 
23 1 46.1627 0.579827 7.5 6.0492 7341.82 -16393.5 -72196.2 -2344.91 -33642.8 7214.56 -7.41275 
79 1 39.7907 1.89943 7.5 6.0492 8567.95 -15130 -80978.2 4584.95 -31777.4 -8752.92 -7.41222 
80 1 40.5179 3.11907 7.5 6.0492 2654.88 -17753.5 -49758.4 -2850.86 36646 -9678.5 -7.41412 
81 1 41.9378 3.09908 7.5 6.0492 9764.76 -15098.4 -86892.5 2309.28 -30657.1 -3295.77 -7.41186 
82 1 42.6304 1.85945 7.5 6.0492 4328.52 -17683.2 -56472 -761.282 36229.1 -3577.27 -7.41371 
83 1 44.0503 1.83945 7.5 6.0492 8630.8 -15984.1 -79181.5 -75.9055 -32448.7 1738.76 -7.41233 
84 1 44.7775 3.05909 7.5 6.0492 2637.45 -18093.7 -48922.9 1404.48 37084.1 2627.47 -7.41417 
85 1 46.1974 3.0391 7.5 6.0492 9850.9 -15116.3 -86837.3 -2496.74 -30474.3 6789.83 -7.41186 
86 1 46.89 1.79946 7.5 6.0492 4269.12 -17039 -58046.3 3600.15 35958 8327.7 -7.41361 
87 1 48.3098 1.77947 7.5 6.0492 8709.6 -15157.3 -80901.2 -4710.47 -31427.1 12083.9 -7.41222 
161 1 39.8253 4.3587 7.5 6.0492 10779.8 -13818.7 -94974.9 4739.15 -28234 -7693.19 -7.41137 
162 1 40.5526 5.57834 7.5 6.0492 -938.96 -18594.4 -34353.7 -2670.72 37399.2 -9998.79 -7.41506 
163 1 41.9724 5.55835 7.5 6.0492 11677.3 -13621.7 -100749 2355.36 -26932.3 -2744.23 -7.41102 
164 1 42.665 4.31871 7.5 6.0492 907.293 -18625.7 -40919.3 -703.615 37546.3 -3557.53 -7.41466 
165 1 44.0849 4.29872 7.5 6.0492 10837.9 -14591.8 -93562 -122.927 -28991.8 1778.79 -7.41146 
166 1 44.8121 5.51836 7.5 6.0492 -939.18 -18958.7 -33395.4 1333.1 37842.6 3018.27 -7.41512 
167 1 46.232 5.49836 7.5 6.0492 11789.7 -13658.8 -100655 -2646.69 -26739.3 6248.69 -7.41103 
168 1 46.9246 4.25873 7.5 6.0492 855.194 -17939.7 -42725 3418.2 37372.1 9102.27 -7.41455 
169 1 48.3445 4.23874 7.5 6.0492 10971.9 -13876.5 -94836.6 -4947.12 -27876 11092.9 -7.41138 
243 1 39.86 6.81797 7.5 6.0492 12403 -12307.7 -108030 4866.8 -24262.6 -6599.4 -7.41058 
244 1 40.5872 8.03761 7.5 6.0492 -4733.06 -19306.2 -19224.2 -2471.62 36872.1 -10236.5 -7.41599 
245 1 42.0071 8.01761 7.5 6.0492 12990.7 -11931.8 -113563 2380.06 -22882.7 -2215.86 -7.41025 
246 1 42.6997 6.77798 7.5 6.0492 -2800.38 -19425.6 -25457.9 -648.554 37652.6 -3506.55 -7.41561 
247 1 44.1195 6.75799 7.5 6.0492 12459.8 -12993.6 -107013 -182.806 -25091.7 1748.45 -7.41064 
248 1 44.8468 7.97763 7.5 6.0492 -4725.47 -19689.2 -18153.1 1241.56 37327 3374.2 -7.41605 
249 1 46.2666 7.95763 7.5 6.0492 13129.3 -11993.1 -113416 -2800.45 -22670.3 5583.24 -7.41026 
250 1 46.9592 6.718 7.5 6.0492 -2841.95 -18701.4 -27486.8 3202.44 37588.1 9793.54 -7.41548 
251 1 48.3791 6.69801 7.5 6.0492 12647.5 -12406.9 -107805 -5182.42 -23874.6 9934.62 -7.4106 
325 1 39.8946 9.27724 7.5 6.0492 13414 -10584.9 -119925 4960.69 -20078.9 -5484.19 -7.40987 
328 1 42.7343 9.23725 7.5 6.0492 -6630.65 -20100 -10487.3 -592.015 36432 -3436.47 -7.41653 
329 1 44.1542 9.21726 7.5 6.0492 13475.4 -11176.1 -119312 -255.349 -20966.7 1640.71 -7.4099 
332 1 46.9939 9.17727 7.5 6.0492 -6656.52 -19340.7 -12728.6 2944.32 36485 10385 -7.41639 
333 1 48.4137 9.15727 7.5 6.0492 13709.3 -10737.7 -119583 -5407.52 -19648.2 8608.95 -7.40989 
24 1 49.0025 0.539839 7.5 6.0492 5777.48 -15565.5 -67925.6 5823.78 34130.1 13339.4 -7.41301 
25 1 50.4223 0.519845 7.5 6.0492 7377.04 -14706.2 -76023.5 -6712.63 -31904 17456 -7.41252 
26 1 53.262 0.479857 7.5 6.0492 5665.82 -12623.6 -75302.4 9691.11 31591.5 22792.5 -7.41257 
27 1 54.6819 0.459863 7.5 6.0492 7347.3 -11812.3 -83258.9 -10463.2 -28808.7 25799 -7.41208 
28 1 57.5216 0.419875 7.5 6.0492 5512.12 -8978.68 -85670.5 12735.6 27788.2 29840.6 -7.41194 
88 1 49.0371 2.99911 7.5 6.0492 2545.55 -16463.9 -53083.9 5549.01 36189 14530.1 -7.41392 
89 1 50.457 2.97911 7.5 6.0492 9965.79 -13616.3 -89854.1 -7038.45 -28561 16082.4 -7.41168 
90 1 51.1496 1.73948 7.5 6.0492 4157.17 -14638.9 -64077.8 7661.77 34263.9 19130.2 -7.41325 
91 1 52.5694 1.71949 7.5 6.0492 8765.93 -12912.2 -85939.5 -8887.94 -28853.3 21035.1 -7.41192 
92 1 53.2967 2.93913 7.5 6.0492 2392.04 -13272.7 -61715.1 9233.86 33985.6 24664 -7.41339 
93 1 54.7165 2.91913 7.5 6.0492 10047.7 -11052.1 -95612.5 -10898.2 -25149.8 23607.9 -7.41133 
94 1 55.4091 1.6795 7.5 6.0492 3996.89 -11089.6 -73840.9 11078.5 31255.7 27743.5 -7.41266 
95 1 56.829 1.65951 7.5 6.0492 8743.47 -9871.36 -93751.8 -12248.1 -25000.4 27869.5 -7.41145 
96 1 57.5562 2.87914 7.5 6.0492 2194.75 -9261.58 -73840.4 12146.8 30636.6 32237.5 -7.41266 
170 1 49.0717 5.45838 7.5 6.0492 -1029.78 -17225.1 -38127.1 5230.93 37144.9 15596 -7.41483 
171 1 50.4916 5.43838 7.5 6.0492 11986.6 -12372.4 -102802 -7346.73 -24645.3 14504.7 -7.4109 
172 1 51.1842 4.19875 7.5 6.0492 725.533 -15365.6 -49674.7 7262.91 35950.7 20595.3 -7.41413 
173 1 52.6041 4.17876 7.5 6.0492 11132.3 -11910.4 -98672.9 -9259.26 -25049.8 19113.2 -7.41115 
174 1 53.3313 5.39839 7.5 6.0492 -1189 -13806.5 -47949.5 8705.24 35298.6 26327.1 -7.41423 
175 1 54.7512 5.3784 7.5 6.0492 12187.4 -10172 -106992 -11294.6 -20921.9 21152.9 -7.41065 
176 1 55.4438 4.13877 7.5 6.0492 539.407 -11516.7 -60926.3 10508.8 33352.4 29782.6 -7.41344 
177 1 56.8636 4.11877 7.5 6.0492 11233.8 -9270.72 -104692 -12682.3 -20831 25195.8 -7.41079 
178 1 57.5909 5.33841 7.5 6.0492 -1379.45 -9447.46 -61738.4 11454.7 32430.2 34362.1 -7.41339 
252 1 49.1064 7.91764 7.5 6.0492 -4796.94 -17863.2 -23427 4856.2 36841.3 16517 -7.41573 
253 1 50.5262 7.89765 7.5 6.0492 13399.6 -10949.8 -114635 -7640.52 -20396.9 12721.3 -7.41018 
254 1 51.2188 6.65802 7.5 6.0492 -2960.67 -15969.2 -35308.9 6798.87 36458.7 21879.5 -7.415 
255 1 52.6387 6.63802 7.5 6.0492 12907.7 -10754.4 -110360 -9610.53 -20797.6 16954.2 -7.41044 
256 1 53.3659 7.85766 7.5 6.0492 -4919.59 -14236.1 -34376.2 8081.73 35375.1 27758.6 -7.41506 
257 1 54.7858 7.83767 7.5 6.0492 13708.1 -9149.95 -117163 -11656 -16373.2 18441.3 -7.41003 
258 1 55.4784 6.59804 7.5 6.0492 -3123.39 -11841.9 -47970.4 9839.34 34295.5 31567.8 -7.41423 
259 1 56.8983 6.57804 7.5 6.0492 13133.7 -8548.06 -114482 -13072.8 -16226.4 22240.6 -7.4102 
260 1 57.6255 7.79768 7.5 6.0492 -5044.77 -9548.51 -49733.7 10630.9 33016.4 36189.3 -7.41413 
336 1 51.2535 9.11729 7.5 6.0492 -6733.46 -16466.4 -21373.4 6248.42 35665.7 22962.1 -7.41586 
337 1 52.6733 9.09729 7.5 6.0492 14051.5 -9434.46 -120782 -9930.63 -16332.7 14565.8 -7.40982 
340 1 55.513 9.0573 7.5 6.0492 -6820.38 -12081.4 -35360.9 9041.35 33965.7 33074.5 -7.41501 
341 1 56.9329 9.03731 7.5 6.0492 14384.2 -7697.61 -122910 -13411 -11432.3 19021.9 -7.40969 
29 1 58.9415 0.399881 7.5 6.0492 7214.75 -8426.58 -93162.2 -13282.6 -24654.1 31802.3 -7.41148 
30 1 61.7812 0.359893 7.5 6.0492 5325.39 -5355.6 -98080.3 14705.9 23043.5 34359.2 -7.41119 
31 1 63.2011 0.339899 7.5 6.0492 6975.8 -5170.51 -104910 -14938 -19802.9 35481.9 -7.41078 
32 1 66.0408 0.299911 7.5 6.0492 5137.55 -2205.17 -111616 15418.4 17774.3 36447.7 -7.41037 
33 1 67.4606 0.279917 7.5 6.0492 6661.91 -2348.21 -117683 -15266.7 -14665.1 36819.9 -7.41 
97 1 58.9761 2.85915 7.5 6.0492 10028.5 -8101.34 -103558 -13764 -20578 28989.7 -7.41086 
98 1 59.6687 1.61952 7.5 6.0492 3800.88 -7166.73 -86330.5 13562.3 27185.7 33737.6 -7.4119 
99 1 61.0886 1.59952 7.5 6.0492 8603.27 -6726.23 -103633 -14526 -20215.1 32451.1 -7.41085 
100 1 61.8158 2.81916 7.5 6.0492 1987.57 -5172.79 -88318.8 14026.5 26459.2 37075.8 -7.41178 
101 1 63.2357 2.79917 7.5 6.0492 9871.91 -5359.24 -113069 -15426.1 -15216.5 32282.3 -7.41028 
102 1 63.9283 1.55954 7.5 6.0492 3600.96 -3491.91 -100507 14888.6 22434.5 37145.7 -7.41104 
103 1 65.3482 1.53954 7.5 6.0492 8346.22 -3946.15 -114862 -15536.5 -14878.9 34863.5 -7.41018 
104 1 66.0754 2.75918 7.5 6.0492 1818.63 -1476.17 -104039 14675.6 21895.3 39239.5 -7.41083 
105 1 67.4953 2.73918 7.5 6.0492 9590.34 -3115.64 -123518 -15743.7 -9450.39 33496.4 -7.40965 
179 1 59.0107 5.31842 7.5 6.0492 12295.1 -7678.92 -112868 -14177.8 -15950.3 25867.8 -7.41029 
180 1 59.7034 4.07879 7.5 6.0492 334.733 -7182.53 -75299.6 12867.5 29805.2 36174.5 -7.41257 
181 1 61.1232 4.05879 7.5 6.0492 11206.6 -6608.91 -112392 -14966.8 -15595.7 29243.9 -7.41032 
182 1 61.8505 5.27843 7.5 6.0492 -1550.74 -4902 -78162.6 13213.1 28847.8 39456.2 -7.4124 
183 1 63.2703 5.25844 7.5 6.0492 12242.1 -5455.93 -120019 -15813.8 -10115.6 28718.4 -7.40987 
184 1 63.9629 4.0188 7.5 6.0492 158.757 -3001.02 -91557.1 14103.7 25700.8 39748.2 -7.41158 
185 1 65.3828 3.99881 7.5 6.0492 11021.7 -4375.56 -121252 -15957 -9716.79 31362.8 -7.40979 
186 1 66.11 5.21845 7.5 6.0492 -1650.28 -664.839 -95911.2 13778.4 25011.8 41617.8 -7.41132 
187 1 67.5299 5.19845 7.5 6.0492 12017.6 -3784.11 -128005 -16088.6 -3783.35 29737.6 -7.40939 
261 1 59.0454 7.77769 7.5 6.0492 13936.5 -7142.47 -120863 -14532.4 -11027.3 22456.5 -7.40981 
262 1 59.738 6.53805 7.5 6.0492 -3277.22 -7111.09 -64119.3 12040.1 31299.3 38296.1 -7.41325 
263 1 61.1578 6.51806 7.5 6.0492 13226.7 -6385.85 -119886 -15334.7 -10571.8 25714.8 -7.40987 
264 1 61.8851 7.7377 7.5 6.0492 -5116.76 -4560.87 -67978.4 12239 30055.5 41477.8 -7.41301 
265 1 63.3049 7.7177 7.5 6.0492 13991 -5445.48 -125540 -16112.1 -4767.1 24829 -7.40953 
266 1 63.9976 6.47807 7.5 6.0492 -3369.84 -2432.56 -82318.1 13162 27863.7 41967.2 -7.41214 
267 1 65.4174 6.45808 7.5 6.0492 13130.4 -4696.49 -126251 -16271.5 -4206.79 27486.1 -7.40949 
268 1 66.1447 7.67772 7.5 6.0492 -5090.12 203.836 -87595.3 12709.4 26957 43569.4 -7.41182 
269 1 67.5645 7.65772 7.5 6.0492 13836.8 -4336.93 -130944 -16314.8 2049.25 25604.9 -7.40921 
344 1 59.7726 8.99732 7.5 6.0492 -6861.4 -6973.68 -53171.1 11049.4 31552.1 40078.3 -7.41392 
345 1 61.1925 8.97733 7.5 6.0492 14587.5 -6053.54 -125913 -15625.9 -5398.23 21898.9 -7.40951 
348 1 64.0322 8.93734 7.5 6.0492 -6808.51 -1814.95 -73165.2 12039.6 28805.3 43786.8 -7.4127 
349 1 65.4521 8.91735 7.5 6.0492 14583.1 -4908.03 -129679 -16482.2 1383.65 23292.2 -7.40929 
34 1 70.3004 0.239928 7.5 6.0492 4998.36 369.661 -125369 14754.1 12454.5 35931.6 -7.40954 
35 1 71.7202 0.219934 7.5 6.0492 6324.69 45.2039 -130586 -14175.4 -9689.54 35376.6 -7.40923 
36 1 74.5599 0.179946 7.5 6.0492 4948.82 2451.37 -138276 12685.7 7580.35 32214.5 -7.40876 
37 1 75.9798 0.159952 7.5 6.0492 6007.46 2113.22 -142481 -11678.1 -5346.99 30403.9 -7.40851 
106 1 68.1879 1.49955 7.5 6.0492 3445.72 -345.793 -115379 14900.2 17466 37966.3 -7.41014 
107 1 69.6077 1.47956 7.5 6.0492 8013.43 -1653.55 -126693 -15155.1 -9408.42 34914.6 -7.40946 
108 1 70.335 2.6992 7.5 6.0492 1736.34 1692.96 -119910 13981 17433.1 38538.2 -7.40987 
109 1 71.7548 2.6792 7.5 6.0492 9233.61 -1342.64 -134186 -14623 -3712.45 32223.3 -7.40901 
110 1 72.4475 1.43957 7.5 6.0492 3380.05 2272.61 -129893 13527.5 12763.4 35792.1 -7.40927 
111 1 73.8673 1.41958 7.5 6.0492 7659.29 257.343 -138214 -13328.1 -4273.13 31967.3 -7.40877 
112 1 74.5946 2.63921 7.5 6.0492 1766.39 4366.64 -134699 11941.1 13513.9 34389.8 -7.40898 
113 1 76.0144 2.61922 7.5 6.0492 8860.97 117.49 -144120 -12055.1 1475.79 27737.4 -7.40841 
114 1 76.707 1.37959 7.5 6.0492 3423.6 4416.47 -142780 10819.3 8768.01 29949.5 -7.40849 
188 1 68.2225 3.95882 7.5 6.0492 64.0449 717.783 -108515 14058.8 21527.1 40472.9 -7.41056 
189 1 69.6424 3.93883 7.5 6.0492 10707.8 -2684.37 -130705 -15544.1 -3583.99 31395.4 -7.40922 
190 1 70.3696 5.15846 7.5 6.0492 -1639.9 3086.88 -113706 13050.1 21417.6 40656.6 -7.41024 
191 1 71.7895 5.13847 7.5 6.0492 11663.5 -2627.24 -136285 -14920 2629 28574.1 -7.40889 
192 1 72.4821 3.89884 7.5 6.0492 81.3051 3928.88 -124945 12682.9 17750.8 37956.8 -7.40957 
193 1 73.9019 3.87885 7.5 6.0492 10322.9 -1398.79 -140021 -13667.2 2324.44 28755.6 -7.40866 
194 1 74.6292 5.09848 7.5 6.0492 -1513.58 6322.78 -130157 11057.3 18448.7 36050.5 -7.40925 
195 1 76.049 5.07849 7.5 6.0492 11251.2 -1785.3 -144099 -12287.2 8559.09 24576 -7.40842 
196 1 76.7417 3.83886 7.5 6.0492 210.696 6618.75 -139425 10058.7 14710 31582.7 -7.40869 
270 1 68.2571 6.41809 7.5 6.0492 -3356.93 1847.57 -101185 13053.8 24489.8 42520.9 -7.411 
271 1 69.677 6.3981 7.5 6.0492 12855.2 -3596.5 -133191 -15800.4 2498.46 27439.1 -7.40907 
272 1 70.4042 7.61773 7.5 6.0492 -4946.9 4513.8 -107119 11957.4 24210.5 42287 -7.41064 
273 1 71.8241 7.59774 7.5 6.0492 13504.2 -3785.51 -136711 -15079 9014.72 24510 -7.40886 
274 1 72.5167 6.35811 7.5 6.0492 -3227.77 5624.81 -119321 11688.8 21621 39611.3 -7.4099 
275 1 73.9366 6.33811 7.5 6.0492 12458.5 -2933.79 -140159 -13864.6 9060.28 25076.6 -7.40865 
276 1 74.6638 7.55775 7.5 6.0492 -4704.22 8271.4 -125012 10040.7 22140.8 37209.1 -7.40956 
277 1 76.0837 7.53776 7.5 6.0492 13071.2 -3557.15 -142280 -12384.2 15537.6 21006.6 -7.40853 
278 1 76.7763 6.29813 7.5 6.0492 -3003.9 8817.31 -135171 9180.64 19496.8 32727.6 -7.40895 
352 1 68.2918 8.87736 7.5 6.0492 -6639.1 3002.48 -93761.1 11872.8 26220.8 44109.9 -7.41145 
353 1 69.7116 8.85736 7.5 6.0492 14360.5 -4386.14 -134001 -15928.6 8550.57 23130.1 -7.40903 
356 1 72.5513 8.81738 7.5 6.0492 -6366.59 7307.89 -113394 10545.1 24209.5 40772.9 -7.41026 
357 1 73.9712 8.79738 7.5 6.0492 13973.4 -4333.44 -138517 -13925.2 15614.2 21031.3 -7.40875 
360 1 76.8109 8.75739 7.5 6.0492 -6035.61 10951.3 -130397 8195.68 22921.9 33411.7 -7.40924 
38 1 78.8195 0.119964 7.5 6.0492 5002.61 4073.19 -149032 9320.16 3629.19 24697.2 -7.40812 
39 1 80.2394 0.0999701 7.5 6.0492 5728.32 3831.17 -151972 -7943.09 -2088.27 21476.8 -7.40794 
40 1 83.0791 0.059982 7.5 6.0492 5142.66 5101.89 -156234 4940.51 1009.02 13514.4 -7.40769 
41 1 84.4989 0.039988 7.5 6.04915 5483.17 4989.04 -157641 -3320.88 -281.416 9195.55 -7.4076 
115 1 78.1269 1.3596 7.5 6.0492 7327.97 1883.98 -148236 -10126.4 9.15887 25335 -7.40817 
116 1 78.8541 2.57923 7.5 6.0492 1899.21 6502.75 -146942 8695.61 10465.3 26238.3 -7.40824 
117 1 80.274 2.55924 7.5 6.0492 8517.33 1325.52 -152112 -8184.66 5520.6 19601.8 -7.40793 
118 1 80.9666 1.31961 7.5 6.0492 3559.3 5994.41 -152569 6979.84 5836.22 20138.4 -7.40791 
119 1 82.3865 1.29961 7.5 6.0492 7036.82 3146.94 -155393 -5802 2929.04 15015.1 -7.40774 
120 1 83.1137 2.51925 7.5 6.0492 2094.96 7884.19 -155098 4533.67 8489.19 14281 -7.40776 
121 1 84.5336 2.49926 7.5 6.04915 8227.84 2171.05 -156915 -3361.45 7857.63 8346.15 -7.40765 
122 1 85.2262 1.25963 7.5 6.04915 3708.6 6781.5 -157880 2376.35 4217.94 7109.59 -7.40758 
123 1 86.646 1.23963 7.5 6.04911 6611.33 3593.08 -158487 -798.815 4087.23 2190.27 -7.40756 
197 1 78.1615 3.81886 7.5 6.0492 9933.48 -353.633 -148209 -10374.5 7400.3 22792.3 -7.40817 
198 1 78.8888 5.0385 7.5 6.0492 -1301.68 8929.99 -143673 7967.72 16288 27337.5 -7.40844 
199 1 80.3086 5.01851 7.5 6.0492 10852.7 -1106.06 -150453 -8315.02 13291.6 17335.9 -7.40803 
200 1 81.0012 3.77888 7.5 6.0492 413.218 8618.44 -150353 6411.14 12576.4 21124.6 -7.40804 
201 1 82.4211 3.75888 7.5 6.0492 9587.98 475.767 -154105 -5903.47 10966.4 13475.7 -7.40782 
202 1 83.1483 4.97852 7.5 6.0492 -1058.44 10624.6 -152620 4074.7 14942.1 14794.8 -7.4079 
203 1 84.5682 4.95852 7.5 6.04915 10525 -589.812 -154308 -3350.19 16092.4 7311.78 -7.4078 
204 1 85.2608 3.71889 7.5 6.04915 595.973 9637.04 -156251 2093.83 11401.1 7396.61 -7.40768 
205 1 86.6807 3.6989 7.5 6.04911 9139.71 731.246 -156675 -712.378 12442.5 1871.37 -7.40766 
279 1 78.1962 6.27813 7.5 6.0492 12025.3 -2477.61 -146377 -10499.8 14799.3 19829.9 -7.40828 
280 1 78.9234 7.49777 7.5 6.0492 -4410.22 11297.8 -139589 7150.7 20802.3 28010.6 -7.40868 
281 1 80.3433 7.47777 7.5 6.0492 12633.1 -3412.4 -146893 -8343.62 20812.2 14752 -7.40825 
282 1 81.0359 6.23814 7.5 6.0492 -2738.04 11192.1 -147043 5771.18 18120.4 21754 -7.40824 
283 1 82.4557 6.21815 7.5 6.0492 11635.7 -2096.08 -150910 -5929.88 18902.9 11663.9 -7.40801 
284 1 83.183 7.43779 7.5 6.0492 -4124.89 13262.7 -149167 3575.58 20033.4 15063.7 -7.40811 
285 1 84.6028 7.41779 7.5 6.04915 12278.1 -3232.33 -149742 -3298.2 23976.1 6131.93 -7.40808 
286 1 85.2955 6.17816 7.5 6.04915 -2530.99 12410.7 -153408 1792.12 17364 7559.49 -7.40785 
287 1 86.7153 6.15817 7.5 6.04911 11170.3 -2038.36 -152921 -618.906 20643 1502.09 -7.40789 
361 1 78.2308 8.7374 7.5 6.0492 13517.8 -4461.15 -142670 -10504.8 21847.4 16545.2 -7.4085 
364 1 81.0705 8.69741 7.5 6.0492 -5707.43 13649.8 -143027 5072.18 22221.6 22049 -7.40848 
365 1 82.4904 8.67742 7.5 6.0492 13100 -4527.95 -145774 -5883.91 26344.9 9648.62 -7.40831 
368 1 85.3301 8.63743 7.5 6.04915 -5481.76 15035.8 -149744 1479.15 21837 7600.28 -7.40807 
369 1 86.7499 8.61744 7.5 6.04911 12627.1 -4669.67 -147204 -523.129 28276.4 1104.04 -7.40823 
288 1 0.138523 9.83707 7.5 6.04911 -6883.18 16122.1 -148565 -440.811 23357 -249.031 -7.40815 
289 1 1.55838 9.81708 7.5 6.04915 13188.3 -5540.82 -143630 2284.05 31627.2 -3105.64 -7.40844 
290 1 2.28563 11.0367 7.5 6.04915 -7913.36 17221.2 -145513 -2118.93 24465.7 -8099.98 -7.40833 
291 1 3.70549 11.0167 7.5 6.0492 13556.6 -6495.66 -139407 5004.45 33933.2 -6281.18 -7.4087 
292 1 4.3981 9.77709 7.5 6.0492 -6603.85 15314.9 -144898 -3917.34 23100.4 -15640.2 -7.40837 
293 1 5.81796 9.7571 7.5 6.0492 13221.9 -5083.37 -142481 7525.77 29004.1 -10571.4 -7.40851 
294 1 6.54521 10.9767 7.5 6.0492 -7907.72 15311.8 -138276 -5264.01 24108.4 -22672 -7.40876 