ITEM: TIMESTEP
0
ITEM: NUMBER OF ATOMS
23816
ITEM: BOX BOUNDS pp pp pp
0.0000000000000000e+00 1.3400400500000001e+02
0.0000000000000000e+00 2.3210174599999999e+02
0.0000000000000000e+00 1.5000000000000000e+01
ITEM: ATOMS id type x y z c_csym c_2[1] c_2[2] c_2[3] c_2[4] c_2[5] c_2[6] c_3 
215 1 0.788 8.589 3 6.02415 -150276 -132596 -154593 -25840.9 16000.6 -1733.92 -7.40765 
216 1 0.068 7.368 3 6.0234 -142714 -162988 -154969 -11462.4 16327.2 -183.09 -7.40782 
217 1 0.765 6.133 3 6.0237 -155207 -152129 -156484 -13927.3 11965.1 -1699.46 -7.40752 
218 1 0.045 4.912 3 6.02472 -137196 -143383 -156970 -26849.1 10785 -132.06 -7.40772 
219 1 0.743 3.677 3 6.02415 -146198 -136288 -157694 -25795.6 7568 -1606.45 -7.40747 
220 1 0.023 2.456 3 6.0234 -145811 -159292 -158133 -11565.1 5473.57 -88.3759 -7.40763 
221 1 0.72 1.221 3 6.02246 -150648 -156406 -158441 -13879.9 2538.21 -1539.16 -7.40741 
222 1 0 0 3 6.02651 -142212 -150714 -158522 -21776.3 -4.80977 -10.8083 -7.40744 
405 1 2.206 8.576 3 6.02466 -144149 -164273 -153595 26442.8 18758.6 -3637.21 -7.4077 
406 1 2.903 7.342 3 6.02466 -155664 -152406 -155019 22435.8 14075.5 -6750.82 -7.40761 
407 1 2.183 6.12 3 6.0242 -138504 -144642 -155933 14439.2 13304.7 -3969.75 -7.40758 
408 1 2.881 4.886 3 6.02421 -146602 -136399 -156599 10458.9 9879.05 -6568.58 -7.40755 
409 1 2.161 3.664 3 6.02466 -147052 -160642 -157485 26283.4 7976 -4150.25 -7.40746 
410 1 2.858 2.43 3 6.02466 -151218 -156731 -157645 22280.7 5181.32 -6355.71 -7.40742 
411 1 2.138 1.208 3 6.02423 -143661 -150233 -158169 19136.6 2459.6 -4417.1 -7.40744 
594 1 5.041 8.55 3 6.02341 -154829 -151369 -152879 -15005.6 16003.4 -11666.4 -7.40795 
595 1 4.321 7.329 3 6.02415 -138372 -144677 -154299 -21555.4 15622.1 -7562.67 -7.40767 
596 1 5.019 6.094 3 6.02468 -145858 -135389 -154703 -30478.9 12216.4 -11378.4 -7.40786 
597 1 4.299 4.873 3 6.02369 -146841 -160595 -156130 -9767.33 10254.9 -8097.46 -7.40754 
598 1 4.996 3.638 3 6.02341 -150730 -154980 -156169 -15258.8 7735.28 -11087.3 -7.40775 
599 1 4.276 2.417 3 6.02417 -141128 -141700 -157162 -21751.3 4855.87 -8593.06 -7.40747 
600 1 4.974 1.182 3 6.02405 -143626 -148016 -156929 -35592.2 3015.68 -10607.5 -7.40774 
783 1 6.459 8.537 3 6.02392 -126960 -132981 -152300 32029.1 17463.2 -10515.5 -7.40761 
784 1 7.157 7.303 3 6.02637 -146046 -139632 -151887 5944.68 14361 -16253.1 -7.40762 
785 1 6.437 6.081 3 6.0257 -136551 -148461 -154335 17082.9 12323 -11410.1 -7.40748 
786 1 7.135 4.847 3 6.02367 -184488 -122312 -153727 21998.5 10240.8 -15859.7 -7.40788 
787 1 6.414 3.625 3 6.02392 -130535 -128899 -155645 30708.1 6873.19 -12183.2 -7.40741 
788 1 7.112 2.391 3 6.02705 -141572 -143810 -154886 5513.87 5788.97 -15329.9 -7.4074 
789 1 6.392 1.169 3 6.02382 -141552 -154123 -156150 21574.6 1702.03 -12887 -7.40739 
972 1 9.295 8.511 3 6.02369 -157144 -151818 -148464 -19320.5 16391.7 -20775.9 -7.408 
973 1 8.575 7.29 3 6.02587 -135952 -147190 -152071 -19626.8 13983.4 -14351.1 -7.40781 
974 1 9.273 6.055 3 6.02413 -138497 -121640 -150464 -18407.2 12808.7 -20360 -7.40771 
975 1 8.552 4.834 3 6.02324 -177822 -128231 -153562 -3879.4 8814.2 -15467.1 -7.40789 
976 1 9.25 3.599 3 6.02629 -144023 -141284 -152258 -32495.3 8552.88 -19718.1 -7.40759 
977 1 8.53 2.378 3 6.02705 -138630 -146375 -154248 -20356.6 3548.71 -16426.1 -7.40743 
978 1 9.228 1.143 3 6.02391 -136213 -134032 -153257 -23752.4 4046.89 -19000.7 -7.40757 
11937 2 0.63 8.602 6.4 6.02572 -135008 -150114 -153691 -11393.2 18901.5 -1092.65 -7.40751 
11938 2 0.653 6.146 6.4 6.02391 -128760 -130506 -156083 -25140.7 13431 -1238.41 -7.40737 
11939 2 0.675 3.69 6.4 6.02572 -137906 -146462 -157635 -11316.9 8101.56 -1376.55 -7.40727 
11940 2 0.698 1.234 6.4 6.02331 -132134 -127618 -158357 -25645.1 2580.56 -1502.74 -7.40715 
11941 2 0 0 6.4 6.02712 -141886 -151381 -158517 -7581.3 7.26171 58.7678 -7.40745 
12123 2 2.048 8.615 6.4 6.02468 -148007 -133127 -154279 25737.5 16085.9 -4976.58 -7.40789 
12124 2 2.768 7.394 6.4 6.02369 -145250 -162488 -154717 15495.2 15994 -4784.38 -7.40762 
12125 2 2.071 6.159 6.4 6.0234 -152892 -152720 -156190 10268.9 12065.1 -4863.61 -7.40775 
12126 2 2.791 4.938 6.4 6.02415 -139702 -142969 -156632 27403.8 10592.6 -5227 -7.40753 
12127 2 2.093 3.703 6.4 6.02468 -143927 -136806 -157395 25487.1 7668.14 -4804.77 -7.4077 
12128 2 2.813 2.482 6.4 6.02369 -148361 -158829 -157732 15500 5189.15 -5638.08 -7.40744 
12129 2 2.116 1.247 6.4 6.02217 -148506 -157084 -158173 10091.9 2657.74 -4625.01 -7.4076 
12130 2 2.836 0.026 6.4 6.02417 -144843 -148421 -158071 22568.8 -132.67 -5953.13 -7.40747 
12312 2 4.884 8.641 6.4 6.02536 -134669 -147155 -152793 -6895.5 18078.3 -8092.29 -7.40798 
12313 2 4.186 7.407 6.4 6.0242 -148800 -134568 -154314 -15263.6 14331.5 -9758.72 -7.40768 
12314 2 4.906 6.185 6.4 6.02327 -142968 -163306 -154997 -22274.8 12905.2 -8896.19 -7.40782 
12315 2 4.209 4.951 6.4 6.02517 -153763 -154227 -155952 -27388.7 10142.8 -9531.8 -7.40755 
12316 2 4.929 3.729 6.4 6.02536 -137584 -143608 -156400 -6940.82 7440.18 -9558.73 -7.40777 
12317 2 4.231 2.495 6.4 6.0242 -144722 -138229 -157014 -15648.3 5482.35 -9273.89 -7.40752 
12318 2 4.951 1.273 6.4 6.02305 -145911 -160325 -157031 -22418.5 2237.28 -10213.7 -7.40767 
12319 2 4.254 0.039 6.4 6.0258 -151587 -166861 -157486 -22871 437.775 -8884.78 -7.40748 
12501 2 6.302 8.654 6.4 6.02629 -148430 -136867 -151625 22020.7 16359.7 -14664.4 -7.40763 
12502 2 7.022 7.433 6.4 6.02705 -135567 -149340 -152991 32584.3 14764.1 -11868.6 -7.40754 
12503 2 6.324 6.198 6.4 6.02413 -138786 -120705 -153514 7906.18 12631.1 -14370.7 -7.40753 
12504 2 7.045 4.977 6.4 6.02324 -177530 -128409 -154659 16221 9561.14 -12898.7 -7.40783 
12505 2 6.347 3.742 6.4 6.02629 -144339 -140424 -155008 21480 8173.4 -14029.7 -7.40742 
12506 2 7.067 2.521 6.4 6.02705 -138703 -145863 -155474 32446.7 4245.9 -13806.4 -7.40739 
12507 2 6.369 1.286 6.4 6.02401 -134363 -124944 -155853 7478.13 3491.77 -13536.7 -7.40736 
12508 2 7.09 0.065 6.4 6.02325 -182688 -134043 -155636 11213.7 -837.612 -14580.4 -7.40779 
12690 2 9.138 8.68 6.4 6.02392 -127217 -132830 -150571 -18379.5 16267.5 -14512.5 -7.40771 
12691 2 8.44 7.446 6.4 6.02705 -146368 -139636 -150432 -16198.6 14893.9 -18894.1 -7.4077 
12692 2 9.16 6.224 6.4 6.0257 -136177 -148996 -152397 -4649.24 11257.7 -15836.1 -7.40759 
12693 2 8.462 4.99 6.4 6.02367 -184818 -122276 -152309 -32793.9 10826.7 -18499.6 -7.40797 
12694 2 9.183 3.768 6.4 6.02392 -130173 -129527 -153372 -18538 5984.43 -17093.7 -7.40754 
12695 2 8.485 2.534 6.4 6.02705 -142262 -143112 -153558 -16843.8 6417.13 -17905.2 -7.40752 
12696 2 9.205 1.312 6.4 6.02445 -139148 -146277 -153710 -4937.49 987.071 -18119.7 -7.40748 
12697 2 8.507 0.078 6.4 6.02391 -182603 -134684 -154346 -28517.2 1510.74 -17189.7 -7.40787 
1161 1 10.713 8.498 3 6.0242 -137150 -146513 -149706 21130.3 15264.9 -16599.7 -7.40796 
1162 1 11.411 7.264 3 6.0242 -148540 -136534 -146445 5158.56 15031.1 -24653.2 -7.40816 
1163 1 10.691 6.042 3 6.02327 -143171 -163370 -151360 34586.6 10295 -17948.6 -7.40804 
1164 1 11.388 4.808 3 6.02517 -153459 -156020 -148552 16764.8 11236.8 -24025.6 -7.40799 
1165 1 10.668 3.586 3 6.02536 -137830 -143864 -152125 18999.2 5072.73 -19290.3 -7.40802 
1166 1 11.366 2.352 3 6.02416 -143376 -140071 -150121 4707.17 6984.54 -23210.3 -7.40803 
1167 1 10.646 1.13 3 6.01996 -148232 -169360 -152311 38963.6 113.959 -20348.6 -7.408 
1350 1 13.549 8.472 3 6.02468 -147835 -136140 -141718 -35328.9 17151 -28540.3 -7.40864 
1351 1 12.829 7.251 3 6.02369 -145338 -162717 -148646 -3384.14 11404.7 -20093.9 -7.40799 
1352 1 13.526 6.016 3 6.02341 -152663 -155455 -144262 -20387.7 13718 -27920 -7.40847 
1353 1 12.806 4.795 3 6.02415 -139842 -143536 -149572 -15492.6 6422.62 -21675.3 -7.40796 
1354 1 13.504 3.56 3 6.02217 -142196 -141710 -146309 -36321.8 9920.48 -27032.7 -7.40824 
1355 1 12.784 2.339 3 6.02587 -156887 -194492 -149780 15190.6 1440.23 -23039.8 -7.40796 
1356 1 13.481 1.105 3 6.01816 -149757 -168552 -147951 12340.3 5529.76 -25968.7 -7.40826 
1539 1 14.967 8.459 3 6.0257 -135082 -150420 -146027 23126.5 12232.8 -21491.2 -7.40798 
1540 1 15.665 7.225 3 6.02367 -186454 -123396 -138964 17351.1 15978.2 -31555.3 -7.40877 
1541 1 14.944 6.003 3 6.02392 -128898 -131282 -147048 36705.5 7309.99 -23350.2 -7.40792 
1542 1 15.642 4.769 3 6.02705 -143829 -143943 -141442 690.58 12606.6 -30681.9 -7.40824 
1543 1 14.922 3.547 3 6.02044 -136653 -150213 -147163 22862.1 2597.55 -25021.2 -7.40778 
1544 1 15.62 2.313 3 6.02303 -190396 -159616 -143616 -2403.77 8649.22 -29586.5 -7.40867 
1545 1 14.899 1.092 3 6.02276 -134526 -136587 -146779 2775 -2232.68 -26498 -7.40796 
1727 1 17.105 9.668 3 6.02705 -134388 -150865 -143251 -14414.7 12686.5 -22457.1 -7.40812 
1728 1 17.803 8.433 3 6.02413 -140512 -123307 -133011 -22521.9 18221.5 -34720.6 -7.40876 
1729 1 17.082 7.212 3 6.02324 -176203 -130465 -144129 1735.93 8088.77 -24577.4 -7.40846 
1730 1 17.78 5.977 3 6.02629 -145970 -142591 -136183 -36845.6 15164.7 -33802.4 -7.40856 
1731 1 17.06 4.756 3 6.02705 -137243 -148424 -144326 -14829.6 3380.31 -26480.2 -7.40806 
1732 1 17.758 3.521 3 6.02217 -134781 -128511 -138647 -23677.8 11709.6 -32751.8 -7.4083 
1733 1 17.037 2.3 3 6.02304 -187103 -162215 -143826 20012.6 -1224.42 -28240 -7.40866 
1734 1 17.735 1.066 3 6.02202 -142965 -155166 -141036 -4292.84 7699.78 -31355.5 -7.40829 
12879 2 10.556 8.693 6.4 6.02341 -155178 -152453 -146460 5109.56 17007.5 -23293 -7.40833 
12880 2 11.276 7.472 6.4 6.02415 -137922 -145344 -150012 33896.7 12572.3 -18065.2 -7.40793 
12881 2 10.578 6.237 6.4 6.02468 -146193 -136334 -148539 20043.6 13464.6 -22876.6 -7.40823 
12882 2 11.298 5.016 6.4 6.02369 -146410 -161500 -151201 21889.9 7546.95 -19587.2 -7.40783 
12883 2 10.601 3.781 6.4 6.02341 -151041 -155780 -150421 4319.6 9270.78 -22183.7 -7.4081 
12884 2 11.321 2.56 6.4 6.02415 -141097 -142200 -151574 33641.7 2526.32 -20961.2 -7.40784 
12885 2 10.623 1.325 6.4 6.02404 -141733 -140320 -151511 19392.9 4813.36 -21456.7 -7.40802 
12886 2 11.343 0.104 6.4 6.02493 -151629 -167477 -151253 16730 -2379.29 -22131 -7.40785 
13068 2 13.391 8.719 6.4 6.02327 -141236 -165561 -147230 -16044.9 13652.5 -19868.4 -7.40829 
13069 2 12.694 7.485 6.4 6.02517 -156040 -154365 -144261 -32408.4 15827.3 -26796.2 -7.40825 
13070 2 13.414 6.263 6.4 6.02536 -135666 -146243 -148517 -782.595 8688.07 -21672.9 -7.40824 
13071 2 12.716 5.029 6.4 6.0242 -146942 -138115 -146415 -20929.3 12118 -26142.6 -7.40816 
13072 2 13.436 3.807 6.4 6.02327 -144219 -162665 -148960 -16300.7 3884.91 -23338.5 -7.40819 
13073 2 12.739 2.573 6.4 6.02517 -151891 -157571 -148125 -33248.1 7927.99 -25263 -7.40802 
13074 2 13.459 1.351 6.4 6.02475 -138709 -143871 -148848 -1196.62 -998.187 -24685.5 -7.40819 
13075 2 12.761 0.117 6.4 6.02418 -144669 -150226 -149313 -16806.4 3355.64 -24238.5 -7.40801 
13257 2 14.809 8.732 6.4 6.02413 -141072 -121498 -138905 3345.2 18016.6 -30541.5 -7.40841 
13258 2 15.53 7.511 6.4 6.02324 -175660 -130872 -145928 22044.4 9625.16 -23049.2 -7.40835 
13259 2 14.832 6.276 6.4 6.02629 -146589 -140913 -141503 16660.9 14652.4 -29865 -7.40823 
13260 2 15.552 5.055 6.4 6.02705 -136677 -148743 -146393 38204.6 4828.75 -24965.4 -7.40794 
13261 2 14.854 3.82 6.4 6.02413 -136883 -124493 -143712 2363.21 10969 -28973 -7.40812 
13262 2 15.575 2.599 6.4 6.02324 -178888 -128187 -146150 21685.3 188.634 -26721 -7.40834 
13263 2 14.877 1.364 6.4 6.02505 -142085 -144515 -145554 15847.5 6641.26 -27797.3 -7.40796 
13264 2 15.597 0.143 6.4 6.02768 -141932 -155116 -145176 32925.2 -4426.35 -28242.6 -7.40803 
13446 2 17.645 8.758 6.4 6.0257 -134360 -151227 -143141 755.874 10183 -23935.3 -7.40815 
13447 2 16.947 7.524 6.4 6.02367 -187099 -123370 -136117 -37103.5 17026.1 -33118.6 -7.40895 
13448 2 17.668 6.302 6.4 6.02392 -128182 -132246 -143522 -13165.4 5498.92 -26159.7 -7.40813 
13449 2 16.97 5.068 6.4 6.02705 -144468 -143855 -138717 -21371.4 13737.6 -32166.5 -7.40841 
13450 2 17.69 3.846 6.4 6.0257 -137388 -148804 -143356 431.674 1008.8 -28095.6 -7.40814 
13451 2 16.992 2.612 6.4 6.02367 -182888 -126192 -141001 -38099 9857.61 -31091 -7.40865 
13452 2 17.713 1.39 6.4 6.02332 -131279 -130335 -142444 -13670.9 -3516.1 -29855.4 -7.40816 
13453 2 17.015 0.156 6.4 6.0283 -142134 -155561 -142708 -17384.2 5721.74 -29721.6 -7.40819 
13635 2 19.063 8.771 6.4 6.02468 -150046 -138554 -129655 14396.8 19264.1 -36037.8 -7.40912 
13637 2 19.086 6.315 6.4 6.02341 -153278 -157107 -132922 323.166 16303.8 -35062.2 -7.40915 
13639 2 19.108 3.859 6.4 6.02468 -144225 -140631 -135539 15144 12967.6 -34003.3 -7.40901 
13641 2 19.131 1.403 6.4 6.02217 -148704 -160274 -138206 -596.364 9057.95 -32522.2 -7.4088 
1916 1 19.941 9.642 3 6.02421 -150592 -138787 -126444 1581.63 20053.7 -37495.5 -7.40936 
1917 1 19.221 8.42 3 6.02327 -141581 -165347 -141707 39710.1 8456.5 -25032.8 -7.40862 
1918 1 19.918 7.186 3 6.02517 -155446 -157891 -129852 12963.3 17504.3 -36614.4 -7.40912 
1919 1 19.198 5.964 3 6.02536 -136084 -146357 -141736 24118.4 3837.65 -27273.6 -7.40865 
1920 1 19.896 4.73 3 6.02421 -146278 -141303 -132946 560.676 14426 -35541.1 -7.40897 
1921 1 19.176 3.508 3 6.01937 -143238 -165606 -141237 39401 -563.836 -29179.5 -7.40853 
1922 1 19.873 2.274 3 6.02587 -159359 -193768 -135741 -6957.43 10906.8 -34193.1 -7.40893 
1923 1 19.153 1.053 3 6.02276 -141829 -152237 -139948 -9910.97 -4998.51 -31021.8 -7.40877 
2105 1 21.359 9.629 3 6.02369 -143789 -164404 -139150 1200.16 8532.71 -25195.8 -7.40856 
2106 1 22.056 8.394 3 6.02341 -154699 -157893 -123138 -23603.7 19617.4 -38985.3 -7.40974 
2107 1 21.336 7.173 3 6.02415 -138116 -145800 -138995 -10883.2 4156.59 -27604.9 -7.40859 
2108 1 22.034 5.938 3 6.02468 -145585 -141257 -126765 -39469.3 17027.3 -37891.2 -7.40954 
2109 1 21.314 4.717 3 6.02369 -146695 -162502 -138287 755.192 -200.076 -29768.1 -7.40861 
2110 1 22.011 3.482 3 6.01853 -148898 -162610 -130044 -24860.2 13832.8 -36589.4 -7.4092 
2111 1 21.291 2.261 3 6.02419 -149098 -178040 -136944 7352.39 -4490.64 -31764.9 -7.40889 
2112 1 21.989 1.027 3 6.02364 -142519 -153343 -133013 -7007.17 10340.6 -35030.8 -7.40919 
2294 1 24.195 9.603 3 6.02367 -188541 -126349 -115726 14715.4 21510.5 -40983.3 -7.41017 
2295 1 23.474 8.381 3 6.02392 -127215 -133313 -136710 40722.4 4099.9 -27426.4 -7.40854 
2296 1 24.172 7.147 3 6.02705 -145821 -146488 -119590 -2127.64 19316.6 -39976.2 -7.40956 
2297 1 23.452 5.925 3 6.0257 -136286 -150233 -135787 26725.1 -30.5625 -29755.7 -7.40859 
2298 1 24.15 4.691 3 6.02367 -184123 -128432 -123415 13607.8 16539.7 -38680.9 -7.40971 
2299 1 23.429 3.469 3 6.02094 -128919 -134062 -134370 40391.9 -4275.81 -31953.5 -7.40856 
2300 1 24.127 2.235 3 6.02772 -149655 -181892 -126860 -22113 13485.9 -37144.7 -7.40929 
2301 1 23.407 1.014 3 6.02153 -142080 -156631 -132257 -7331.51 -8139.51 -33916.1 -7.40882 
2483 1 25.612 9.59 3 6.02324 -174569 -132165 -134536 5153.95 4030.3 -26886.9 -7.40904 
2484 1 26.31 8.355 3 6.02629 -148004 -145688 -112214 -39047.4 21438.4 -41527.3 -7.41 
2485 1 25.59 7.134 3 6.02705 -135435 -150726 -133328 -11367.5 -84.6525 -29362.8 -7.40872 
2486 1 26.288 5.899 3 6.02413 -138187 -128651 -116363 -25758.4 19202.1 -40328.4 -7.40977 
2487 1 25.567 4.678 3 6.02324 -177529 -130790 -131600 4691.55 -4088.37 -31723.3 -7.40921 
2488 1 26.265 3.443 3 6.01966 -142125 -149910 -120601 -40343.2 16415.6 -38792.4 -7.40937 
2489 1 25.545 2.222 3 6.02772 -146455 -183499 -129369 6852.2 -8035.84 -33817.3 -7.40913 
2490 1 26.243 0.988 3 6.02214 -135084 -140310 -124185 6624.9 13271.3 -37145.3 -7.40931 
2672 1 28.448 9.564 3 6.02517 -157529 -161470 -104224 11340.1 23312.6 -42772.6 -7.41066 
2673 1 27.728 8.342 3 6.02536 -134348 -148432 -131453 26944.1 -364.345 -28576 -7.40927 
2674 1 28.426 7.108 3 6.02421 -148262 -144448 -108715 -1174.07 21470.5 -41583.4 -7.41043 
2675 1 27.706 5.886 3 6.02327 -142767 -165722 -129692 42082.9 -4202.65 -30932.7 -7.40935 
2676 1 28.403 4.652 3 6.02517 -153022 -163055 -113349 10234 19121.8 -40118.9 -7.41011 
2677 1 27.683 3.43 3 6.02179 -136078 -149714 -127057 26590.4 -8093.08 -33271.1 -7.40941 
2678 1 28.381 2.196 3 6.02416 -152021 -179342 -117577 -21181.7 16355.5 -38483.1 -7.41006 
2679 1 27.661 0.975 3 6.01977 -148578 -172553 -124244 8001.68 -11620.7 -35303.7 -7.40969 
13636 2 19.783 7.55 6.4 6.02125 -144468 -163941 -141151 26781.3 6001.59 -26589.5 -7.40844 
13638 2 19.806 5.094 6.4 6.02415 -139002 -145154 -140750 38508.6 1541.88 -28811.4 -7.40849 
13640 2 19.828 2.638 6.4 6.02369 -147744 -161756 -139754 26358.6 -2807.12 -30821.4 -7.40852 
13642 2 19.851 0.182 6.4 6.02417 -144315 -152016 -138001 33157.2 -7000.83 -32627.7 -7.40868 
13824 2 21.899 8.797 6.4 6.02418 -143059 -180194 -138513 18998 6154.35 -26668.9 -7.40907 
13825 2 21.201 7.563 6.4 6.02364 -147758 -142534 -126417 -24545.2 18747.7 -37565.1 -7.40923 
13826 2 21.921 6.341 6.4 6.02327 -142167 -165366 -137989 -11934.5 1944.85 -29079.9 -7.40884 
13827 2 21.224 5.107 6.4 6.02517 -154065 -159035 -129736 -36859.9 15786.6 -36419.1 -7.40913 
13828 2 21.944 3.885 6.4 6.02536 -136863 -146497 -136913 3208.61 -2383.32 -31302.6 -7.40894 
13829 2 21.246 2.651 6.4 6.0242 -144916 -142395 -132618 -25435.9 12369.5 -35097.7 -7.40899 
13830 2 21.966 1.429 6.4 6.02305 -145306 -163970 -135295 -12490.7 -6383.11 -33256.5 -7.40897 
13831 2 21.269 0.195 6.4 6.0258 -151660 -170273 -135083 -32950.3 8559.67 -33510.1 -7.40883 
14013 2 23.317 8.81 6.4 6.02587 -165875 -191126 -119187 -17673.2 20856.5 -39703.7 -7.40996 
14014 2 24.037 7.589 6.4 6.02238 -133369 -151680 -135755 41845.9 1998.59 -28826 -7.40867 
14015 2 23.339 6.354 6.4 6.02413 -139094 -126562 -122868 -658.452 18402.4 -38627.4 -7.40937 
14016 2 24.06 5.133 6.4 6.02324 -176729 -131124 -134480 25495.7 -2082.82 -31216.9 -7.40904 
14017 2 23.362 3.898 6.4 6.02629 -144531 -145531 -126293 12611.2 15320.7 -37287.3 -7.40915 
14018 2 24.082 2.677 6.4 6.02705 -138003 -149481 -132535 41527.7 -6153.58 -33409 -7.40877 
14019 2 23.384 1.442 6.4 6.02401 -134441 -129249 -129637 -1634.88 11982.1 -35701.2 -7.40893 
14020 2 24.105 0.221 6.4 6.02325 -182079 -138520 -129990 20104.7 -9891.91 -35393.2 -7.40933 
14202 2 26.153 8.836 6.4 6.02418 -134188 -167635 -133423 7920.48 1880.66 -28239.7 -7.40895 
14203 2 25.455 7.602 6.4 6.02044 -145236 -149007 -115707 -23984.5 20713.3 -40326 -7.40967 
14204 2 26.175 6.38 6.4 6.0257 -135301 -151485 -132091 3651.33 -2039.05 -30708.8 -7.40881 
14205 2 25.477 5.146 6.4 6.02367 -185024 -128340 -119702 -40656 18098.6 -39063 -7.40994 
14206 2 26.198 3.924 6.4 6.02392 -129386 -132979 -129855 -10379.2 -6039.88 -33103.7 -7.40896 
14207 2 25.5 2.69 6.4 6.02705 -142330 -148357 -123374 -24909.3 15138.5 -37488.9 -7.40933 
14208 2 26.22 1.468 6.4 6.02445 -138465 -150623 -127534 3063.17 -9702.19 -35161.6 -7.40905 
14209 2 25.522 0.234 6.4 6.02391 -182540 -139053 -126602 -36790.3 11683.9 -35792 -7.40954 
14391 2 27.571 8.849 6.4 6.02303 -163548 -194065 -107896 -20333.9 22803.1 -41703.2 -7.41085 
14392 2 28.291 7.628 6.4 6.02217 -135573 -150007 -130245 41363.7 -2181.33 -29810.9 -7.409 
14393 2 27.593 6.393 6.4 6.02468 -146395 -143360 -112136 13193.8 20693.9 -40477.1 -7.41042 
14394 2 28.313 5.172 6.4 6.02369 -145557 -164692 -128043 28986.7 -6010.08 -32245.5 -7.40923 
14395 2 27.616 3.937 6.4 6.02341 -151096 -161926 -116556 -2713.52 18043.2 -38920.3 -7.41014 
14396 2 28.336 2.716 6.4 6.02415 -140331 -146408 -125059 40608.3 -9729.96 -34541.7 -7.40943 
14397 2 27.638 1.481 6.4 6.02404 -141676 -145537 -120511 12207.8 15051.9 -37264.4 -7.40988 
14398 2 28.358 0.26 6.4 6.02493 -150939 -172643 -121640 23569.7 -13171.6 -36591.3 -7.40963 
2861 1 29.866 9.551 3 6.02415 -136498 -147606 -129857 -8676.62 -624.92 -27460.3 -7.40914 
2862 1 30.564 8.316 3 6.02468 -147617 -144952 -100755 -40580.5 23595.3 -42485.8 -7.41111 
2863 1 29.844 7.095 3 6.02369 -144843 -164899 -127533 3005.49 -4468.68 -29973.1 -7.40926 
2864 1 30.541 5.86 3 6.02341 -152272 -163335 -105859 -25809.1 21602.5 -41087.7 -7.41078 
2865 1 29.821 4.639 3 6.02415 -139432 -146735 -124813 -9170.28 -8204.42 -32347.1 -7.40944 
2866 1 30.519 3.404 3 6.02217 -143970 -148165 -110722 -40128.4 19252 -39494.8 -7.41017 
2867 1 29.799 2.183 3 6.02392 -155898 -198304 -121559 21249.7 -11782.4 -34537.6 -7.40979 
2868 1 30.496 0.949 3 6.02149 -151463 -173947 -115364 4948.79 16330.6 -37716.1 -7.41001 
3050 1 32.702 9.525 3 6.02705 -147902 -150667 -92267.6 -2659.02 25357.4 -43080.7 -7.41121 
3051 1 31.982 8.303 3 6.0257 -134529 -152474 -126237 28321.9 -4820.63 -28665.7 -7.40916 
3052 1 32.68 7.069 3 6.02367 -186102 -132167 -97546.1 13025.9 23844.3 -41755.2 -7.41127 
3053 1 31.959 5.847 3 6.02392 -128417 -134336 -123234 41852.3 -8550.73 -31154.5 -7.40936 
3054 1 32.657 4.613 3 6.02587 -143428 -149838 -102983 -3345.37 21835.5 -40222 -7.41078 
3055 1 31.937 3.391 3 6.02023 -145248 -168336 -119797 40644.2 -11979.5 -33351.2 -7.40961 
3056 1 32.634 2.157 3 6.02304 -156482 -199697 -108226 -7815.65 19362.7 -38458.1 -7.4108 
3057 1 31.914 0.936 3 6.02276 -143850 -155808 -115710 -5230.43 -15306.5 -35567.8 -7.41002 
3239 1 34.12 9.512 3 6.02705 -133851 -152760 -125179 -10376.2 -5236.17 -27217.9 -7.40921 
3240 1 34.818 8.277 3 6.02413 -140201 -132935 -89067.6 -25751.7 25869.7 -42053.8 -7.41142 
3241 1 34.097 7.056 3 6.02324 -175649 -133398 -121654 5710.03 -8828.37 -29694.4 -7.40982 
3242 1 34.795 5.821 3 6.02629 -145485 -151239 -95182.4 -40134.3 24226.5 -40548 -7.41103 
3243 1 34.075 4.6 3 6.02705 -136760 -152375 -117947 -10891 -12277 -31977.1 -7.40964 
3244 1 34.773 3.365 3 6.02217 -133531 -136800 -100727 -25971.3 22159.3 -38974 -7.41059 
3245 1 34.052 2.144 3 6.02418 -138496 -168508 -113557 23508.1 -15586 -34206.9 -7.41011 
3246 1 34.75 0.91 3 6.02231 -141686 -162403 -106457 -8733.63 19566.1 -37126.8 -7.41037 
3428 1 36.956 9.486 3 6.02421 -150338 -149206 -80436.9 -613.18 27578.6 -41953.4 -7.41214 
3429 1 36.236 8.264 3 6.02327 -141069 -168216 -121125 42475.1 -9228.15 -27949.9 -7.40986 
3430 1 36.933 7.03 3 6.02517 -154987 -167373 -86636 10766.5 26355.3 -40540.5 -7.41173 
3431 1 36.213 5.808 3 6.02536 -135582 -150225 -116942 26840.9 -12689.1 -30358.9 -7.41014 
3432 1 36.911 4.574 3 6.02418 -145038 -149437 -92794.5 -1435.92 24629.5 -39026.4 -7.41151 
3433 1 36.191 3.352 3 6.01691 -142762 -170474 -112532 42100.7 -15865.7 -32505.9 -7.41025 
3434 1 36.888 2.118 3 6.02587 -159329 -201648 -98953.4 -8983.92 22454.6 -37303.7 -7.41102 
3435 1 36.168 0.897 3 6.02276 -141405 -158124 -107393 -7190.27 -18899 -34669.2 -7.41073 
14580 2 30.406 8.875 6.4 6.02392 -151239 -199687 -128473 10710.2 -2360.52 -28633.5 -7.4094 
14581 2 29.709 7.641 6.4 6.02023 -154812 -164821 -104493 -38391.7 22995.2 -41493.3 -7.41053 
14582 2 30.429 6.419 6.4 6.02421 -137086 -148708 -126034 3466.85 -6161.23 -31169.1 -7.40938 
14583 2 29.731 5.185 6.4 6.02421 -147007 -145185 -109200 -26862.6 20811.7 -40056.5 -7.4104 
14584 2 30.451 3.963 6.4 6.02466 -145744 -166067 -122887 -8707.72 -9734.91 -33529.5 -7.40954 
14585 2 29.754 2.729 6.4 6.02466 -151804 -163692 -113761 -39308.2 18168.4 -38396.8 -7.4101 
14586 2 30.474 1.507 6.4 6.02422 -140270 -148361 -119468 2857.87 -13222.8 -35714 -7.40974 
14587 2 29.776 0.273 6.4 6.02418 -144471 -155412 -117856 -22971.8 15127.9 -36564 -7.4099 
14769 2 31.824 8.888 6.4 6.02418 -158924 -178233 -95883 -7116.79 25039.9 -42290.5 -7.4114 
14770 2 32.544 7.667 6.4 6.01853 -140032 -169218 -124764 28070.7 -6301 -29748.8 -7.40951 
14771 2 31.847 6.432 6.4 6.02369 -155636 -162859 -101135 -868.058 23210.6 -40841.5 -7.41086 
14772 2 32.567 5.211 6.4 6.02468 -136060 -148684 -121403 42898.2 -9988.3 -32255.7 -7.40987 
14773 2 31.869 3.976 6.4 6.02415 -146407 -145731 -106163 10495.4 21012.1 -39283.9 -7.41057 
14774 2 32.589 2.755 6.4 6.02341 -144765 -166119 -117600 27272.2 -13365.1 -34467.5 -7.41007 
14775 2 31.892 1.52 6.4 6.02245 -150847 -164546 -111348 -1831.31 18279.8 -37432 -7.4102 
14776 2 32.612 0.299 6.4 6.02532 -141435 -157116 -113058 37477.1 -16539 -36592.2 -7.41039 
14958 2 34.66 8.914 6.4 6.02772 -141529 -187133 -123652 24425.7 -6680.31 -28216.3 -7.40951 
14959 2 33.962 7.68 6.4 6.02154 -137551 -136120 -92877.6 -40676.8 25409.2 -41346.6 -7.41107 
14960 2 34.683 6.458 6.4 6.02392 -126717 -136448 -119919 -10627.6 -10248.3 -30714 -7.40956 
14961 2 33.985 5.224 6.4 6.02637 -144369 -151817 -98524.5 -25182.5 23591.8 -39767.4 -7.41083 
14962 2 34.705 4.002 6.4 6.02637 -136001 -153995 -115931 4973.18 -13546 -32963.1 -7.40978 
14963 2 34.007 2.768 6.4 6.02392 -134468 -134480 -103845 -41540.9 21316.1 -38107.5 -7.41053 
14964 2 34.728 1.546 6.4 6.02332 -129865 -136598 -111341 -11255.1 -16740.3 -35189.1 -7.41004 
14965 2 34.03 0.312 6.4 6.02763 -141796 -161553 -109002 -21264.3 18579.7 -36186.7 -7.41022 
15147 2 36.078 8.927 6.4 6.02654 -156453 -183413 -83980.2 -5612.76 27352.2 -41415.4 -7.41212 
15148 2 36.798 7.706 6.4 6.01881 -142252 -169833 -119541 29416.5 -10493.2 -28899.4 -7.40962 
15149 2 36.101 6.471 6.4 6.02341 -153168 -165967 -90249.2 -2409.76 25879.4 -39904.3 -7.41172 
15150 2 36.821 5.25 6.4 6.02415 -138211 -149606 -115056 40814.9 -13867.6 -31262.4 -7.41004 
15151 2 36.123 4.015 6.4 6.02468 -143978 -148528 -95972.8 12419.6 23982 -38348 -7.4114 
15152 2 36.843 2.794 6.4 6.02369 -146951 -167204 -110224 28620.8 -17022.7 -33416.2 -7.4103 
15153 2 36.146 1.559 6.4 6.02217 -148356 -167165 -102127 -3320.79 21572.2 -36521.9 -7.41097 
15154 2 36.866 0.338 6.4 6.02417 -143559 -158520 -104710 35392.7 -19895.4 -35457.5 -7.41069 
15337 2 38.216 7.719 6.4 6.02179 -147660 -152293 -81611 -26177.7 27963.1 -39776.8 -7.41195 
15339 2 38.239 5.263 6.4 6.02466 -153804 -167834 -88097.6 -38448.7 26422.8 -38246.1 -7.41165 
15341 2 38.261 2.807 6.4 6.02421 -144536 -150217 -94278.1 -26997.3 24400.7 -36568.8 -7.41131 
15343 2 38.284 0.351 6.4 6.02467 -151220 -177099 -100368 -34485.8 21985.3 -34762.4 -7.41092 
3617 1 38.374 9.473 3 6.02341 -143340 -167256 -120651 2808.86 -9630.22 -26148.9 -7.40967 
3618 1 39.071 8.238 3 6.02341 -156637 -167609 -78006.7 -26390.3 28223.9 -40208.7 -7.41226 
3619 1 38.351 7.017 3 6.02415 -137629 -149638 -116134 -9335.94 -13020.6 -28463.9 -7.40997 
3620 1 39.049 5.782 3 6.02217 -145884 -152558 -84741.4 -39040.9 26904.1 -38777.1 -7.41175 
3621 1 38.329 4.561 3 6.02392 -154893 -201473 -111316 21276.2 -16229 -30696.5 -7.41031 
3622 1 39.026 3.327 3 6.0183 -150021 -171403 -91442.5 10613.8 24991.6 -37221 -7.41132 
3623 1 38.306 2.105 3 6.02419 -139411 -150721 -106019 28053.4 -19259.4 -32792.4 -7.41068 
3624 1 39.004 0.871 3 6.02424 -145545 -157684 -97800.2 -6507.72 22798.1 -35474.3 -7.41123 
3806 1 41.209 9.447 3 6.02327 -154845 -170604 -69155.2 13789.9 29786.3 -39480.5 -7.413 
3807 1 40.489 8.225 3 6.0242 -136386 -151208 -116069 28048.3 -13464.5 -26521.6 -7.40999 
3808 1 41.187 6.991 3 6.02536 -145510 -152816 -75978.8 -2082.7 28839 -38177 -7.41263 
3809 1 40.467 5.769 3 6.02023 -143350 -171650 -111105 39911.9 -16575.3 -28637.7 -7.41013 
3810 1 41.164 4.535 3 6.02303 -158707 -203525 -83200.3 -6132.62 27351.8 -36677.9 -7.41234 
3811 1 40.444 3.314 3 6.02217 -138599 -152964 -105422 -10505.2 -19587.5 -30824.9 -7.41049 
3812 1 41.142 2.079 3 6.02404 -141155 -152631 -90059.2 -40740.3 25460.2 -35111 -7.41173 
3813 1 40.422 0.858 3 6.02493 -151996 -174934 -99561.1 5942.07 -22320.4 -32710.7 -7.41109 
3995 1 42.627 9.434 3 6.02413 -126103 -137423 -116297 3965.23 -13772.9 -24382.7 -7.40977 
3996 1 43.325 8.199 3 6.02773 -146954 -157177 -67421.1 -39030.5 30518.9 -37198.2 -7.41271 
3997 1 42.605 6.978 3 6.02773 -135041 -155581 -110911 -12205.7 -16932.4 -26478.4 -7.41007 
3998 1 43.303 5.743 3 6.02217 -135461 -141735 -74733.9 -23808.5 29432.2 -35892 -7.41217 
3999 1 42.582 4.522 3 6.02418 -136880 -171585 -104877 22199.6 -19941.2 -28581.7 -7.41067 
4000 1 43.28 3.288 3 6.02044 -140286 -160449 -82499.4 -1986.24 27769.6 -34435.7 -7.41168 
4001 1 42.56 2.066 3 6.02512 -137389 -157480 -98797.7 24985.8 -22724.3 -30494.3 -7.41079 
4002 1 43.258 0.832 3 6.02424 -135179 -146500 -89533.6 8735.69 25806.5 -32850.5 -7.41154 
4184 1 45.463 9.408 3 6.02517 -157090 -173044 -58442.9 13373.9 31890.5 -35814.6 -7.41345 
4185 1 44.743 8.186 3 6.02536 -134073 -153336 -111467 24964.6 -17238.7 -24192.8 -7.41048 
4186 1 45.441 6.952 3 6.02421 -147682 -155139 -66248.1 984.713 31167.1 -34591.1 -7.41301 
4187 1 44.721 5.73 3 6.01937 -140946 -174053 -105574 40246.5 -20197.8 -26158.8 -7.41067 
4188 1 45.418 4.496 3 6.02587 -160927 -205581 -74056.4 -6448.55 29918.1 -33274 -7.41269 
4189 1 44.698 3.275 3 6.02217 -136209 -155507 -98851.1 -13558 -22946.3 -28111.9 -7.4111 
4190 1 45.396 2.04 3 6.02403 -143311 -154564 -81936.6 -37597.3 28254.3 -31833.4 -7.41201 
4191 1 44.676 0.819 3 6.02394 -149521 -177744 -92134.2 6317.17 -25507.6 -29853.9 -7.41175 
4373 1 46.881 9.395 3 6.02415 -136360 -152552 -112618 -11771.2 -17424 -21760 -7.41018 
4374 1 47.579 8.16 3 6.02415 -149352 -155762 -57671.8 -35708.7 32678.2 -32874.4 -7.41352 
4375 1 46.859 6.939 3 6.02341 -144584 -170731 -106296 -128.298 -20407.3 -23635.5 -7.41054 
4376 1 47.556 5.704 3 6.01853 -152528 -175679 -66057 -24458.6 31746.9 -31734.1 -7.41286 
4377 1 46.836 4.483 3 6.02418 -147065 -187122 -99300.3 6478.91 -23220.2 -25456.6 -7.41119 
4378 1 47.534 3.249 3 6.02179 -142708 -158644 -74366.6 1448.51 30365.5 -30528 -7.41238 
4379 1 46.814 2.027 3 6.02391 -146867 -173163 -92166.4 37129.4 -25827.4 -27188.5 -7.41137 
4380 1 47.511 0.793 3 6.02467 -152255 -180140 -82420.7 8228.87 28501.3 -29109.5 -7.41213 
15336 2 38.914 8.953 6.4 6.02418 -144003 -184014 -119026 22030.7 -10841.1 -27006.5 -7.41 
15338 2 38.936 6.497 6.4 6.02466 -143806 -169122 -114373 -9101.4 -14077.1 -29295.1 -7.41006 
15340 2 38.959 4.041 6.4 6.02421 -138436 -151315 -109459 2550.08 -17255.5 -31515.1 -7.41038 
15342 2 38.981 1.585 6.4 6.02391 -146901 -169710 -103826 -9729.57 -20111 -33573.6 -7.41066 
15525 2 40.332 8.966 6.4 6.02587 -165782 -201755 -72641 -18283.8 29710.4 -39218.9 -7.41278 
15526 2 41.052 7.745 6.4 6.02217 -132893 -154071 -114492 42167.7 -14423.9 -27276.3 -7.41016 
15527 2 40.354 6.51 6.4 6.02415 -148447 -150420 -79322.2 11893.6 28550.7 -37849.8 -7.4122 
15528 2 41.074 5.289 6.4 6.02341 -142741 -169543 -109181 26308.6 -17528.3 -29397.7 -7.41058 