ITEM: TIMESTEP
234
ITEM: NUMBER OF ATOMS
23816
ITEM: BOX BOUNDS pp pp pp
0.0000000000000000e+00 1.3400400500000001e+02
0.0000000000000000e+00 2.3210174599999999e+02
0.0000000000000000e+00 1.5000000000000000e+01
ITEM: ATOMS id type x y z c_csym c_2[1] c_2[2] c_2[3] c_2[4] c_2[5] c_2[6] c_3 
215 1 0.847873 8.58284 2.84984 6.02084 -166841 -149971 -646.377 -14784.8 10010.4 -1878.86 -7.41142 
216 1 0.119858 7.36624 2.8475 6.02557 -153996 -163238 1094.18 -10799.8 12097.5 -609.568 -7.41147 
217 1 0.809116 6.12716 2.8455 6.02383 -164786 -152292 3.31619 -8042.31 8013 -1712.84 -7.41133 
218 1 0.0805664 4.91084 2.8437 6.02725 -155448 -161950 592.623 -4871.72 8138.87 -418.811 -7.41132 
219 1 0.769404 3.67155 2.84237 6.02638 -162475 -155001 293.688 -3156.72 5262.94 -1514.3 -7.41126 
220 1 0.0404815 2.45544 2.84127 6.02899 -156999 -160514 391.454 -1195.76 4028.26 -206.726 -7.41123 
221 1 0.729084 1.21603 2.84072 6.02925 -159969 -157570 359.608 -667.265 1852.26 -1267.97 -7.41121 
222 1 -7.24327e-06 4.76556e-06 2.84044 6.03063 -158608 -158693 357.6 -31.3487 1.43943 -0.137541 -7.41121 
405 1 2.26553 8.55959 2.8503 6.02243 -160551 -156520 1270.8 -11867.8 13677 -2618.17 -7.41158 
406 1 2.9548 7.32047 2.84844 6.02249 -172024 -144961 38.6672 -10917.2 8951.2 -5665.99 -7.41142 
407 1 2.22676 6.10385 2.84601 6.02435 -160048 -157269 642.238 -5073.72 9841.71 -2909.28 -7.4114 
408 1 2.91562 4.86455 2.84475 6.02473 -167949 -149492 393.505 -5121.35 6638 -5377.89 -7.41134 
409 1 2.18705 3.64822 2.84291 6.02618 -159516 -157961 371.294 -231.53 5774.84 -3126.84 -7.41128 
410 1 2.87567 2.4088 2.84237 6.02747 -163414 -154138 451.638 -1441.52 3608.12 -4977.51 -7.41127 
411 1 2.14673 1.19268 2.84128 6.02787 -158945 -158484 335.766 2193.74 1679.3 -3281.75 -7.41123 
594 1 5.09981 8.51448 2.85254 6.02074 -180665 -136233 457.32 -12492.3 9722.65 -9460.39 -7.41158 
595 1 4.37242 7.29746 2.84963 6.02004 -166329 -150751 381.68 -4069.39 11095.6 -4844.67 -7.41149 
596 1 5.06131 6.05813 2.84847 6.02325 -174750 -142330 804.694 -5744.15 7894.86 -9139.75 -7.41148 
597 1 4.33325 4.84149 2.84602 6.0229 -163956 -153462 122.391 1944.31 7150.84 -5501.57 -7.41136 
598 1 5.02189 3.60208 2.84552 6.02579 -168494 -148913 784.144 -920.465 5328.81 -8657.14 -7.41139 
599 1 4.2933 2.38573 2.8437 6.02512 -161332 -156122 167.795 5641.59 3093.62 -6053.33 -7.41129 
600 1 4.9819 1.14632 2.84397 6.02619 -161856 -155482 534.461 1495.45 2109.26 -7986.27 -7.41133 
783 1 6.51739 8.49193 2.8543 6.01538 -173974 -142690 -309.429 -2016.18 11883.7 -6200.14 -7.41158 
784 1 7.20634 7.25261 2.85327 6.02014 -182975 -133962 1632.39 -5138.29 8999.75 -12631.3 -7.41169 
785 1 6.47891 6.03555 2.85034 6.01883 -169625 -147051 -490.348 5010.31 8107.35 -7257.74 -7.41145 
786 1 7.16762 4.79615 2.84988 6.02353 -175054 -141973 1476.13 645.356 6944.27 -12115.4 -7.41157 
787 1 6.43951 3.57948 2.84749 6.02205 -165271 -151797 -294.262 9987.76 4166.44 -8192.88 -7.41137 
788 1 7.12815 2.34009 2.84773 6.02452 -166851 -150441 1006.98 4312.95 4186.85 -11371.7 -7.41148 
789 1 6.39954 1.12371 2.846 6.02375 -160718 -156432 143.24 12413.9 252.979 -8994.37 -7.41136 
972 1 9.35059 8.4482 2.85889 6.01586 -191928 -124798 2944.41 -3575.67 9954.26 -15756 -7.41195 
973 1 8.62391 7.23067 2.8556 6.01453 -176763 -139502 -1569.99 8913.6 8642.58 -8409.82 -7.41153 
974 1 9.31269 5.99129 2.85516 6.01987 -182797 -133999 2612.23 3329.55 8423.71 -15228 -7.41182 
975 1 8.58521 4.7742 2.85232 6.01879 -170679 -145702 -1172.27 15111.7 4862.28 -9673.97 -7.41146 
976 1 9.27391 3.53484 2.85252 6.02293 -173136 -143844 1883.78 8116.29 6171.94 -14456.6 -7.41169 
977 1 8.54577 2.31814 2.85028 6.02165 -164556 -152316 -451.097 18848.6 1049.03 -10801 -7.41145 
978 1 9.23459 1.07889 2.85119 6.0199 -163059 -153983 907.287 10458 3273.77 -13411.4 -7.41158 
11937 2 0.569775 8.6054 6.55011 6.0235 -150858 -166346 1475.08 14779.8 13964.1 42.4576 -7.41158 
11938 2 0.608527 6.15012 6.55448 6.02573 -152773 -164450 785.351 8018.02 10161.5 -285.566 -7.41139 
11939 2 0.648245 3.6948 6.55763 6.02744 -155063 -162483 453.421 3193.12 6113.07 -634.079 -7.41127 
11940 2 0.688571 1.23943 6.55928 6.02922 -157400 -160112 359.725 675.739 2023.48 -970.328 -7.41122 
11941 2 2.38008e-06 1.03051e-05 6.55956 6.03062 -158664 -158784 357.429 -67.1729 -2.70045 -0.295041 -7.4112 
12123 2 1.98748 8.62867 6.54965 6.0188 -157086 -159745 -491.877 12388.7 10340.6 -3390.89 -7.41145 
12124 2 2.71583 7.41228 6.55153 6.02325 -145430 -171765 803.955 11233.8 11861.9 -2266.02 -7.41148 
12125 2 2.02621 6.17344 6.55398 6.02284 -157505 -159649 122.665 5465.62 8343.2 -3443.39 -7.41136 
12126 2 2.755 4.95727 6.55525 6.02476 -149490 -167850 393.448 5322.42 7974.21 -3056.88 -7.41134 
12127 2 2.06592 3.71815 6.55709 6.02619 -157975 -159437 371.36 407.949 5598 -3438.57 -7.41128 
12128 2 2.79496 2.5021 6.55763 6.02645 -153943 -163490 291.901 1510.43 3940.19 -3800.3 -7.41126 
12129 2 2.10623 1.26278 6.55872 6.02901 -158389 -159085 389.371 -2215.02 2193.34 -3383.91 -7.41123 
12130 2 2.83532 0.0467514 6.55844 6.02787 -158492 -158775 363.223 273.086 -6.62425 -4449.57 -7.41124 
12312 2 4.82385 8.67378 6.54746 6.02077 -136470 -180388 457.503 13106.4 13055.6 -3689.42 -7.41158 
12313 2 4.13356 7.43534 6.55037 6.01996 -151035 -166009 381.61 4792.06 9745.17 -7186.95 -7.41149 
12314 2 4.86231 6.21916 6.55156 6.0225 -142133 -174860 39.3199 6279.87 9382.26 -4916.63 -7.41142 
12315 2 4.1727 4.98036 6.55399 6.02431 -153402 -163859 642.141 -1349.94 7441.94 -7068.35 -7.4114 
12316 2 4.90172 3.76429 6.55449 6.02383 -148499 -168802 2.13317 1305.27 5490.08 -6082.65 -7.41133 
12317 2 4.21264 2.52519 6.55629 6.02728 -155977 -161465 590.224 -5369.23 4432.22 -6836.62 -7.41132 
12318 2 4.94172 1.30914 6.55603 6.02472 -155015 -162177 218.461 -1299.09 1577.01 -7122.02 -7.4113 
12319 2 4.25298 0.0698402 6.55709 6.02616 -158467 -158671 376.925 -6799.56 847.545 -6497.72 -7.41128 
12501 2 6.24163 8.69642 6.54582 6.01742 -143017 -173815 1058.72 3233.11 10921.2 -10742.1 -7.41168 
12502 2 6.97032 7.4802 6.54689 6.02065 -133485 -183094 -730.075 6112.82 10335.6 -6170.16 -7.41151 
12503 2 6.28006 6.2418 6.54971 6.02236 -147127 -169956 1272.49 -4043.44 9104.9 -10535.2 -7.41158 
12504 2 7.00902 5.0257 6.55016 6.02087 -141363 -175587 -645.576 39.3379 6633.81 -7730.24 -7.41142 
12505 2 6.31943 3.78693 6.5525 6.02559 -151573 -165643 1093.79 -9423.24 6574.43 -10169.8 -7.41148 
12506 2 7.04848 2.57084 6.55226 6.02135 -149708 -167301 -224.462 -3988.32 2828.68 -9156.99 -7.41138 
12507 2 6.35939 1.33176 6.55398 6.0245 -156054 -160991 662.465 -12312 3399.54 -9652.91 -7.4114 
12508 2 7.08832 0.115582 6.553 6.02241 -158234 -158659 382.751 -5434.89 -859.018 -10383.6 -7.41141 
12690 2 9.07915 8.74016 6.54161 6.01819 -123891 -192171 -1999.14 4956.04 10883.6 -6858.09 -7.41159 
12691 2 8.38812 7.50223 6.5446 6.02065 -139573 -177285 2349.24 -7580.28 10525.8 -13733.3 -7.41182 
12692 2 9.11701 6.28608 6.54496 6.01779 -132933 -183240 -1754.5 -2222.99 7388.27 -8747.16 -7.4115 
12693 2 8.42677 5.0477 6.54765 6.02247 -145617 -171414 2001.65 -14040.5 8519.61 -13254 -7.41169 
12694 2 9.15577 3.83157 6.54741 6.01732 -142802 -173838 -1087.33 -7426.47 3733.12 -10517.7 -7.41147 
12695 2 8.46618 2.59281 6.54964 6.02242 -151914 -165091 1310.08 -18399.1 5839.77 -12596.9 -7.41158 
12696 2 9.19508 1.37659 6.54875 6.01802 -152923 -163738 -142.754 -10292.9 102.871 -12091.8 -7.4115 
12697 2 8.50598 0.137535 6.55038 6.02224 -158231 -158530 434.266 -19988.4 2589.59 -11775.6 -7.41149 
1161 1 10.7681 8.42703 2.8615 6.01029 -184567 -131022 -3176.62 13326.2 8804.3 -9034.32 -7.41159 
1162 1 11.457 7.18769 2.86103 6.01591 -191219 -125447 4246.09 6730.63 9756.55 -17941.6 -7.41212 
1163 1 10.7303 5.97013 2.85788 6.01481 -177214 -138527 -2546.15 20644.9 5199.6 -10552.4 -7.41153 
1164 1 11.4191 4.73081 2.85797 6.0199 -180558 -136220 3236.52 12685.4 8024.37 -17161.3 -7.41196 
1165 1 10.6915 3.5137 2.85537 6.0189 -169628 -146616 -1507.51 25798.4 1524.55 -11942 -7.41153 
1166 1 11.3804 2.27449 2.85616 6.01771 -169284 -147602 1885.73 16348.9 5597.08 -16103.3 -7.4118 
1167 1 10.6522 1.05776 2.85418 6.02027 -161832 -154738 -215.619 28176.4 -2044.57 -13192.1 -7.41158 
1350 1 13.6005 8.3855 2.86722 6.01187 -199637 -116820 6397.69 10583.9 10941.9 -20252.6 -7.41246 
1351 1 12.8746 7.16743 2.86383 6.0111 -184320 -130717 -4453.15 26437.1 5243.6 -10930.4 -7.41158 
1352 1 13.5635 5.92817 2.86375 6.01617 -188351 -128089 5102.16 17737.6 9723.71 -19466.7 -7.41228 
1353 1 12.8366 4.7106 2.86091 6.01621 -175780 -139747 -3083.5 32921.3 1716.64 -12508.9 -7.41159 
1354 1 13.5256 3.47145 2.86152 6.01588 -176434 -140268 3374.85 22703.8 7783.78 -18414.4 -7.41209 
1355 1 12.798 2.25431 2.85929 6.01853 -166801 -149183 -1369.58 36670.1 -1753.86 -13965.7 -7.41166 
1356 1 13.4872 1.01535 2.86063 6.0124 -163849 -152625 1378.18 24994.6 5196.2 -17074 -7.41191 
1539 1 15.018 8.36619 2.86992 6.00742 -191464 -122513 -6893.68 32204.4 5077.04 -10923.2 -7.4116 
1540 1 15.7072 7.12702 2.86958 6.01247 -196376 -120065 7483.72 22952.9 11261.5 -21390.1 -7.41263 
1541 1 14.981 5.90895 2.86657 6.01279 -182213 -132493 -5198.84 39819.3 1692.5 -12624.1 -7.41163 
1542 1 15.6702 4.66987 2.86694 6.013 -183889 -132547 5392.81 29202.3 9810.16 -20347.8 -7.41241 
1543 1 14.9432 3.45229 2.86456 6.01718 -172606 -142718 -3066.83 45097.5 -1674.7 -14217.7 -7.41172 
1544 1 15.6325 2.21339 2.86571 6.01022 -170950 -145513 2936.53 32896.6 7657.5 -19034.3 -7.41219 
1545 1 14.9049 0.996209 2.86393 6.01466 -162622 -153072 -674.716 47438.8 -4860.74 -15708 -7.41185 
1727 1 17.1607 9.56647 2.87596 6.00389 -198619 -114296 -9839.28 37745.6 4775.65 -10633 -7.4116 
1728 1 17.8501 8.32741 2.87526 6.00881 -204335 -112165 10350 28215.6 12628.9 -22955.1 -7.41302 
1729 1 17.1247 7.10882 2.87211 6.00945 -188933 -124996 -7841.27 46503.9 1523.69 -12404.7 -7.41164 
1730 1 17.814 5.86985 2.87214 6.01021 -191457 -124825 7924.53 35728.9 11657.5 -21926.6 -7.41277 
1731 1 17.0877 4.65178 2.8697 6.01521 -178701 -135690 -5311.56 53102.5 -1746.27 -14077.9 -7.41174 
1732 1 17.7772 3.41295 2.87059 6.00832 -178065 -138047 5041.2 40733.7 9950.53 -20645.4 -7.41251 
1733 1 17.0502 2.19534 2.86881 6.0128 -168320 -146858 -2428.03 56906.5 -4886.22 -15664.1 -7.4119 
1734 1 17.7399 0.956757 2.87054 6.00456 -164224 -151563 1876.22 43088.6 7592.74 -19105.4 -7.41226 
12879 2 10.497 8.76145 6.53903 6.01796 -131102 -185553 3925.95 -11375 11680.2 -16615.6 -7.41211 
12880 2 11.2258 7.54522 6.53924 6.01397 -123872 -191691 -3382.84 -5116.34 7812.87 -9211.67 -7.41156 
12881 2 10.5348 6.30731 6.54207 6.01881 -138524 -178303 3383.36 -19137.2 10209 -16023.7 -7.41196 
12882 2 11.2637 5.0911 6.54179 6.0132 -134784 -181194 -2448.85 -11490 4324.74 -11252.9 -7.41154 
12883 2 10.5735 3.85274 6.54436 6.01857 -146250 -170570 2407.84 -24804.9 8068.43 -15243.4 -7.41182 
12884 2 11.3024 2.63646 6.54357 6.0135 -146152 -170097 -1143.06 -15745.9 787.886 -13123.1 -7.41159 
12885 2 10.6128 1.39773 6.54569 6.01959 -154082 -162555 1149.97 -27948.7 5304.25 -14293.3 -7.41168 
12886 2 11.3414 0.181266 6.54432 6.01504 -157680 -158695 364.383 -17402.1 -2594.12 -14753.6 -7.41168 
13068 2 13.3354 8.80299 6.53331 6.01032 -114357 -200354 -5548.69 -8431.04 7975.86 -9241.62 -7.4116 
13069 2 12.6436 7.56558 6.53609 6.0149 -130725 -185985 5277.01 -24353.4 11620.1 -18463.3 -7.41228 
13070 2 13.3724 6.34928 6.53571 6.00907 -126022 -189088 -4344.83 -15970.2 4658.54 -11468.4 -7.4116 
13071 2 12.6815 5.11137 6.53844 6.01436 -139588 -177059 4010.61 -31269.2 10027.2 -17563.1 -7.41211 
13072 2 13.4103 3.89501 6.5377 6.00896 -138337 -177190 -2674.44 -21505.5 1237.1 -13560.2 -7.41165 
13073 2 12.7201 2.65667 6.54017 6.01503 -148625 -167803 2364.87 -35869.9 7790.82 -16499.6 -7.41193 
13074 2 13.4487 1.44015 6.53902 6.01004 -151027 -164876 -703.249 -24636.1 -2118.22 -15446.9 -7.41176 
13075 2 12.7591 0.201456 6.54102 6.01697 -157701 -158468 510.565 -37692.8 4985.45 -15296.2 -7.41177 
13257 2 14.7533 8.82241 6.52996 6.01096 -122529 -193911 7684.23 -29429.2 12764.4 -20577.4 -7.41264 
13258 2 15.482 7.606 6.52937 6.00519 -116978 -197075 -6777.68 -20599.3 4785.23 -11291 -7.41162 
13259 2 14.7903 6.36858 6.5321 6.01002 -132217 -184142 6136.26 -37616 11699.8 -19563.3 -7.41244 
13260 2 15.5189 5.15212 6.53133 6.00456 -129955 -184663 -4755.81 -27446.4 1494.6 -13522.3 -7.41169 
13261 2 14.8281 3.91422 6.53404 6.01031 -142202 -173915 4114.47 -43638.6 9999.38 -18392.4 -7.41223 
13262 2 15.5566 2.69762 6.53306 6.00517 -143417 -171727 -2334.88 -31995.6 -1805.4 -15593.1 -7.41182 
13263 2 14.8664 1.45931 6.53548 6.01185 -152351 -163498 1784.09 -47043.6 7687.65 -17100.8 -7.41203 
13264 2 15.5946 0.242468 6.53418 6.00702 -157103 -158513 297.316 -33901.4 -4927.53 -17443.4 -7.41199 
13446 2 17.5924 8.86119 6.52297 6.00159 -107968 -204779 -9718.15 -25301.6 4745.12 -10842.7 -7.41162 
13447 2 16.8999 7.62428 6.52555 6.00578 -124632 -191467 8767.88 -43619.6 13099.4 -21259.8 -7.41282 
13448 2 17.6284 6.40769 6.52465 6.00053 -121380 -192259 -7373.3 -33323.1 1598.57 -13135.1 -7.4117 
13449 2 16.9368 5.17027 6.52744 6.0056 -135317 -180645 6397.36 -51064.3 11918.4 -19991 -7.41258 
13450 2 17.6652 3.95357 6.52657 6.00055 -135387 -178902 -4531.49 -39280.7 -1617.27 -15312.2 -7.41184 
13451 2 16.9743 2.71569 6.52931 6.00669 -146252 -169435 3620.43 -55863.3 10110.2 -18620 -7.41233 
13452 2 17.7025 1.49877 6.52834 6.00186 -149832 -165263 -1380.61 -42628.6 -4747.45 -17318.4 -7.41203 
13453 2 17.0122 0.260498 6.53073 6.00911 -157274 -158090 616.409 -57927.5 7728.27 -17174 -7.4121 
13635 2 19.0104 8.87844 6.51895 6.00177 -117001 -198677 11863.4 -49197.5 14240.4 -22659 -7.41322 
13637 2 19.0463 6.42477 6.52054 6.00109 -128219 -187481 9182.81 -57790.8 13550.1 -21313.8 -7.41295 
13639 2 19.083 3.97052 6.52262 6.00166 -139759 -175741 6002.31 -64144.3 12236.4 -19874.3 -7.41267 
13641 2 19.1202 1.51565 6.52473 6.00358 -151389 -163773 2498.93 -67811.1 10313.1 -18383.9 -7.41239 
1916 1 19.9921 9.52939 2.88063 6.00527 -212101 -104365 13647.2 33545.2 13804.3 -24176.5 -7.41343 
1917 1 19.2675 8.31026 2.87736 6.0062 -195581 -117223 -10964.9 52886.1 1278.12 -11944.3 -7.41162 
1918 1 19.9571 7.0714 2.87695 6.00761 -199334 -117248 10927.7 42110 13298.3 -23170.7 -7.41315 
1919 1 19.2315 5.85283 2.87447 6.01204 -184884 -128476 -8074.09 60624.9 -1902.66 -13658.4 -7.41174 
1920 1 19.9212 4.61411 2.87501 6.00525 -185601 -130490 7662.22 48411.5 12039.6 -21926.3 -7.41286 
1921 1 19.1948 3.39603 2.87329 6.01121 -174016 -140125 -4735.52 65912.6 -4999.97 -15290.5 -7.41191 
1922 1 19.8847 2.15752 2.87482 6.00238 -171435 -144268 4021.18 52174.8 10074.6 -20441.8 -7.41256 
1923 1 19.1576 0.939878 2.8737 6.00686 -162959 -151912 -1144.4 68287.2 -7857.63 -16858.5 -7.41213 
2105 1 21.4095 9.51329 2.8822 6.00335 -202081 -109620 -14493.7 58716.6 1014.38 -11311.7 -7.41157 
2106 1 22.0994 8.27457 2.88128 6.00439 -206657 -109908 14334.6 48169.5 14702.8 -24087.8 -7.41356 
2107 1 21.3746 7.05547 2.87874 6.00911 -191453 -121290 -11292.5 67703.9 -2082.58 -13041.6 -7.4117 
2108 1 22.0645 5.81688 2.87886 6.00245 -193146 -123140 10740.2 55868.1 13890.6 -22888.4 -7.41323 
2109 1 21.3388 4.59831 2.8772 6.00991 -180191 -133127 -7550.59 74315.7 -5141.69 -14688.7 -7.41188 
2110 1 22.0288 3.3599 2.87844 6.00059 -178895 -136932 6684.14 60926.4 12333.6 -21464.9 -7.4129 
2111 1 21.3023 2.14181 2.87752 6.00487 -168750 -145338 -3466.44 78079.6 -8015.34 -16272.6 -7.41212 
2112 1 21.9927 0.903658 2.87975 5.99676 -164133 -150936 2347.74 63181.7 10136.5 -19828.9 -7.41258 
2294 1 24.2409 9.47933 2.88514 6.00125 -213550 -103219 18056.1 53937.5 15851.2 -24676.1 -7.41397 
2295 1 23.5168 8.25971 2.88248 6.0061 -197483 -114249 -14882.4 74035.9 -2243.86 -12285.8 -7.41163 
2296 1 24.207 7.02126 2.88211 5.99989 -200296 -116191 14194.6 62750.7 15478.6 -23535.5 -7.41363 
2297 1 23.482 5.80219 2.88045 6.00744 -186349 -126265 -10802.8 81963.9 -5265.03 -13931.1 -7.41183 
2298 1 24.1723 4.5639 2.88134 5.99761 -186303 -129760 9788.44 69180.9 14340.4 -22179.9 -7.41326 
2299 1 23.4464 3.34533 2.88059 6.00329 -174846 -138645 -6291.45 87200.6 -8154.43 -15506.8 -7.41208 
2300 1 24.137 2.10728 2.88265 5.99479 -171723 -143678 5018.93 72974.9 12506.4 -20626.3 -7.4129 
2301 1 23.4104 0.889147 2.88253 5.99873 -162905 -150936 -1548.26 89370.8 -10758.7 -17041.7 -7.41238 
2483 1 25.6583 9.46551 2.88574 6.00335 -203123 -107714 -18744.9 79682.6 -2369.85 -11428.8 -7.41153 
2484 1 26.3488 8.22722 2.88486 5.9977 -206900 -109787 17927.7 69119.1 16788.4 -23866.3 -7.41403 
2485 1 25.6245 7.00765 2.88311 6.00522 -192166 -119561 -14402.4 88831 -5347.15 -13063.9 -7.41174 
2486 1 26.315 5.7695 2.88359 5.99493 -193263 -122911 13244 76875.1 16073.1 -22590.1 -7.41364 
2487 1 25.5898 4.55046 2.8829 6.00203 -180765 -131848 -9539.89 95408.5 -8245.73 -14622.2 -7.41201 
2488 1 26.2806 3.31251 2.88472 5.99318 -178953 -136532 8118.2 82002 14622 -21125.2 -7.41324 
2489 1 25.5546 2.09393 2.88487 5.99689 -169016 -144232 -4363.09 99094.9 -10916.8 -16126.2 -7.41232 
2490 1 26.2456 0.856248 2.88778 5.98941 -164169 -150277 2730.52 84141.6 12557.9 -19496.3 -7.41285 
2672 1 28.4898 9.43471 2.88723 5.99583 -212680 -104047 21840.6 74754.3 17806.9 -23884.6 -7.41443 
2673 1 27.7662 8.21466 2.88531 6.0033 -197461 -113363 -18245.3 94693.6 -5379.01 -12116.1 -7.41163 
2674 1 28.4571 6.97666 2.88532 5.99265 -199656 -116683 16953.7 83681.5 17509.4 -22698.7 -7.41402 
2675 1 27.7325 5.75714 2.88458 6.00014 -186352 -125450 -13115.8 102645 -8272.56 -13652.7 -7.41191 
2676 1 28.4235 4.51932 2.88606 5.99043 -185879 -129878 11551.1 90199.8 16455 -21330.4 -7.41359 
2677 1 27.6981 3.30029 2.88636 5.99544 -174861 -137768 -7589.48 107778 -10996.7 -15122.4 -7.41223 
2678 1 28.3894 2.0627 2.88913 5.98774 -171533 -143248 5813.03 93913.7 14733 -19807.2 -7.41317 
2679 1 27.6633 0.844099 2.89013 5.99087 -163020 -150121 -1859.94 109942 -13404.3 -16553.2 -7.4126 
13636 2 19.7387 7.6617 6.51782 5.99681 -112855 -199442 -10478.9 -38967 1578.57 -12509.7 -7.41168 
13638 2 19.7746 5.20794 6.51967 5.9963 -127159 -186095 -7259.4 -46216.4 -1525.31 -14720.2 -7.41183 
13640 2 19.8111 2.75351 6.5219 5.99705 -141980 -172250 -3635.73 -51082.2 -4621.07 -16808.5 -7.41204 
13642 2 19.8479 0.298364 6.52396 5.99905 -156797 -158130 193.08 -53196.7 -7539.45 -18729.1 -7.41229 
13824 2 21.8498 8.91415 6.511 5.99342 -104433 -206176 -13997.1 -44212.7 1451.24 -11735.3 -7.41162 
13825 2 21.1566 7.6777 6.51351 5.99687 -121142 -194060 12412.9 -63913.7 14898.2 -22362.3 -7.41335 
13826 2 21.8847 6.46073 6.51252 5.9925 -118932 -192925 -10457.3 -52767.3 -1514.72 -13916.6 -7.41179 
13827 2 21.1924 5.22378 6.51552 5.99691 -132986 -182096 8883.23 -71705.2 14057.8 -20877.8 -7.41304 
13828 2 21.9204 4.00665 6.51496 5.99266 -133999 -179003 -6418.82 -59065.7 -4534.03 -16019.1 -7.41201 
13829 2 21.2288 2.76923 6.51813 5.99826 -145085 -169850 4938.54 -76770.8 12593.3 -19355.2 -7.41272 
13830 2 21.9565 1.55186 6.51778 5.99406 -149222 -164978 -2082.95 -62632.7 -7469.1 -18002.9 -7.41228 
13831 2 21.2656 0.314045 6.52069 6.00093 -157030 -157531 761.526 -79018.8 10546.3 -17820.3 -7.4124 
14013 2 23.2678 8.92909 6.50653 5.99303 -114141 -200619 16007.9 -69345.7 15969.7 -23128 -7.41377 
14014 2 23.9957 7.71195 6.50532 5.98911 -111145 -199346 -14042.1 -58738.9 -1583.61 -12983.5 -7.41172 
14015 2 23.3026 6.47546 6.5082 5.99253 -126285 -188455 12187.8 -78323 15576.7 -21629.1 -7.41344 
14016 2 24.0304 5.2582 6.50766 5.98873 -126082 -185607 -9658.91 -66332.1 -4490.52 -15040.6 -7.41195 
14017 2 23.3382 4.02123 6.51101 5.99328 -138672 -175974 7868.87 -84855.4 14560.3 -20097.2 -7.41308 
14018 2 24.0657 2.80376 6.51098 5.98952 -141405 -171764 -4889.3 -71486.7 -7388.85 -17023.3 -7.41223 
14019 2 23.3742 1.56637 6.51437 5.99536 -150983 -163506 3231.15 -88737 12932.8 -18565.2 -7.41272 
14020 2 24.1013 0.348604 6.51451 5.99153 -156624 -157640 68.4219 -73746.2 -10125.5 -18896.7 -7.41255 
14202 2 26.1075 8.96162 6.4983 5.98621 -103659 -205165 -17916.1 -64054.8 -1729.07 -11982.9 -7.41162 
14203 2 25.4136 7.72561 6.50087 5.98857 -119909 -194477 15825 -84051.4 16801.1 -22120.9 -7.41384 
14204 2 26.1412 6.50818 6.50025 5.98526 -118498 -191867 -13266.8 -73002 -4497.59 -13950.4 -7.41186 
14205 2 25.4483 5.27167 6.50358 5.98873 -132278 -182031 11201.8 -92088.8 16216.6 -20606.4 -7.41346 
14206 2 26.1757 4.05407 6.50373 5.98544 -133776 -178059 -8143.3 -79548.5 -7313.27 -15875.7 -7.41215 
14207 2 25.4835 2.81711 6.50742 5.99015 -144679 -169432 6180.66 -97373.1 15007.9 -19098.1 -7.41306 
14208 2 26.2106 1.59926 6.50803 5.98681 -149078 -164258 -2746.96 -83376.5 -10056.2 -17735 -7.41248 
14209 2 25.519 0.361914 6.5116 5.99289 -156960 -156918 937.167 -99763.9 13213.2 -17608.4 -7.41268 
14391 2 27.5255 8.97426 6.49381 5.98507 -113805 -200074 19693.8 -88944.9 17738.6 -22342.5 -7.41426 
14392 2 28.2528 7.75665 6.49301 5.98233 -111457 -197383 -17137.1 -78831.4 -4553.1 -12807.9 -7.41175 
14393 2 27.5591 6.52058 6.4961 5.98464 -126102 -187743 14842.1 -98194.2 17562 -20877.4 -7.41385 
14394 2 28.2864 5.30284 6.4963 5.9819 -126470 -184052 -11746.2 -86763.1 -7252.42 -14633.2 -7.41205 
14395 2 27.5935 4.06631 6.50007 5.98542 -138630 -175238 9516.3 -104989 16765.9 -19415.1 -7.41342 
14396 2 28.3205 2.84836 6.501 5.98266 -141680 -170523 -6000.52 -92115.6 -9947.12 -16425.4 -7.41239 
14397 2 27.6283 1.61142 6.50499 5.9875 -150975 -162750 3894.75 -108969 15360.7 -17975.8 -7.413 
14398 2 28.355 0.393177 6.50622 5.9846 -156705 -156928 -88.8336 -94500.4 -12501 -18159.9 -7.41276 
2861 1 29.9073 9.42313 2.8872 6.00104 -202079 -107638 -22221.6 99685.6 -5353.87 -11107.1 -7.41151 
2862 1 30.5984 8.18531 2.88674 5.99079 -205413 -111081 20819.7 89694.7 18636.9 -22513.5 -7.4144 
2863 1 29.8745 6.96533 2.88581 5.99812 -191454 -119422 -16911 108758 -8225.4 -12618.5 -7.41179 
2864 1 30.5658 5.72766 2.8869 5.98807 -192139 -123707 15221.9 97448.5 17984.5 -21250.9 -7.41396 
2865 1 29.841 4.50817 2.88718 5.99435 -180363 -131544 -11124 115328 -10983.1 -14054.6 -7.41211 
2866 1 30.5325 3.2707 2.8897 5.98638 -178412 -136716 9217.97 102597 16626.6 -19838.8 -7.4135 
2867 1 29.8069 2.05166 2.89092 5.98926 -168944 -143713 -5057.55 118939 -13482.8 -15436.4 -7.41249 
2868 1 30.4987 0.81445 2.89453 5.98282 -164106 -149823 2979.42 104722 14694.1 -18308.6 -7.41306 
3050 1 32.7391 9.39537 2.88805 5.98927 -210436 -106272 24746.5 94814.4 19461.5 -22053.7 -7.41479 
3051 1 32.0158 8.17494 2.88683 5.99644 -195977 -114003 -20823 113837 -8105.49 -11536.6 -7.41165 
3052 1 32.7074 6.93743 2.88749 5.98617 -197856 -118186 19032.4 103757 19208.3 -20900.5 -7.41432 
3053 1 31.9833 5.7175 2.88757 5.99328 -185311 -125731 -14865.3 121718 -10875.3 -12938.6 -7.41198 
3054 1 32.6749 4.48016 2.88977 5.98395 -184771 -130716 12845.9 110231 18228.5 -19605.8 -7.41385 
3055 1 31.95 3.2607 2.891 5.98804 -174392 -137641 -8552.99 126742 -13445.1 -14276 -7.41235 
3056 1 32.642 2.02358 2.89446 5.98144 -171051 -143239 6358.17 113877 16621.7 -18197 -7.41338 
3057 1 31.9164 0.804529 2.89646 5.98358 -163054 -149567 -2063.67 128834 -15679.1 -15564.8 -7.41277 
3239 1 34.1565 9.38589 2.88785 5.99511 -199800 -109192 -24760.9 117851 -7927.31 -10427.2 -7.4115 
3240 1 34.8484 8.14857 2.88809 5.98466 -202802 -113431 22893.8 109025 20138.3 -20304.6 -7.41468 
3241 1 34.1249 6.92821 2.88783 5.99154 -189713 -120339 -18719.8 126839 -10685.8 -11790 -7.41183 
3242 1 34.8168 5.69102 2.88965 5.98199 -190376 -125051 16603.3 116743 19541.3 -19129 -7.41419 
3243 1 34.0925 4.47113 2.89069 5.98719 -179340 -131882 -12250.8 133373 -13301.7 -13085.2 -7.4122 
3244 1 34.7846 3.23413 2.89389 5.97991 -177512 -137278 9948.26 121828 18280 -17845.2 -7.4137 
3245 1 34.0595 2.01468 2.89593 5.98225 -168566 -143591 -5534.48 136902 -15639.7 -14319.6 -7.41262 
3246 1 34.752 0.777921 2.90011 5.97688 -163949 -149504 3086.15 123940 16488.2 -16487.2 -7.41322 
3428 1 36.9887 9.36096 2.88891 5.98353 -206535 -109593 26732.5 113174 20786.4 -19497.2 -7.41504 
3429 1 36.2658 8.1402 2.88822 5.99017 -193446 -115835 -22603.1 130871 -10428.3 -10625 -7.41167 
3430 1 36.9581 6.90318 2.88962 5.9805 -195263 -120402 20411.6 122162 20566.9 -18436.5 -7.41454 
3431 1 36.2343 5.68289 2.89029 5.98669 -183694 -126715 -16061.1 138648 -13063.7 -11875.4 -7.41204 
3432 1 36.9267 4.44602 2.89314 5.97833 -183253 -131778 13665.5 128597 19662.7 -17277.4 -7.41403 
3433 1 36.2021 3.22617 2.89501 5.98132 -173615 -137957 -9202.62 143688 -15479.9 -13061.9 -7.41245 
3434 1 36.8947 1.98951 2.89898 5.9753 -170548 -143459 6652.13 132200 18176.8 -16047.6 -7.41352 
3435 1 36.1696 0.770037 2.90169 5.97706 -162992 -149180 -2185.93 145693 -17549.8 -14192.8 -7.41291 
14580 2 30.3652 9.00366 6.48623 5.98003 -105021 -202208 -21158 -83884.2 -4646.38 -11656.7 -7.41162 
14581 2 29.6708 7.76803 6.48888 5.98108 -120473 -193083 18691.8 -103270 18600.2 -20903.4 -7.41425 
14582 2 30.3978 6.55012 6.48902 5.97901 -119568 -189526 -15589.4 -93025.9 -7211.85 -13354.6 -7.41192 
14583 2 29.7042 5.31402 6.49262 5.98124 -132796 -180811 13142.9 -111441 18199.9 -19511.1 -7.4138 
14584 2 30.4311 4.09593 6.49373 5.97909 -134406 -176351 -9586.02 -99782.1 -9818.39 -15039.3 -7.41226 
14585 2 29.7383 2.85941 6.49789 5.98264 -145093 -168378 7227.49 -116934 17184.9 -18140.4 -7.41334 
14586 2 30.4649 1.64108 6.49956 5.98038 -149405 -163081 -3338.23 -103739 -12363.7 -16698.8 -7.41265 
14587 2 29.7726 0.404185 6.50375 5.98531 -157105 -156069 1111.74 -119430 15587.5 -16787.8 -7.4129 
14769 2 31.7832 9.01409 6.48222 5.97811 -115383 -197734 22654.3 -107246 19343.8 -20687.8 -7.41464 
14770 2 32.51 7.79599 6.48222 5.97671 -113452 -194224 -19569.1 -98306.1 -7191.46 -12084.3 -7.41178 
14771 2 31.8157 6.5603 6.48542 5.97762 -127363 -185958 16960.9 -116677 19316.6 -19385.4 -7.41418 
14772 2 32.5424 5.34207 6.48656 5.97614 -127941 -181729 -13399.6 -106359 -9688.27 -13636.3 -7.41212 
14773 2 31.8489 4.10595 6.49063 5.97834 -139338 -173815 10834.7 -123632 18683.2 -18099.3 -7.4137 
14774 2 32.5754 2.88752 6.49258 5.97672 -142531 -168848 -6910.03 -111863 -12180 -15183.1 -7.4125 
14775 2 31.8826 1.65101 6.49703 5.98032 -151391 -161615 4443.73 -127713 17453.9 -16831.3 -7.41323 
14776 2 32.6087 0.432303 6.49929 5.97852 -157107 -156049 -272.233 -114430 -14546 -16711.8 -7.41293 
14958 2 34.6228 9.04054 6.47617 5.97502 -107978 -197845 -23590.3 -102549 -7186.46 -10854.9 -7.41162 
14959 2 33.9279 7.80524 6.4788 5.9746 -122531 -190236 20876.8 -120707 20136.9 -19045.1 -7.41456 
14960 2 34.6544 6.58685 6.47986 5.97383 -122117 -186285 -17344 -111916 -9565.12 -12261.6 -7.41196 
14961 2 33.9603 5.35112 6.48358 5.97464 -134328 -178688 14618.6 -129099 19868.6 -17857.8 -7.41406 
14962 2 34.6866 4.13256 6.48564 5.97374 -136170 -174009 -10703.7 -118833 -11977.4 -13674 -7.41234 
14963 2 33.9932 2.89643 6.49006 5.97593 -146018 -166789 8032.77 -134758 19005.6 -16684.4 -7.41356 
14964 2 34.7192 1.67764 6.49267 5.97486 -150371 -161657 -3842.69 -122977 -14330.2 -15087.3 -7.41277 
14965 2 34.0263 0.441172 6.49728 5.97849 -157611 -155160 1271.42 -137378 17574.3 -15512 -7.41308 
15147 2 36.0408 9.04896 6.47301 5.97225 -118348 -193642 24810.3 -123689 20686.1 -18504.5 -7.41493 
15148 2 36.767 7.83037 6.47393 5.97222 -116940 -189748 -21329.1 -116381 -9443.57 -10947.1 -7.41179 
15149 2 36.0723 6.595 6.47709 5.97161 -129890 -182787 18493.8 -133305 20759.5 -17423.9 -7.41442 
15150 2 36.7984 5.37629 6.47913 5.97148 -130558 -178444 -14622.3 -124609 -11762.5 -12213.1 -7.41217 
15151 2 36.1044 4.14053 6.48324 5.97219 -141146 -171589 11789.6 -140384 20249.3 -16355.1 -7.41391 
15152 2 36.8304 2.92164 6.48604 5.97185 -144170 -166730 -7624.61 -130138 -14070.8 -13492.3 -7.41259 
15153 2 36.1369 1.68553 6.49068 5.97402 -152400 -160235 4852.32 -144547 19166.1 -15283.8 -7.4134 
15154 2 36.8626 0.466376 6.49371 5.97301 -157620 -155002 -488.028 -132733 -16257.9 -14775.9 -7.41304 
15337 2 38.1849 7.83772 6.47145 5.96928 -126037 -186101 22392.7 -136188 21373.9 -16814.4 -7.41478 
15339 2 38.2162 5.38342 6.47696 5.96914 -136928 -175540 15639.8 -144668 21197.6 -15852.3 -7.41425 
15341 2 38.2481 2.92863 6.48417 5.97024 -147698 -164897 8597.17 -150363 20452.3 -14888.5 -7.41372 
15343 2 38.2802 0.473321 6.49215 5.97255 -158189 -154243 1401.56 -153028 19162.8 -13901.7 -7.41321 
3617 1 38.4062 9.35336 2.88892 5.98919 -196028 -112224 -26441 133575 -10107.7 -9461.87 -7.4115 
3618 1 39.0988 8.11653 2.88989 5.97939 -199011 -116625 24209.1 126350 21309.3 -17562.3 -7.41488 
3619 1 38.3755 6.89586 2.89008 5.98563 -187232 -122258 -19901 142642 -12736.1 -10659.7 -7.41186 
3620 1 39.0682 5.65914 2.89251 5.9768 -188001 -127068 17440.4 134033 20765.3 -16522.5 -7.41436 
3621 1 38.3442 4.43891 2.89401 5.98079 -178036 -132868 -12978 149081 -15203 -11798.3 -7.41227 
3622 1 39.037 3.20235 2.89767 5.97423 -176388 -138086 10346.6 139079 19603 -15417.2 -7.41384 
3623 1 38.3123 1.98252 2.90022 5.97608 -168228 -143691 -5832.28 152547 -17381.9 -12876.4 -7.41272 
3624 1 39.0054 0.746181 2.90467 5.97134 -164128 -149136 3071.45 141217 17949.7 -14272.1 -7.41333 
3806 1 41.2389 9.33094 2.89065 5.97868 -201750 -113816 27941.1 129325 21786.4 -16540.9 -7.41521 
3807 1 40.5162 8.10993 2.89027 5.98466 -189822 -118810 -23704.3 145367 -12326.5 -9453.32 -7.41169 
3808 1 41.2092 6.87338 2.89227 5.9757 -191844 -123371 21214.3 138292 21596.9 -15611.4 -7.41468 
3809 1 40.4857 5.65279 2.89325 5.98054 -181440 -128574 -16786.4 153099 -14817.2 -10538.9 -7.41209 
3810 1 41.1787 4.41637 2.8965 5.97338 -181212 -133421 14103.2 144675 20769.4 -14624.3 -7.41415 
3811 1 40.4545 3.19618 2.89869 5.97551 -172619 -138664 -9583.27 158071 -17079.5 -11568.2 -7.41253 
3812 1 41.1477 1.95993 2.90286 5.97022 -170078 -143741 6755.3 148261 19402.7 -13601.4 -7.41363 
3813 1 40.423 0.740091 2.90592 5.97149 -163299 -148729 -2232.33 160027 -18998.6 -12538.8 -7.41301 
3995 1 42.6564 9.32499 2.89101 5.98403 -191471 -116202 -27425.1 146860 -11854.3 -8275.42 -7.41152 
3996 1 43.3497 8.08861 2.89258 5.97499 -194567 -120578 24935.4 141323 22180.4 -14576.8 -7.415 
3997 1 42.6266 6.86771 2.89295 5.98049 -184058 -125220 -20574 155890 -14343 -9298.84 -7.4119 