ITEM: TIMESTEP
0
ITEM: NUMBER OF ATOMS
12152
ITEM: BOX BOUNDS pp pp pp
0.0000000000000000e+00 9.5721004899999997e+01
0.0000000000000000e+00 1.6579364400000000e+02
0.0000000000000000e+00 1.8399999999999999e+01
ITEM: ATOMS id type x y z c_csym c_2[1] c_2[2] c_2[3] c_2[4] c_2[5] c_2[6] c_3 
152 1 0.819 8.586 3 6.02496 -147294 -135036 -102532 -3810.36 21006.5 -2753.31 -7.41319 
153 1 0.095 7.367 3 6.01967 -125587 -153237 -102304 -7886.94 22892.2 -367.471 -7.41352 
154 1 0.788 6.13 3 6.02431 -141328 -153754 -105665 -10768.4 16254.6 -2727.57 -7.41346 
155 1 0.063 4.912 3 6.02437 -127446 -165391 -106627 -8063.17 15180.3 -277.438 -7.41363 
156 1 0.756 3.675 3 6.02108 -137754 -141600 -108241 -7213.42 10253.1 -2410.55 -7.41298 
157 1 0.032 2.456 3 6.02216 -132462 -146351 -109003 -4620.32 7662.2 -110.151 -7.41302 
158 1 0.725 1.219 3 6.02418 -128442 -124447 -109541 10259.9 3658.05 -2235.26 -7.41305 
159 1 0 0 3 6.02705 -125986 -139861 -109772 18358 -21.0563 45.289 -7.4133 
288 1 2.237 8.568 3 6.02464 -121893 -133510 -99477.9 14246.5 26042.7 -4905.94 -7.41363 
289 1 2.93 7.331 3 6.02546 -144145 -136094 -102868 -3638.88 18727.9 -9841.01 -7.4134 
290 1 2.206 6.112 3 6.02134 -130105 -148733 -104419 1366.32 18769.1 -5439.7 -7.41345 
291 1 2.899 4.875 3 6.02464 -135022 -120871 -105896 6958.34 13440.7 -9520.38 -7.41301 
292 1 2.174 3.656 3 6.0239 -122735 -131091 -107602 8632.01 10995.5 -5842.49 -7.41303 
293 1 2.867 2.419 3 6.02224 -145571 -174166 -108034 -25151 7180.29 -8991.66 -7.41338 
294 1 2.143 1.201 3 6.02154 -137896 -156025 -109124 -30706.4 3499.96 -6180.92 -7.41302 
423 1 5.073 8.532 3 6.0239 -135883 -120161 -98236.5 2186.13 21073.4 -16861.6 -7.41357 
424 1 4.348 7.313 3 6.02464 -124087 -132883 -101335 14761.1 21569.6 -9762.89 -7.41328 
425 1 5.041 6.076 3 6.02134 -141907 -137530 -101963 -5604.69 16364.5 -16366.3 -7.41359 
426 1 4.317 4.857 3 6.02546 -131644 -148065 -105074 3781.51 14115.8 -10794.3 -7.41328 
427 1 5.01 3.62 3 6.02464 -131912 -122235 -104635 6840.18 10772.7 -15791.3 -7.41333 
428 1 4.285 2.401 3 6.02471 -124624 -128223 -107173 15938.2 6483.9 -11664.6 -7.41326 
429 1 4.978 1.164 3 6.02331 -139426 -155075 -106438 -12867.6 4189.53 -14985.8 -7.41322 
558 1 6.491 8.513 3 6.01969 -127781 -154056 -97541.2 1129.92 23846.6 -13344.7 -7.41359 
559 1 7.184 7.276 3 6.02431 -142668 -154754 -96020.7 -15615.8 19191.7 -23114.5 -7.41403 
560 1 6.459 6.058 3 6.02431 -129558 -166407 -101951 -2647.22 16464.2 -14883.9 -7.41368 
561 1 7.152 4.821 3 6.01969 -139130 -142401 -99599.6 -12570.3 14140.9 -22354 -7.41347 
562 1 6.428 3.602 3 6.02362 -134278 -147673 -104231 4007.17 9154.33 -16439.2 -7.41308 
563 1 7.121 2.365 3 6.02418 -129245 -124767 -102283 4559.4 8223.97 -21393 -7.41355 
564 1 6.396 1.146 3 6.02468 -127816 -139409 -105070 22872.1 1676.41 -17664.2 -7.41358 
693 1 9.326 8.477 3 6.02546 -145553 -138205 -88386.9 -7915.24 21575.3 -29324 -7.41425 
694 1 8.602 7.258 3 6.02134 -129675 -150524 -98013.5 8264.09 18353 -18156.8 -7.41381 
695 1 9.295 6.021 3 6.02464 -136465 -122668 -92590 2191.84 17370.9 -28618.7 -7.41378 
696 1 8.57 4.802 3 6.0239 -122102 -133256 -100671 15359.5 11145.3 -20216.6 -7.41343 
697 1 9.263 3.565 3 6.0231 -145977 -177225 -96438.9 -30579.2 12092 -27440.2 -7.41397 
698 1 8.539 2.347 3 6.02311 -141086 -180047 -101788 -13912.8 3916.65 -21950.7 -7.41374 
699 1 9.232 1.11 3 6.02182 -122018 -108832 -99055 8099.79 6006.83 -26033.8 -7.41323 
6096 2 0.599 8.604 6.4 6.02334 -110832 -121908 -99618.6 6939.59 26406.5 -1035.18 -7.41331 
6097 2 0.63 6.149 6.4 6.02313 -127214 -169773 -104730 9944.35 19045.7 -1442.45 -7.4133 
6098 2 0.662 3.693 6.4 6.02461 -117240 -115106 -107947 3583.74 11292.1 -1690.64 -7.41271 
6099 2 0.693 1.237 6.4 6.02628 -123174 -130520 -109564 -10246.3 3792.88 -1975.44 -7.41294 
6100 2 0 0 6.4 6.02658 -128112 -140175 -109820 -3140.5 20.5803 -4.94121 -7.41294 
6228 2 2.017 8.623 6.4 6.01968 -141481 -137544 -101851 6898.24 21193.9 -6927.59 -7.41355 
6229 2 2.741 7.404 6.4 6.02495 -131610 -150985 -101845 5975.49 22423.1 -6014.59 -7.41322 
6230 2 2.048 6.167 6.4 6.02385 -132017 -119149 -105051 -14473.7 16448.2 -6823.76 -7.41364 
6231 2 2.773 4.948 6.4 6.02464 -123621 -130196 -105892 -8425.39 14916.3 -6913.15 -7.41326 
6232 2 2.08 3.711 6.4 6.02511 -137540 -139739 -107641 1078.43 10526.6 -6719.63 -7.41335 
6233 2 2.804 2.492 6.4 6.02273 -132603 -145347 -108142 4261.13 7267.39 -7720.53 -7.41322 
6234 2 2.111 1.255 6.4 6.02555 -128081 -125650 -109000 -13273.1 3933.93 -6347.65 -7.413 
6235 2 2.836 0.036 6.4 6.02352 -130314 -138458 -108857 -10006.3 -166.899 -8402.85 -7.413 
6363 2 4.852 8.659 6.4 6.02546 -129382 -151942 -98249 6515.14 25206.7 -9747.79 -7.41368 
6364 2 4.159 7.422 6.4 6.02464 -136654 -118244 -101322 -14467.8 19265.7 -13752.2 -7.41352 
6365 2 4.884 6.203 6.4 6.02417 -122107 -131352 -102919 -5906.16 17834.5 -11314.2 -7.41355 
6366 2 4.191 4.966 6.4 6.02362 -143079 -138902 -104421 -522.179 14021.4 -13476 -7.41307 
6367 2 4.915 3.747 6.4 6.01968 -130214 -149737 -105764 11661.1 10440.2 -12625.1 -7.41312 
6368 2 4.222 2.51 6.4 6.02431 -137151 -157710 -106663 6035.36 7842.55 -13052.6 -7.41342 
6369 2 4.947 1.292 6.4 6.02432 -133873 -160261 -106825 15132.1 2831.09 -13990.1 -7.41348 
6370 2 4.254 0.055 6.4 6.01897 -130293 -123133 -107503 -8634.53 899.736 -12497.4 -7.41283 
6498 2 6.27 8.677 6.4 6.02464 -139892 -118441 -95712.2 -13946.5 21889.1 -20544.8 -7.4136 
6499 2 6.995 7.458 6.4 6.0239 -120100 -135657 -99252.6 1492.97 20181.9 -14838 -7.41351 
6500 2 6.302 6.221 6.4 6.02311 -149422 -173030 -99550.5 17610.3 17284.9 -20096.7 -7.41379 
6501 2 7.026 5.003 6.4 6.0231 -137623 -184013 -102470 30031.1 12887.7 -16788.1 -7.41362 
6502 2 6.333 3.766 6.4 6.0239 -130401 -124721 -102326 -11654.8 11766 -19567.6 -7.41334 
6503 2 7.058 2.547 6.4 6.02464 -127032 -129285 -103974 -2360.65 5574.59 -18602.6 -7.41313 
6504 2 6.365 1.31 6.4 6.02134 -136112 -143097 -104384 -4650.54 5253.53 -18767.7 -7.41341 
6505 2 7.089 0.091 6.4 6.02446 -136277 -156946 -103844 3189.77 -1572.23 -20085.7 -7.41362 
6633 2 9.106 8.714 6.4 6.02431 -127811 -169548 -95296.9 19722.7 21747.8 -17452.6 -7.41406 
6634 2 8.413 7.477 6.4 6.01968 -142685 -140485 -92601.1 288.26 20287.3 -26505.6 -7.41388 
6635 2 9.137 6.258 6.4 6.02362 -132035 -151129 -98656.7 12601 14896.4 -19944.1 -7.4134 
6636 2 8.444 5.021 6.4 6.02417 -133280 -121818 -96377.3 -18111.2 15439.8 -25791.8 -7.41394 
6637 2 9.169 3.802 6.4 6.02464 -124374 -130699 -100310 -2069.3 7635.71 -22330.9 -7.41357 
6638 2 8.476 2.565 6.4 6.02546 -138840 -142316 -99398.6 -6437.97 9643.11 -24704.1 -7.4136 
6639 2 9.2 1.346 6.4 6.02287 -133046 -147010 -100558 10255.1 731.182 -24239.2 -7.41363 
6640 2 8.507 0.109 6.4 6.0246 -130970 -138998 -101149 -12752.7 3091.61 -23538.1 -7.41356 
828 1 10.744 8.459 3 6.02464 -123712 -134688 -94167.1 21252.4 19497.9 -20305.9 -7.41368 
829 1 11.437 7.222 3 6.02134 -143407 -140309 -84131.8 -9722.47 20189.8 -34095.2 -7.41462 
830 1 10.713 6.003 3 6.02546 -131096 -150355 -96815.8 10167.5 12699.8 -22886.3 -7.41375 
831 1 11.406 4.766 3 6.02464 -133346 -124638 -88697.8 2276.18 15711.2 -33010.4 -7.41426 
832 1 10.681 3.547 3 6.02417 -124428 -130103 -97899.4 22066.5 5565.35 -25201.9 -7.41384 
833 1 11.374 2.31 3 6.02362 -139313 -145868 -92470.8 -12888.6 10326.2 -31509.9 -7.41372 
834 1 10.65 1.091 3 6.0209 -137522 -159652 -97460.6 10575.5 -1298.93 -27248.9 -7.41362 
963 1 13.58 8.422 3 6.02431 -144203 -158470 -73723.3 -19013.2 22703.5 -39019.6 -7.41533 
964 1 12.855 7.204 3 6.02431 -129065 -168637 -92981.5 3211.13 13559.9 -24606.4 -7.4142 
965 1 13.548 5.967 3 6.01969 -140608 -145655 -79492.1 -16402.7 18960.1 -37809.9 -7.41465 
966 1 12.824 4.748 3 6.02362 -133663 -150513 -94041.6 9738.67 6765.69 -27353.6 -7.41366 
967 1 13.517 3.511 3 6.02417 -131244 -126726 -84039.3 465.499 14403.5 -36442.8 -7.41465 
968 1 12.792 2.292 3 6.02467 -125766 -131245 -93284.2 23611.9 9.02938 -29949.3 -7.41394 
969 1 13.485 1.055 3 6.02547 -139393 -159330 -88246.9 -19525.1 8874.4 -34474.7 -7.41428 
1098 1 14.998 8.404 3 6.02134 -129252 -152558 -89239.7 13425 13954 -25362.1 -7.41431 
1099 1 15.691 7.167 3 6.02464 -138015 -126750 -68357.8 -860.97 21940.3 -42003 -7.4152 
1100 1 14.966 5.948 3 6.0239 -121550 -136010 -89958.7 20467.7 7307.19 -28642.1 -7.41404 
1101 1 15.659 4.711 3 6.02067 -147535 -180809 -74196.6 -33964 18071.3 -40565.4 -7.41527 
1102 1 14.935 3.493 3 6.0231 -140981 -185552 -89257.8 -6915.57 950.607 -31550.6 -7.41413 
1103 1 15.628 2.256 3 6.02419 -127846 -132458 -79572.2 -937.705 13315.8 -38682.1 -7.41474 
1104 1 14.903 1.037 3 6.02468 -128334 -142965 -87013.3 29376.2 -5460.29 -34118.3 -7.41462 
1233 1 17.833 8.368 3 6.02512 -143346 -146003 -56029.3 -13564.8 24340.1 -45283.9 -7.41636 
1234 1 17.109 7.149 3 6.02628 -130595 -152826 -86617.5 14537.1 7598.33 -28850.5 -7.41433 
1235 1 17.802 5.912 3 6.02656 -132582 -129504 -62701.9 1393.81 21349.7 -43959.4 -7.41598 
1236 1 17.077 4.693 3 6.0242 -122322 -135795 -85381.4 26565.4 1309.27 -32160.7 -7.41444 
1237 1 17.77 3.456 3 6.0231 -147624 -183769 -69393 -33367.3 17379.3 -42071.5 -7.4153 
1238 1 17.046 2.238 3 6.02067 -141572 -183659 -82924.9 -8190.23 -4770.93 -35115.8 -7.41482 
1239 1 17.739 1.001 3 6.02182 -123544 -111640 -75134.1 3382.71 12560.1 -39897.8 -7.41474 
6768 2 10.524 8.732 6.4 6.02134 -145554 -138098 -84229.6 -5716.99 22846.2 -32162.4 -7.41462 
6769 2 11.248 7.513 6.4 6.02546 -129680 -152198 -94771.3 12698.2 16208.4 -22069.9 -7.41387 
6770 2 10.555 6.276 6.4 6.02464 -135588 -122436 -88627.2 -19352.6 18856.5 -31401.2 -7.41426 
6771 2 11.28 5.057 6.4 6.02417 -122721 -132046 -96548.6 63.5533 9305.39 -24912.8 -7.41392 
6772 2 10.587 3.82 6.4 6.02362 -142012 -142812 -92592.2 -5810.84 13705.7 -30372.8 -7.41376 
6773 2 11.311 2.601 6.4 6.01969 -131141 -150870 -96651.1 17346.2 2455.21 -27426.1 -7.41364 
6774 2 10.618 1.364 6.4 6.02433 -137141 -159728 -95525.3 219.943 7916.28 -28964.4 -7.41413 
6775 2 11.343 0.146 6.4 6.02372 -130809 -140176 -95222 30867.2 -4238.84 -29662.4 -7.4139 
6903 2 13.359 8.768 6.4 6.02299 -129069 -153545 -90932 14412.4 16955.8 -23197.8 -7.41408 
6904 2 12.666 7.531 6.4 6.02464 -138827 -123459 -79295.2 -18313.9 21836.5 -36414 -7.41456 
6905 2 13.391 6.312 6.4 6.0239 -119963 -136011 -92677.2 6661.69 10341.5 -26526.6 -7.41401 
6906 2 12.698 5.075 6.4 6.0231 -148378 -177744 -84070.5 12870.9 17532 -35343.2 -7.41469 
6907 2 13.422 3.857 6.4 6.02311 -138428 -185305 -92743.8 35203.8 3729.13 -29494.4 -7.41418 
6908 2 12.729 2.62 6.4 6.0239 -129396 -129059 -88047.2 -16714.6 12380.5 -33960.2 -7.41417 
6909 2 13.454 1.401 6.4 6.02467 -127630 -132003 -91017.8 2453.8 -2860.4 -32270.7 -7.41382 
6910 2 12.761 0.164 6.4 6.02222 -138964 -158985 -91361.6 -3005.55 6434.07 -32099.4 -7.4141 
7038 2 14.777 8.786 6.4 6.02461 -138973 -126866 -68173.1 -18525.2 24396 -40772.1 -7.41509 
7039 2 15.502 7.567 6.4 6.02236 -126946 -171591 -89104.2 -8778.49 10905.5 -27175.8 -7.41441 
7040 2 14.809 6.331 6.4 6.01968 -148734 -179729 -73700.1 -21003.5 20942.2 -39758.8 -7.4153 
7041 2 15.533 5.112 6.4 6.0231 -131320 -154905 -88735.7 17377 4438.02 -30595.5 -7.41384 
7042 2 14.84 3.875 6.4 6.02417 -132300 -126848 -79036.5 -22536.7 16603.3 -38204.4 -7.41494 
7043 2 15.565 2.656 6.4 6.02464 -125367 -132576 -87117.1 2212.26 -1812.06 -33678 -7.41434 
7044 2 14.872 1.419 6.4 6.02546 -137366 -147705 -83533.4 -10999.9 11244.9 -36378.1 -7.41449 
7045 2 15.596 0.2 6.4 6.02446 -137829 -161948 -83976.3 7386.5 -7849.28 -36343.3 -7.41452 
7173 2 17.613 8.823 6.4 6.02431 -127575 -171390 -85911.5 25616.5 10881.8 -26998.2 -7.41459 
7174 2 16.92 7.586 6.4 6.01968 -142626 -146582 -62039.9 -4365.5 23883.2 -43277.4 -7.41578 
7175 2 17.644 6.367 6.4 6.02413 -131907 -153855 -85448.2 18330.6 4858.9 -30669.7 -7.41415 
7176 2 16.951 5.13 6.4 6.02413 -134551 -128062 -68256.7 -23112.3 20304.6 -41848.6 -7.41546 
7177 2 17.676 3.911 6.4 6.02464 -124336 -134309 -83237.2 3448.02 -1326.31 -34170 -7.41455 
7178 2 16.983 2.674 6.4 6.02546 -139436 -147471 -74153.7 -11593.9 15835.2 -39945 -7.41507 
7179 2 17.707 1.455 6.4 6.02287 -133084 -151472 -79987.6 15523.7 -7097.46 -37144.7 -7.41481 
7180 2 17.014 0.218 6.4 6.0246 -131533 -143396 -78892.9 -18225.9 10557 -37770.9 -7.41486 
7308 2 19.031 8.841 6.4 6.02134 -146094 -145468 -49232.6 -9257.94 26242.3 -46011.1 -7.41668 
7310 2 19.062 6.385 6.4 6.02464 -136172 -129152 -56122.6 -23182.9 23566.3 -44667.3 -7.41617 
7312 2 19.094 3.929 6.4 6.02362 -142609 -148819 -63064.7 -9929.8 19863.3 -42858.4 -7.41549 
7314 2 19.125 1.473 6.4 6.02433 -137728 -164956 -69281.6 -4149.2 15445.3 -40675.5 -7.41566 
1368 1 19.251 8.35 3 6.02464 -115004 -122414 -83735.6 13716 7307.68 -28317.9 -7.41409 
1369 1 19.945 7.113 3 6.02413 -174533 -115115 -50086.8 -13498.1 24144.9 -46498.3 -7.41683 
1370 1 19.22 5.894 3 6.02931 -121708 -138786 -82155.4 28224.9 1404.08 -31867.4 -7.4144 
1371 1 19.913 4.657 3 6.02877 -131025 -133849 -57701.3 713.628 21002 -44759.8 -7.41607 
1372 1 19.188 3.438 3 6.02417 -124870 -133611 -79116.2 26827 -4594.51 -35152 -7.41493 
1373 1 19.881 2.201 3 6.02217 -137153 -152322 -64743.9 -18501.8 16978.7 -42610.4 -7.41555 
1374 1 19.157 0.982 3 6.02337 -138056 -164017 -74813.9 15146.2 -10226 -38089.4 -7.41493 
1503 1 22.087 8.313 3 6.02335 -142374 -170373 -36208.1 -20775.8 26468.1 -48137.2 -7.41732 
1504 1 21.362 7.095 3 6.02292 -168580 -155708 -79525 -4977.51 1111.73 -30868.9 -7.41515 
1505 1 22.056 5.858 3 6.02221 -172285 -119830 -44970.8 -18340.8 24134.2 -46562.5 -7.41688 
1506 1 21.331 4.639 3 6.02699 -124332 -139617 -76225.4 26592.8 -4669.32 -34313.6 -7.4145 
1507 1 22.024 3.402 3 6.02498 -128814 -137704 -52910.9 -668.903 20946.9 -44582.1 -7.41626 
1508 1 21.299 2.183 3 6.02465 -117372 -121507 -70988.9 14595.8 -10183 -37574.4 -7.41505 
1509 1 21.993 0.946 3 6.02451 -171173 -132761 -60687.4 -23131.9 16845.2 -42181.1 -7.41597 
1638 1 23.505 8.295 3 6.02359 -119774 -140342 -77989.2 29175.2 466.763 -29140.7 -7.41476 
1639 1 24.198 7.058 3 6.02699 -136213 -138437 -30753.2 -1827.8 26834 -47479.5 -7.4172 
1640 1 23.473 5.839 3 6.02221 -161149 -123700 -73458.8 11049 -5098.66 -32874.1 -7.41518 
1641 1 24.167 4.602 3 6.02292 -179206 -154605 -40070.9 -35031 24329.1 -45715 -7.41749 
1642 1 23.442 3.384 3 6.02335 -130132 -174668 -68330.5 6871.98 -10327.2 -36192.7 -7.41541 
1643 1 24.135 2.147 3 6.0236 -127670 -140302 -49274.3 -7147.02 20984.5 -43452.8 -7.4163 
1644 1 23.41 0.928 3 6.02386 -162721 -99349.1 -61468.7 884.189 -15352.5 -39296.9 -7.41571 
1773 1 26.341 8.259 3 6.02413 -176640 -120171 -16228.6 -12045.2 28897.4 -47520.3 -7.41884 
1774 1 25.616 7.04 3 6.03041 -121214 -141230 -72250.4 28996.8 -5599.69 -30671.4 -7.41498 
1775 1 26.309 5.803 3 6.03041 -133161 -140215 -26383.3 -373.866 27226.6 -45925.5 -7.4177 
1776 1 25.584 4.584 3 6.02413 -163472 -121577 -66220 15657.6 -10751 -34160.3 -7.41586 
1777 1 26.278 3.347 3 6.02464 -173083 -122185 -36567.1 -15731.7 24699.6 -43939.9 -7.41725 
1778 1 25.553 2.128 3 6.02504 -124001 -141423 -58899.7 22321.9 -15672.9 -37320.9 -7.41572 
1779 1 26.246 0.891 3 6.02584 -128454 -153215 -46189.3 -10972 21213.5 -41500.6 -7.41679 
1908 1 27.758 8.241 3 6.02292 -168174 -157717 -71787.9 -5164.38 -6270.74 -28050.3 -7.4156 
1909 1 28.452 7.004 3 6.02221 -173907 -125158 -12138 -17229.9 29506.1 -45284.7 -7.41883 
1910 1 27.727 5.785 3 6.02699 -123741 -142393 -65402.3 26497.1 -11237.2 -31465.6 -7.41514 
1911 1 28.42 4.548 3 6.02359 -131035 -141838 -23204.5 -585.96 27827.3 -43442 -7.41802 
1912 1 27.695 3.329 3 6.02464 -165308 -122832 -57446.6 15044.2 -16083.2 -34763 -7.41625 
1913 1 28.389 2.092 3 6.02456 -169611 -124393 -33871.3 -14005.6 25077.9 -41362.3 -7.41761 
1914 1 27.664 0.873 3 6.02835 -128682 -154666 -48562.5 33642.1 -20457.8 -37642.2 -7.41641 
7309 2 19.755 7.622 6.4 6.02546 -129574 -154571 -82577.7 17414.5 4892.84 -29968.3 -7.41456 
7311 2 19.787 5.166 6.4 6.02417 -122699 -135369 -80184.6 4593.26 -1084.1 -33714.7 -7.41485 
7313 2 19.818 2.71 6.4 6.01968 -131200 -155108 -76318.9 21679.7 -6788.38 -37050.9 -7.41481 
7315 2 19.85 0.255 6.4 6.02372 -127106 -148397 -71057.3 33103.7 -12225 -40033.7 -7.41539 
7443 2 21.866 8.877 6.4 6.02134 -125986 -155585 -80638.9 19912.7 4411.05 -28577.8 -7.41501 
7444 2 21.173 7.64 6.4 6.02464 -139391 -130948 -43044.1 -21209 26298.1 -46641.9 -7.41669 
7445 2 21.898 6.421 6.4 6.02359 -118222 -139932 -77663.8 8639.62 -1151.38 -32495.9 -7.41496 
7446 2 21.205 5.184 6.4 6.02311 -148957 -184476 -50690.8 9790.01 23435.9 -44966 -7.41665 
7447 2 21.929 3.966 6.4 6.02166 -136216 -189676 -73399.5 40221.8 -6752.23 -36054.6 -7.41551 
7448 2 21.236 2.729 6.4 6.0239 -129975 -135015 -58106.3 -19969.8 19802 -42890.2 -7.41592 
7449 2 21.961 1.51 6.4 6.02653 -125306 -139298 -67452.4 3546.38 -12027.8 -39343.3 -7.41519 
7450 2 21.268 0.273 6.4 6.02466 -129808 -149874 -65074.4 -19574.3 15271.7 -40422.7 -7.41545 
7578 2 23.284 8.895 6.4 6.02431 -136737 -153001 -28304.8 11402.5 28454.7 -47810.2 -7.41782 
7579 2 24.009 7.677 6.4 6.0248 -125592 -177162 -76108.1 25077.3 -1676.65 -30658.4 -7.41495 
7580 2 23.316 6.44 6.4 6.02246 -132460 -139174 -37090 -19095.7 26518.5 -46235.9 -7.41694 
7581 2 24.041 5.221 6.4 6.02464 -163851 -123273 -71044.4 19708.1 -7045.19 -34419.1 -7.4152 
7582 2 23.347 3.984 6.4 6.02413 -123980 -119482 -45688.6 -12123.6 23641.3 -44317.4 -7.41671 
7583 2 24.072 2.765 6.4 6.03069 -122928 -141409 -65003.7 2610.02 -12158.3 -37774.6 -7.41541 
7584 2 23.379 1.528 6.4 6.02784 -128222 -139284 -54159 -26438.5 19796 -41947.3 -7.41602 
7585 2 24.104 0.309 6.4 6.02428 -169553 -134086 -57325 8775.73 -16839.1 -40863.6 -7.4163 
7713 2 26.12 8.932 6.4 6.02699 -121006 -142748 -75326.2 6563.13 -2193.49 -28280.4 -7.41455 
7714 2 25.427 7.695 6.4 6.02359 -135304 -137934 -22684.9 -23477.7 28965.9 -46620.2 -7.41805 
7715 2 26.152 6.476 6.4 6.02464 -161956 -123173 -70105.3 16898.4 -7449.24 -32121.5 -7.4155 
7716 2 25.458 5.239 6.4 6.02464 -174330 -119950 -32317.3 -12252.2 26839.6 -44872.7 -7.41775 
7717 2 26.183 4.02 6.4 6.02359 -121925 -141644 -63170.8 3955.81 -12395 -35563.7 -7.41564 
7718 2 25.49 2.783 6.4 6.02699 -131879 -140068 -41681.2 -24089.3 23891.3 -42704.7 -7.41655 
7719 2 26.215 1.564 6.4 6.02271 -165018 -123439 -55345.2 20984.8 -17135 -38750.4 -7.41634 
7720 2 25.521 0.327 6.4 6.02451 -169793 -133050 -50787.6 -5581.24 20066.7 -40199.2 -7.41692 
7848 2 27.538 8.95 6.4 6.03041 -137498 -140021 -7981.91 -22805.1 30805.9 -46097.5 -7.4188 
7849 2 28.263 7.731 6.4 6.02413 -160637 -123485 -69836 16806.2 -7900.62 -29288.5 -7.41564 
7850 2 27.569 6.494 6.4 6.02464 -177491 -121916 -18021.8 -9540.36 29513.3 -44550.3 -7.41836 
7851 2 28.294 5.275 6.4 6.0236 -119697 -145380 -62802.1 8790.6 -12768.7 -32809.4 -7.41541 
7852 2 27.601 4.038 6.4 6.02335 -138079 -175877 -28700.3 -3680.96 27303.7 -42590 -7.41776 
7853 2 28.326 2.82 6.4 6.02292 -171343 -158801 -53919.9 36836.6 -17427 -36004.1 -7.41666 
7854 2 27.632 1.583 6.4 6.02221 -169126 -123206 -38512.7 -8326.94 24294.2 -40301.2 -7.41733 
7855 2 28.357 0.364 6.4 6.0251 -121527 -121973 -44527.7 16129 -21623.4 -38840.3 -7.41632 
2043 1 30.594 8.204 3 6.02699 -137763 -143952 2777.27 -58.2622 31326.2 -43541.7 -7.4192 
2044 1 29.869 6.985 3 6.02221 -160098 -126607 -65452.2 8940.87 -11903.1 -28362.4 -7.41564 
2045 1 30.563 5.748 3 6.02431 -132660 -160914 -8977.09 -33714.3 30407.5 -42059 -7.41897 
2046 1 29.838 4.53 3 6.0248 -128848 -178373 -56881.7 6932.63 -16521 -31582.4 -7.41609 
2047 1 30.531 3.293 3 6.02245 -128359 -146338 -21066.6 -5435.32 28309.4 -40293.2 -7.41789 
2048 1 29.806 2.074 3 6.02466 -167056 -125852 -47386.2 11219 -20855.2 -34527.5 -7.41656 
2049 1 30.5 0.837 3 6.02471 -123182 -138770 -32728.3 -21385.4 25567.8 -38097.5 -7.41739 
2178 1 32.012 8.186 3 6.02656 -120403 -139905 -66522.2 28080.9 -12440 -24814.3 -7.41574 
2179 1 32.705 6.949 3 6.02628 -144424 -159480 5047.93 -11026.1 32310 -39717.5 -7.41977 
2180 1 31.981 5.73 3 6.02134 -129051 -157876 -57551 11422.8 -16975.4 -27921.8 -7.41637 
2181 1 32.674 4.493 3 6.02464 -135418 -142061 -7452.92 -1144.68 31045.7 -38267.8 -7.4188 
2182 1 31.949 3.274 3 6.02359 -121866 -143181 -47434.5 21759.1 -21274 -30793.8 -7.41675 
2183 1 32.642 2.037 3 6.02279 -146017 -192936 -20434.8 -33947.8 28898.1 -36399.8 -7.41851 
2184 1 31.918 0.819 3 6.02009 -137067 -170540 -36468.8 -21543.8 -25057.1 -33446.1 -7.41752 
2313 1 34.848 8.15 3 6.0239 -136182 -145462 19265.6 -2311.36 33556.4 -36522.7 -7.42052 
2314 1 34.123 6.931 3 6.02464 -125186 -140742 -59263.2 23062.8 -17378.4 -24013.2 -7.41572 
2315 1 34.816 5.694 3 6.02134 -142333 -160640 5697.98 -10584.6 33109.8 -35292 -7.41993 
2316 1 34.092 4.475 3 6.02546 -133051 -158866 -48845.2 11820 -21570.6 -26697.9 -7.41656 
2317 1 34.785 3.238 3 6.02464 -132426 -142989 -7595.35 1412.87 31665.4 -33798.6 -7.41904 
2318 1 34.06 2.019 3 6.02471 -126257 -141922 -37138.5 23648.8 -25471.7 -29264.1 -7.41736 
2319 1 34.753 0.782 3 6.02331 -140019 -173163 -21086.2 -18720.3 29323.8 -31996.1 -7.41823 
2448 1 36.266 8.131 3 6.01969 -128728 -160809 -61973.9 5614.93 -17628.8 -19762.3 -7.41566 
2449 1 36.959 6.894 3 6.02431 -143077 -179393 19264.4 -17561.3 34558.1 -31342.9 -7.42084 
2450 1 36.234 5.676 3 6.02431 -130842 -176255 -51162.6 1731 -21790.2 -22359.2 -7.41664 
2451 1 36.927 4.439 3 6.01968 -139655 -164645 5026.76 -14767.2 33785.5 -30292.1 -7.41965 
2452 1 36.203 3.22 3 6.02362 -135821 -160494 -38926.9 8222.94 -25633.3 -24632.6 -7.4169 
2453 1 36.896 1.983 3 6.02418 -129916 -144513 -9086.52 2158.23 32099.3 -28884.5 -7.41903 
2454 1 36.171 0.764 3 6.02468 -129471 -155135 -26067.9 26925.3 -29057.1 -26751.7 -7.41821 
7983 2 30.374 8.986 6.4 6.02221 -158759 -126656 -70926.9 21214.8 -8525.17 -26148 -7.41533 
7984 2 29.68 7.749 6.4 6.02292 -183711 -158038 -3294.4 11071.6 31511 -43306.2 -7.41967 
7985 2 30.405 6.531 6.4 6.02335 -127280 -178565 -62956 24302.7 -13261.6 -29499.9 -7.41572 
7986 2 29.712 5.294 6.4 6.0236 -131292 -144928 -14611.4 -18624.5 30248.7 -41562.2 -7.41827 
7987 2 30.437 4.075 6.4 6.02464 -165625 -125355 -54034.2 16773.9 -17826.3 -32710.2 -7.41621 
7988 2 29.743 2.838 6.4 6.02413 -170987 -123347 -25950.7 -12125.1 27807.7 -39537.2 -7.41825 
7989 2 30.468 1.619 6.4 6.02783 -124510 -144937 -43759.6 1679.34 -21894.4 -35570.1 -7.41662 
7990 2 29.775 0.382 6.4 6.02835 -130303 -156367 -37025.4 -19744.8 24690.3 -37202.8 -7.41698 
8118 2 31.791 9.005 6.4 6.02221 -176273 -127882 11871.5 -2732.7 32953.9 -41079.1 -7.42026 
8119 2 32.516 7.786 6.4 6.02699 -121930 -144521 -64549.6 3868.37 -13692.6 -25914.7 -7.41518 
8120 2 31.823 6.549 6.4 6.02498 -133439 -144380 -298.462 -23472 32421.6 -39616.2 -7.41939 
8121 2 32.548 5.33 6.4 6.02464 -115001 -126888 -55099.1 14737 -18151.5 -28978.2 -7.41603 
8122 2 31.854 4.093 6.4 6.02464 -172618 -125785 -12337.8 -9946.87 30800.9 -37901.6 -7.41894 
8123 2 32.579 2.874 6.4 6.02366 -123291 -144628 -44337.2 1178.17 -22288.7 -31748 -7.41675 
8124 2 31.886 1.637 6.4 6.0265 -129757 -144283 -24872.5 -23998.7 28388.1 -35831.9 -7.41771 
8125 2 32.611 0.418 6.4 6.02352 -130779 -154699 -32697.3 -524.714 -25877.1 -34222 -7.41744 
8253 2 34.627 9.041 6.4 6.02628 -129504 -158362 -67169.7 14011.5 -13976.3 -22010.2 -7.41547 
8254 2 33.934 7.804 6.4 6.02656 -135812 -142539 14083.2 -22311.5 33914.2 -36793.3 -7.42056 
8255 2 34.659 6.585 6.4 6.02417 -122483 -140838 -57125.9 1234.58 -18387.6 -25010.9 -7.41622 
8256 2 33.966 5.348 6.4 6.02217 -142427 -160862 1113.1 -5387.07 33131.3 -35306 -7.4195 
8257 2 34.69 4.129 6.4 6.02107 -130749 -162201 -46248 18417.9 -22460.2 -27596.5 -7.41659 
8258 2 33.997 2.892 6.4 6.02434 -136519 -177352 -11774.1 -2677.6 31341.6 -33578.9 -7.4192 
8259 2 34.722 1.674 6.4 6.02432 -134480 -175639 -33754.1 21405.7 -26224.5 -29941.6 -7.41775 
8260 2 34.029 0.437 6.4 6.01897 -132014 -139583 -24746 -15984.5 28826.4 -31463.3 -7.41768 
8388 2 36.045 9.059 6.4 6.02464 -141251 -144020 28356.5 -17328 34786.1 -33009.9 -7.42095 
8389 2 36.77 7.84 6.4 6.0239 -120571 -143697 -60360.1 4918.67 -18511 -20748.2 -7.41578 
8390 2 36.077 6.603 6.4 6.02311 -150926 -196408 14757.3 14012.3 34725.2 -31867.9 -7.42054 
8391 2 36.801 5.385 6.4 6.02311 -138286 -195173 -48893.4 33154.3 -22569.9 -23105.1 -7.41674 
8392 2 36.108 4.148 6.4 6.0239 -132016 -145743 1230.3 -15396.5 33758.6 -30332.2 -7.41944 
8393 2 36.833 2.929 6.4 6.02464 -127788 -143446 -36371.9 513.646 -26332.2 -25330 -7.41708 
8394 2 36.14 1.692 6.4 6.02134 -137801 -161521 -12575.2 -8561.02 31743.5 -28684.7 -7.4188 
8395 2 36.864 0.473 6.4 6.02446 -137018 -173946 -23089.8 5820.2 -29550 -27243.4 -7.41836 
8524 2 38.188 7.859 6.4 6.01968 -143994 -165290 28316.8 -441.245 35742.8 -27393.2 -7.42104 
8526 2 38.219 5.403 6.4 6.02417 -134750 -144372 14249.7 -18787.4 35386.8 -26301.8 -7.42047 
8528 2 38.251 2.947 6.4 6.02546 -140400 -162376 -556.688 -7039.52 34141.8 -24999.4 -7.41943 
8530 2 38.282 0.491 6.4 6.0246 -132598 -156388 -14555.9 -13336.1 31945.9 -23420.7 -7.41866 
2583 1 39.101 8.095 3 6.02546 -145916 -163755 32001 -7117.77 35402.9 -26586.4 -7.42139 
2584 1 38.377 6.876 3 6.02134 -130820 -159145 -54393.8 8741.41 -21798.1 -17698.1 -7.41636 
2585 1 39.07 5.639 3 6.02464 -136965 -146035 17756.1 3051.21 35305.7 -25841.3 -7.42031 
2586 1 38.345 4.42 3 6.0239 -123527 -144932 -41835.9 15814.2 -25686.4 -19760.9 -7.41688 
2587 1 39.038 3.183 3 6.0231 -146654 -198148 2701.56 -29680.3 34245.6 -24809.1 -7.41982 
2588 1 38.314 1.965 3 6.02311 -142654 -194635 -28769.2 -13382.2 -29059.6 -21722.9 -7.41802 
2589 1 39.007 0.728 3 6.02182 -124264 -124724 -11931.4 9205.5 32283.5 -23680.8 -7.41848 
2718 1 40.519 8.077 3 6.02464 -124708 -141947 -58517 17832.5 -21550.2 -13144.4 -7.41577 
2719 1 41.212 6.84 3 6.02134 -143843 -164233 29382.7 -6156.32 36217.3 -20640.6 -7.42136 
2720 1 40.488 5.621 3 6.02546 -132388 -160625 -46002.4 6826.19 -25359.7 -14841.9 -7.41673 
2721 1 41.181 4.384 3 6.02464 -133979 -146318 14276.9 6146.81 35799.5 -20001.1 -7.42035 
2722 1 40.456 3.165 3 6.02417 -125893 -143329 -32523.4 18861.6 -28929.2 -16428.3 -7.41769 
2723 1 41.149 1.928 3 6.02362 -140113 -165086 -1079.58 -8757.02 34426 -19092.6 -7.41911 
2724 1 40.425 0.709 3 6.02337 -139058 -175674 -18204.1 7541.4 -31910.5 -17943 -7.41828 
2853 1 43.355 8.04 3 6.02431 -144560 -182421 40437.1 -13030.2 36526.5 -14688.4 -7.42212 
2854 1 42.63 6.822 3 6.02431 -130213 -177408 -50778.7 -3950.72 -24771.5 -9944.41 -7.41668 
2855 1 43.323 5.585 3 6.01968 -141161 -167550 24769 -9882.1 36790.8 -14379 -7.42083 
2856 1 42.599 4.366 3 6.02362 -134995 -162161 -37507.8 2772.8 -28370.6 -11186.6 -7.41699 
2857 1 43.292 3.129 3 6.02417 -131966 -146323 9507.03 7510.11 35968.7 -13898.5 -7.42019 
2858 1 42.567 1.91 3 6.02467 -127207 -145674 -22731.7 16964.9 -31548.2 -12253.2 -7.4181 
2859 1 43.26 0.673 3 6.02547 -140332 -176492 -6322.93 -12027.7 34253.7 -13243.9 -7.41911 
2988 1 44.773 8.022 3 6.02134 -130227 -159739 -56469.1 2403.89 -23792.8 -5255.98 -7.41624 
2989 1 45.466 6.785 3 6.02464 -138443 -148281 34744.2 7977.14 37218.4 -8109.92 -7.42133 
2990 1 44.741 5.566 3 6.0239 -122738 -145944 -42925.3 9735.93 -27496.2 -5921.49 -7.41682 
2991 1 45.434 4.329 3 6.0231 -148157 -200277 19041.1 -24350.2 36906.8 -7963.72 -7.4208 
2992 1 44.71 3.111 3 6.02311 -140764 -197631 -28490.5 -19022.3 -30734 -6741.67 -7.41796 
2993 1 45.403 1.874 3 6.02389 -128861 -150006 3149.04 4021.55 35737.5 -7849.24 -7.41952 
2994 1 44.678 0.655 3 6.02468 -131274 -158606 -13413 17862.6 -33575.1 -7437.38 -7.41872 
3123 1 47.608 7.986 3 6.02299 -145965 -166095 42950.1 -1150.69 37164.4 -1553.42 -7.42205 
3124 1 46.884 6.767 3 6.02546 -131607 -161028 -49270.3 220.154 -26100.1 -1148.75 -7.41654 
3125 1 47.577 5.53 3 6.02464 -135444 -147747 27668.1 11397.7 37380.7 -1669.81 -7.42115 
3126 1 46.852 4.311 3 6.02417 -124947 -144030 -34935.2 12580.8 -29591.2 -1415.97 -7.41754 
3127 1 47.545 3.074 3 6.02362 -142077 -165578 11566.7 -3014 36677.3 -1782.55 -7.41991 
3128 1 46.821 1.855 3 6.02019 -134425 -164217 -20169.9 -5245.65 -32599.3 -1688.48 -7.41822 
3129 1 47.514 0.618 3 6.02461 -132759 -158851 -4139.79 855.213 35027.5 -1852.09 -7.41928 
8523 2 38.881 9.096 6.4 6.02431 -128402 -175981 -64099.3 19251.7 -18445.9 -16463.2 -7.41588 
8525 2 38.912 6.64 6.4 6.02362 -132819 -160677 -52773.2 11963 -22464.3 -18511.4 -7.41608 
8527 2 38.944 4.184 6.4 6.02464 -125254 -143293 -39856.5 -2833.54 -26278.5 -20453.9 -7.41712 
8529 2 38.975 1.728 6.4 6.02287 -133944 -162580 -26495.1 9434.77 -29554.1 -22112.3 -7.41797 
8658 2 40.299 9.114 6.4 6.02134 -146676 -163776 40868.8 -3938.51 35998.1 -22302.3 -7.42205 
8659 2 41.023 7.895 6.4 6.02546 -130579 -159994 -57317.6 8260.22 -22046.3 -13967.5 -7.41606 
8660 2 40.33 6.658 6.4 6.02464 -136841 -146002 26545.2 -17232.8 36420.4 -21478.1 -7.42108 
8661 2 41.055 5.439 6.4 6.02417 -123734 -142904 -44540.8 -4401.04 -25868.2 -15526.5 -7.41697 
8662 2 40.362 4.202 6.4 6.02362 -143424 -164027 11632.9 -3367.22 35790.2 -20448.3 -7.41992 
8663 2 41.086 2.983 6.4 6.01968 -132166 -164630 -30764.3 12923.4 -29289 -16943.4 -7.41751 
8664 2 40.393 1.746 6.4 6.02433 -138641 -178453 -3312.78 2944.59 34260.7 -19254.5 -7.41957 
8665 2 41.118 0.528 6.4 6.02372 -131762 -156753 -16131.1 26508.5 -32233.6 -18089.3 -7.41855 
8793 2 43.134 9.15 6.4 6.02134 -129374 -159108 -62690.4 6331.63 -21304.4 -9458.69 -7.41588 
8794 2 42.441 7.913 6.4 6.02464 -139867 -147517 38112 -13717.8 36796.4 -15932.6 -7.42154 
8795 2 43.166 6.694 6.4 6.0239 -121719 -145381 -49912.2 -1303.73 -25140.2 -10658.3 -7.41641 
8796 2 42.473 5.457 6.4 6.0231 -149570 -199617 22890.5 18032.3 36841.5 -15187.7 -7.42103 
8797 2 43.197 4.239 6.4 6.02311 -139587 -197110 -36202.2 27102.9 -28644.8 -11662 -7.4175 
8798 2 42.504 3.002 6.4 6.0239 -130736 -148613 7761.7 -10966.7 35917.5 -14258.6 -7.41984 
8799 2 43.229 1.783 6.4 6.02467 -128704 -146564 -21340.1 -5386.52 -31799.4 -12557.5 -7.41793 
8800 2 42.536 0.546 6.4 6.02222 -140379 -176034 -7891.62 3232.07 34098.9 -13343.1 -7.41903 
8928 2 44.552 9.168 6.4 6.0243 -147507 -183256 48640.3 5623.03 36580.3 -9746.19 -7.42236 
8929 2 45.277 7.95 6.4 6.02261 -129379 -177277 -55823.9 12508.5 -24001.7 -5966.47 -7.41638 
8930 2 44.584 6.713 6.4 6.01968 -142619 -167879 33549 3740.09 37282.2 -9148.88 -7.42135 