ITEM: TIMESTEP
160
ITEM: NUMBER OF ATOMS
12152
ITEM: BOX BOUNDS pp pp pp
0.0000000000000000e+00 9.5721004899999997e+01
0.0000000000000000e+00 1.6579364400000000e+02
0.0000000000000000e+00 1.8399999999999999e+01
ITEM: ATOMS id type x y z c_csym c_2[1] c_2[2] c_2[3] c_2[4] c_2[5] c_2[6] c_3 
152 1 0.885368 8.57888 2.91136 6.01346 -168154 -139013 -3237.98 -25559.5 15981.7 -3541.57 -7.41527 
153 1 0.152565 7.36529 2.90729 6.02132 -146705 -161410 2331.47 -18594.6 20946.1 -1388.2 -7.4155 
154 1 0.836569 6.12332 2.90379 6.01848 -164468 -143347 -1173.58 -13843.7 12982.6 -3188.17 -7.41512 
155 1 0.102848 4.91022 2.90064 6.02417 -148865 -159265 709.033 -8556.01 13963.5 -941.562 -7.41513 
156 1 0.786134 3.6679 2.89828 6.02279 -160357 -147628 -257.459 -5521.37 8642.04 -2746.73 -7.41498 
157 1 0.0517743 2.45513 2.89635 6.02722 -151267 -156830 47.7192 -2173.94 6841.76 -461.32 -7.41493 
158 1 0.734658 1.21262 2.89537 6.02759 -156197 -151948 -55.9369 -1161.58 3067.63 -2202.87 -7.41488 
159 1 -2.14618e-06 1.20439e-05 2.89487 6.03002 -153969 -154120 -66.02 78.9543 -0.525572 0.530289 -7.41486 
288 1 2.30286 8.54923 2.91218 6.01564 -158564 -149415 2846.36 -20785.8 23684.3 -4324.43 -7.41573 
289 1 2.98689 7.30719 2.90892 6.01603 -177042 -130428 -1008.54 -18810.2 14352 -10282.3 -7.41532 
290 1 2.25405 6.09356 2.90469 6.01917 -156951 -150929 853.019 -9020.03 16866.9 -4838 -7.4153 
291 1 2.93737 4.85121 2.90246 6.01999 -169667 -138124 98.3181 -8775.52 10796 -9569.96 -7.41516 
292 1 2.20361 3.63807 2.89923 6.02243 -155605 -152426 -12.7708 -590.512 9748.12 -5218.96 -7.41503 
293 1 2.88651 2.39555 2.89828 6.02458 -161920 -146204 258.823 -2414.5 5942.31 -8643.76 -7.41501 
294 1 2.15213 1.18277 2.89635 6.02542 -154571 -153568 -125.723 3657.76 2703.1 -5494.81 -7.41492 
423 1 5.13603 8.49224 2.91601 6.01299 -192044 -115306 379.087 -21478.4 15506.6 -17218.6 -7.41568 
424 1 4.40432 7.27792 2.91098 6.01164 -168149 -139617 -23.5069 -7405.29 18959.7 -7661.41 -7.41549 
425 1 5.0877 6.03553 2.90897 6.01727 -181790 -126089 1452.19 -9647.58 12820.5 -16338.6 -7.41549 
426 1 4.35481 4.82186 2.90468 6.01674 -163290 -144497 -820.288 2978.91 11976.5 -8925.31 -7.41519 
427 1 5.03777 3.57933 2.90382 6.02169 -170849 -137106 1346.5 -1365.85 8824.28 -15152.9 -7.4153 
428 1 4.30397 2.36616 2.90063 6.02054 -158542 -149237 -653.563 9411.08 4907.01 -9998.68 -7.41504 
429 1 4.98684 1.12364 2.90109 6.02236 -159453 -148499 517.792 2731.1 3610.35 -13640.3 -7.41514 
558 1 6.55341 8.46379 2.91896 6.00379 -181557 -125431 -2287.68 -4096.87 20230.9 -9408.21 -7.41565 
559 1 7.23689 7.22139 2.91723 6.01192 -195765 -111772 4114.26 -8450.18 14633.7 -22721 -7.41599 
560 1 6.50509 6.00701 2.91219 6.00979 -173637 -133558 -2804.15 8346.24 13468.7 -11490 -7.41534 
561 1 7.18816 4.76449 2.91143 6.01787 -182293 -125590 3570.85 1834.07 11583.5 -21374.4 -7.41574 
562 1 6.45519 3.55077 2.90726 6.01535 -165648 -141870 -2132.6 17030.7 6498.79 -13334.5 -7.41519 
563 1 7.13815 2.30828 2.9077 6.01936 -167960 -139971 2026.37 8119.82 7246.16 -19631.9 -7.4155 
564 1 6.4043 1.09506 2.90467 6.01813 -157595 -150083 -700.934 21258.4 -297.473 -14938.5 -7.41518 
693 1 9.38476 8.40917 2.92663 6.00471 -210817 -96333.3 8259.23 -5491.73 16184.1 -28463.2 -7.41663 
694 1 8.65423 7.19398 2.92111 6.00271 -185783 -120455 -6251.2 15049.2 14257 -12975.3 -7.41545 
695 1 9.33745 5.95149 2.92049 6.01172 -195392 -112284 7172.51 6856.71 14131.4 -27035.5 -7.41633 
696 1 8.60554 4.73707 2.91562 6.01007 -175162 -131575 -4929.43 26023.6 7464 -15495.6 -7.41532 
697 1 9.28863 3.49462 2.91603 6.01643 -178868 -128945 4801.79 15319.1 10760.9 -25162.2 -7.41601 
698 1 8.55557 2.28085 2.91213 6.01461 -164188 -142877 -2580.1 32556 715.818 -17748 -7.41534 
699 1 9.23884 1.0386 2.91372 6.01127 -161596 -145992 1646.4 19316.3 6147.43 -22839.5 -7.41571 
6096 2 0.532087 8.60738 6.48857 6.01791 -141542 -166520 3570.88 25404.3 24302.7 655.891 -7.41574 
6097 2 0.580891 6.1525 6.49619 6.02166 -144555 -163573 1346.63 13881.4 17535.9 -65.0578 -7.4153 
6098 2 0.631335 3.69757 6.50172 6.02461 -148116 -160104 258.623 5560.97 10457.9 -823.455 -7.41501 
6099 2 0.682814 1.24254 6.50463 6.02764 -151951 -156189 -55.9517 1152.46 3441.88 -1553.6 -7.41488 
6100 2 -6.77188e-06 2.27924e-06 6.50513 6.03 -154087 -154118 -66.2411 -68.2377 0.915279 0.37748 -7.41486 
6228 2 1.94967 8.63708 6.48782 6.00983 -151006 -156268 -2804.79 21530.3 16684.5 -5918.12 -7.41534 
6229 2 2.68306 7.42384 6.49104 6.01731 -131657 -176103 1453.13 19332.8 20561.2 -2932.99 -7.41549 
6230 2 1.99844 6.1823 6.49532 6.01673 -151918 -155958 -820.975 9680.4 13717.4 -5907.52 -7.41519 
6231 2 2.73256 4.96943 6.49754 6.01998 -138537 -169445 98.4334 9265.7 13687.8 -4563.71 -7.41516 
6232 2 2.04885 3.72741 6.50077 6.02243 -152759 -155345 -13.207 1044.11 9394.45 -5830.81 -7.41503 
6233 2 2.78341 2.51476 6.50172 6.02281 -145958 -161913 -257.159 2742.02 6700.95 -6109.38 -7.41498 
6234 2 2.1003 1.27239 6.50365 6.02725 -153500 -154516 47.706 -3498.65 3820.9 -5693.84 -7.41492 
6235 2 2.83496 0.0597724 6.50316 6.02531 -153910 -154260 -36.7796 322.629 11.5066 -7486.48 -7.41494 
6363 2 4.78647 8.69405 6.484 6.013 -115939 -191419 379.903 22513.6 22666.3 -4818.67 -7.41568 
6364 2 4.10069 7.45321 6.48903 6.01165 -140348 -167392 -24.1453 8725.73 16114.3 -12588.3 -7.41549 
6365 2 4.83475 6.24031 6.49108 6.01602 -125788 -181626 -1007.95 10844.3 16082.5 -7286.83 -7.41532 
6366 2 4.15013 4.99884 6.49532 6.01911 -144703 -163146 852.624 -1879.41 12623.2 -12187.6 -7.4153 
6367 2 4.88465 3.78614 6.49621 6.01846 -136523 -171203 -1173.31 2181.61 9253.42 -9648.18 -7.41512 
6368 2 4.20093 2.54417 6.49937 6.0242 -149187 -158930 708.933 -8865.46 7797.36 -11620.7 -7.41513 
6369 2 4.93557 1.33151 6.49891 6.01985 -147884 -160151 -502.609 -2517.62 2548 -11793.2 -7.41507 
6370 2 4.25244 0.089179 6.50077 6.02235 -153849 -154288 28.5319 -11477.3 1832.14 -10893.5 -7.41503 
6498 2 6.20421 8.72268 6.48112 6.00715 -126047 -181521 2071.7 6317.19 18136.1 -19001.2 -7.41594 
6499 2 6.93816 7.50972 6.48296 6.01306 -110692 -196241 -3439.34 10476.4 17656.5 -8974.3 -7.41547 
6500 2 6.2524 6.26895 6.48783 6.01563 -133654 -174250 2845.9 -6412.85 15587.2 -18349.3 -7.41573 
6501 2 6.98683 5.05618 6.48865 6.01348 -124119 -183018 -3238.23 -144.423 11058.3 -12068.9 -7.41527 
6502 2 6.30223 3.81476 6.49271 6.02135 -141475 -166526 2332.37 -15650.2 11675.6 -17446.1 -7.4155 
6503 2 7.03681 2.60204 6.49231 6.01418 -138480 -169036 -1934.3 -7141.62 4442.66 -14939.4 -7.41522 
6504 2 6.35308 1.3601 6.49531 6.01958 -149506 -158415 972.371 -20829.6 6488.34 -16307 -7.4153 
6505 2 7.08748 0.147223 6.49359 6.01573 -153229 -154631 2.72686 -9999 -1794.6 -17481.3 -7.41531 
6633 2 9.04297 8.77728 6.47388 6.00943 -93906.4 -212079 -7407.62 8663.19 18483.8 -9738.8 -7.41555 
6634 2 8.35591 7.53732 6.47898 6.01257 -120339 -187588 6218.33 -11843.6 18129.7 -24080.6 -7.41631 
6635 2 9.0902 6.32445 6.4797 6.00862 -109654 -196615 -6743.97 -3851.77 12160.2 -13427.7 -7.41538 
6636 2 8.40449 5.08372 6.48429 6.01622 -131008 -176822 5223.14 -23416.5 15245.1 -22913.1 -7.41602 
6637 2 9.13898 3.87089 6.48396 6.00748 -126482 -180283 -4696.25 -13192.8 5697.12 -16911.1 -7.41536 
6638 2 8.45438 2.62951 6.48777 6.01596 -142013 -165700 3072.1 -31140.6 11006.6 -21456.5 -7.41573 
6639 2 9.18874 1.41655 6.48625 6.00832 -144010 -163248 -1716.86 -18535.1 -539.376 -20075.8 -7.41548 
6640 2 8.50497 0.17466 6.48902 6.01568 -153126 -154294 278.666 -34307 5577.92 -19733.4 -7.41549 
828 1 10.802 8.38308 2.93084 5.99577 -199011 -105950 -11268.8 22553.7 14433.4 -13531.4 -7.41549 
829 1 11.4855 7.14066 2.93032 6.00516 -209306 -98158.9 12250.7 13177.9 16395.9 -31933.8 -7.41706 
830 1 10.7548 5.92544 2.92505 6.00373 -186258 -119434 -9246.82 35757.3 7866.42 -16599.3 -7.4154 
831 1 11.4381 4.68307 2.9254 6.0119 -191444 -116426 9021.72 23853.3 14047.9 -30013.9 -7.41667 
832 1 10.706 3.46861 2.92092 6.01044 -173074 -133243 -5905.75 44770.6 1230.96 -19390.5 -7.41545 
833 1 11.3894 2.22643 2.92232 6.0074 -172231 -135398 4691.16 30223.9 10367.5 -27620.3 -7.41626 
834 1 10.6563 1.01259 2.91885 6.01218 -159604 -147242 -1758.24 48948.9 -5086.5 -21905.6 -7.41565 
963 1 13.6322 8.33224 2.94035 5.99855 -223390 -83720.8 18746.7 20299.1 18302 -35908.4 -7.41789 
964 1 12.9028 7.11614 2.9349 5.99762 -198115 -106080 -15104.3 45759.9 7816.66 -16812 -7.41539 
965 1 13.5863 5.87389 2.93517 6.00583 -204550 -103196 14710.9 33176.9 17008.9 -34023.1 -7.41744 
966 1 12.8554 4.65864 2.93036 6.00656 -183539 -121884 -10796.4 57202.7 1335.87 -20018.6 -7.4155 
967 1 13.539 3.41657 2.93155 6.00417 -184327 -123461 9250.91 41935.4 14325.8 -31645.7 -7.41694 
968 1 12.8068 2.20206 2.92763 6.00932 -168198 -137916 -5360.42 63881.1 -4955.63 -22947.8 -7.41574 
969 1 13.4908 0.960311 2.92984 5.99826 -163099 -144137 2933.25 45886.3 10328.5 -28804.7 -7.41644 
1098 1 15.0494 8.30932 2.94464 5.99207 -210214 -92252.9 -22341.7 55435.6 7429.74 -16306.5 -7.4153 
1099 1 15.7333 7.06724 2.94478 5.99981 -217656 -89872.7 21740 42779.1 19539.3 -37058.5 -7.41831 
1100 1 15.0036 5.85114 2.93986 6.00114 -194498 -109492 -17185.1 69306.2 1147.27 -19806.5 -7.41545 
1101 1 15.6876 4.60922 2.9408 5.99972 -197086 -110890 15282.5 54006.2 17895.5 -34778.3 -7.41772 
1102 1 14.9564 3.39394 2.93666 6.0072 -178064 -127102 -10562.2 78522.1 -5078.32 -23032.4 -7.41576 
1103 1 15.6406 2.15231 2.93855 5.99437 -174885 -132412 7627.22 60474 14831.9 -32033.5 -7.41711 
1104 1 14.9083 0.937733 2.93532 6.00217 -161096 -144794 -3074.69 82615 -10853.4 -25998.6 -7.41619 
1233 1 17.879 8.26317 2.95383 5.9942 -229809 -77355 29842.4 52142.2 21544.1 -39025.6 -7.41923 
1234 1 17.1506 7.0462 2.94893 5.99637 -205425 -97000.6 -24836.8 80530.7 774.817 -18923.4 -7.41531 
1235 1 17.8349 5.80447 2.94961 5.99518 -209454 -98400.2 22587.7 65868.5 20952.7 -36913.9 -7.41858 
1236 1 17.1048 4.58838 2.94541 6.00524 -188533 -115398 -17218.9 92470.9 -5338.93 -22335.6 -7.41567 
1237 1 17.7894 3.34692 2.94696 5.9912 -187283 -120120 13801.5 74998.1 18877.2 -34338.9 -7.41787 
1238 1 17.058 2.1316 2.94362 5.99889 -170673 -134141 -8386.2 99222.6 -11148.6 -25489.3 -7.41616 
1239 1 17.743 0.890518 2.94607 5.98494 -164098 -142518 4109.7 78881.7 15413 -31346.7 -7.41716 
6768 2 10.4608 8.80364 6.46945 6.00823 -105417 -202477 11079 -17854.6 20146.9 -29193.9 -7.41701 
6769 2 11.1949 7.59063 6.47005 6.00246 -93841 -211238 -11803 -8715.08 12642.6 -13877.1 -7.41542 
6770 2 10.5079 6.35069 6.47479 6.01006 -118604 -189067 9556.24 -31701.4 18352 -27834.2 -7.41668 
6771 2 11.2423 5.13772 6.47452 6.00056 -112621 -192827 -8988.02 -20274.1 6377.1 -17823.9 -7.41544 
6772 2 10.5566 3.89702 6.47878 6.00935 -132180 -175207 6569.15 -41881.2 15175.1 -26137.6 -7.41631 
6773 2 11.2909 2.68394 6.47751 6.00069 -132463 -173915 -4927.67 -28126.3 196.674 -21483.5 -7.4156 
6774 2 10.6063 1.4426 6.48101 6.01084 -145956 -161246 2604.46 -47809.5 10676.6 -24154.6 -7.41595 
6775 2 11.3402 0.229228 6.47864 6.00299 -152529 -154693 -165.624 -31544.3 -5514.43 -24767.7 -7.41589 
6903 2 13.3011 8.85448 6.46028 5.99668 -77666.6 -225847 -18344.6 -14256.9 12598.7 -13605.6 -7.41537 
6904 2 12.6128 7.61539 6.46483 6.0036 -104948 -202406 15351.3 -40016.8 20887.4 -32051.8 -7.41747 
6905 2 13.3469 6.40224 6.46459 5.99399 -97759.7 -206159 -14827.7 -27979.7 6573.27 -17854.7 -7.41543 
6906 2 12.66 5.1623 6.46896 6.00224 -120584 -186403 11560.6 -52724.6 18834.5 -30195.1 -7.41702 
6907 2 13.3942 3.94907 6.46794 5.99321 -119166 -185805 -9737.71 -38412.4 498.346 -21858.2 -7.41565 
6908 2 12.7085 2.70839 6.47185 6.00305 -136656 -170300 6455.1 -61348.2 15379.5 -28034.2 -7.41655 
6909 2 13.4423 1.4949 6.46992 5.99456 -141270 -165015 -3611.72 -44524.9 -5266.33 -25529.3 -7.41599 
6910 2 12.7577 0.253621 6.47308 6.00619 -152625 -154001 604.231 -65169.8 10656.5 -25615.6 -7.41611 
7038 2 14.7191 8.87767 6.45497 5.99727 -90962.3 -216161 22475.3 -47912.4 22772.5 -35421.2 -7.41835 
7039 2 15.4529 7.6643 6.45473 5.98808 -82684.4 -219394 -22054 -35812 6376.26 -17193 -7.41533 
7040 2 14.7647 6.42517 6.4589 5.99513 -108117 -198464 17988.5 -62979.3 21864.4 -33493.5 -7.41785 
7041 2 15.4987 5.21174 6.45809 5.98627 -105197 -197985 -16073.3 -48672 463.011 -21388.3 -7.4156 
7042 2 14.8118 3.97179 6.46211 5.99511 -125803 -180450 11851.5 -74336.4 19519.3 -31238.3 -7.41728 
7043 2 15.5456 2.75815 6.46062 5.98667 -128675 -176216 -8713.11 -57646.9 -5296.18 -25298.4 -7.416 
7044 2 14.8599 1.51751 6.46417 5.99746 -143697 -162623 4619.17 -81114.2 15779.7 -28730.5 -7.41671 
7045 2 15.5931 0.30348 6.46186 5.98933 -152118 -154239 -593.133 -61677.6 -10524.3 -28862.3 -7.41652 
7173 2 17.5604 8.92384 6.44535 5.98307 -68260 -231371 -30359.4 -43211.5 5870.79 -16015.9 -7.41514 
7174 2 16.8709 7.68553 6.44906 5.98841 -95353.5 -210237 25644.9 -72157.2 24174.2 -35912.7 -7.41875 
7175 2 17.6045 6.47185 6.44843 5.98028 -91236.4 -209760 -23698.4 -58550.7 178.297 -20261.3 -7.41545 
7176 2 16.9164 5.23268 6.45227 5.98746 -114311 -191218 18659.6 -86228.8 22965.5 -33650.7 -7.41812 
7177 2 17.65 4.01883 6.45119 5.97949 -115493 -187469 -15313.8 -70240.6 -5504.63 -24267.7 -7.41591 
7178 2 16.9632 2.77891 6.45487 5.98884 -133567 -172036 10233.7 -95905.1 20285.7 -31134.6 -7.41743 
7179 2 17.6964 1.56473 6.45319 5.98103 -140059 -164982 -5822.63 -77316.7 -10830.9 -27977.2 -7.41649 
7180 2 17.0106 0.324165 6.45639 5.99268 -152500 -153142 993.425 -100404 16256 -28413.9 -7.41676 
7308 2 18.9784 8.9434 6.43985 5.98242 -83177.8 -221145 34204.4 -79996.7 25717 -37370.1 -7.4197 
7310 2 19.0224 6.49103 6.44276 5.98043 -102825 -201443 26605.5 -96518 25627.5 -35182.6 -7.41901 
7312 2 19.0677 4.03774 6.44559 5.98074 -122990 -181705 17236 -109118 24041.7 -32736.3 -7.41825 
7314 2 19.1139 1.58348 6.44786 5.98348 -142958 -162105 6709.44 -116702 20993.8 -30097.4 -7.41746 
1368 1 19.2962 8.24383 2.95725 5.99237 -215500 -84949.8 -33394 90550.4 308.807 -17526.5 -7.4151 
1369 1 19.981 7.00234 2.95766 5.9912 -220683 -86818 30849.4 76960.4 23398.5 -37998 -7.41949 
1370 1 19.2521 5.78542 2.9535 6.0014 -198721 -103998 -25035.7 105092 -5639.28 -21025.2 -7.4155 
1371 1 19.937 4.54416 2.9547 5.98701 -199279 -108461 21197.5 88849.5 22334.8 -35651.1 -7.4187 
1372 1 19.2067 3.32807 2.95137 5.99631 -180750 -123200 -15119.6 114591 -11434.1 -24269.5 -7.41604 
1373 1 19.892 2.08715 2.95344 5.9815 -176359 -130493 10305.5 95536.9 19781.6 -32899.4 -7.41788 
1374 1 19.1604 0.871777 2.95099 5.98875 -162219 -142530 -4307.45 118609 -16682.3 -27281.4 -7.4167 
1503 1 22.1259 8.20275 2.96481 5.98794 -230124 -76556.8 39677.5 86880.7 25173.3 -38046.2 -7.42041 
1504 1 21.3982 6.98502 2.96073 5.99694 -207729 -93106.9 -33629.7 115931 -5912.42 -19259.3 -7.41524 
1505 1 22.0836 5.74401 2.96159 5.98284 -209940 -97475.3 29461 101425 25112.4 -35962.1 -7.41957 
1506 1 21.3543 4.52714 2.95831 5.99439 -190372 -112347 -22939.1 128299 -11631.8 -22508.9 -7.41582 
1507 1 22.0399 3.28642 2.96001 5.97884 -188025 -119045 17685.9 110929 23508 -33492.6 -7.41866 
1508 1 21.3093 2.07031 2.95761 5.98568 -172186 -131841 -11012.2 135134 -16968.8 -25526.2 -7.41654 
1509 1 21.9955 0.829991 2.9601 5.97274 -164862 -141044 5004.57 114885 20486.5 -30682.5 -7.41775 
1638 1 23.5431 8.18706 2.96704 5.99334 -215102 -83599 -42585.6 124582 -6120.59 -17192.7 -7.41493 
1639 1 24.229 6.94634 2.9676 5.97957 -218835 -87946.1 38198.4 112187 27160.8 -35332.6 -7.42044 
1640 1 23.5008 5.72871 2.96435 5.99168 -198790 -102258 -31449.2 139729 -11700.2 -20368.4 -7.41553 
1641 1 24.1868 4.48823 2.96569 5.97537 -198537 -108557 25874.7 124551 26511.5 -33163.6 -7.41947 
1642 1 23.4572 3.2714 2.96334 5.98339 -181399 -121470 -18756.3 149423 -17059.2 -23322.7 -7.41628 
1643 1 24.1436 2.03125 2.96547 5.97005 -176582 -129564 12334.3 131483 24358.7 -30680.4 -7.41848 
1644 1 23.4129 0.815105 2.96399 5.97572 -163099 -140526 -5181.6 153346 -21812.3 -26073.5 -7.41714 
1773 1 26.3734 8.15096 2.9728 5.97714 -225319 -80551.1 47042.6 120676 28488.3 -33883.3 -7.42129 
1774 1 25.6462 6.93262 2.96956 5.98892 -205547 -93832.5 -40251.8 148405 -11624.1 -17999.4 -7.41519 
1775 1 26.3328 5.69242 2.97057 5.9721 -207012 -99587 34487.5 135870 28762.6 -32008.7 -7.42029 
1776 1 25.6041 4.47488 2.96821 5.98191 -189533 -111966 -27143.6 161158 -16936.2 -20829.9 -7.41595 
1777 1 26.2909 3.23495 2.96999 5.96829 -186985 -119313 20435.2 145752 27498.3 -29854.6 -7.41923 
1778 1 25.561 2.01813 2.96855 5.97323 -172476 -130420 -12841 168034 -21815.6 -23464.1 -7.41684 
1779 1 26.2482 0.778564 2.97098 5.96267 -165379 -139413 5521.9 149735 24841.6 -27451.9 -7.41817 
1908 1 27.7906 8.13865 2.97406 5.98693 -209930 -86928 -49009.5 154400 -11409.7 -15533.5 -7.41483 
1909 1 28.4777 6.89876 2.97481 5.96979 -213221 -92517.4 43185.7 144519 30283.9 -30165.8 -7.42109 
1910 1 27.75 5.68057 2.97235 5.98086 -195759 -104003 -35802.2 169824 -16607.3 -18189.1 -7.41558 
1911 1 28.4372 4.44089 2.97381 5.96569 -195366 -110674 28941.6 157299 29896.3 -28322.5 -7.42 
1912 1 27.7082 3.22342 2.9723 5.97165 -180431 -121450 -21123.6 179803 -21540.4 -20666.1 -7.41647 
1913 1 28.3957 1.98404 2.97441 5.96065 -175935 -129257 13558.3 164461 28047 -26266.8 -7.41887 
1914 1 27.6656 0.767195 2.9738 5.96429 -163851 -138708 -5609.29 183647 -25840.5 -22974.6 -7.41747 
7309 2 19.7117 7.72942 6.43934 5.97532 -78018.3 -220118 -32257.1 -67531.9 -279.623 -18654.7 -7.41522 
7311 2 19.7556 5.27693 6.44204 5.97343 -102533 -198028 -23120.8 -81910.5 -5813.63 -22627.8 -7.41572 
7313 2 19.8007 2.82337 6.44449 5.97373 -127510 -175550 -12535.3 -91918.8 -11156 -26351.7 -7.41634 
7315 2 19.8463 0.36869 6.44617 5.97637 -152421 -153024 -1165.54 -96622.5 -15941.7 -29786.8 -7.41708 
7443 2 21.8202 8.98454 6.4311 5.97173 -66309.4 -228699 -41334.1 -75240.9 -836.764 -16733.1 -7.41492 
7444 2 21.1297 7.74689 6.43393 5.97438 -92035.8 -210713 35320.7 -104904 27467 -35796.7 -7.41995 
7445 2 21.8626 6.5325 6.43349 5.96867 -90320.2 -207341 -31750.6 -92116 -6161.63 -20564.3 -7.41544 
7446 2 21.1734 5.29403 6.43669 5.97352 -112603 -190879 25301.2 -120285 26967.5 -33486.7 -7.41912 
7447 2 21.9062 4.07943 6.43609 5.96768 -115303 -185306 -20392.1 -104987 -11437.8 -24188.1 -7.4161 
7448 2 21.2183 2.84024 6.4394 5.97504 -133022 -171022 13797 -130892 24948.2 -30992.9 -7.41823 
7449 2 21.9507 1.62528 6.43843 5.96901 -140527 -163151 -7914.64 -112872 -16338 -27570.1 -7.41688 
7450 2 21.2638 0.385468 6.44149 5.97911 -153096 -151311 1465.21 -136082 21527.9 -28342.8 -7.41736 
7578 2 23.2383 9.00041 6.42603 5.96952 -82557.3 -218194 44404.6 -111213 28502.6 -35519.4 -7.42088 
7579 2 23.9707 7.78567 6.42581 5.96529 -79718.6 -214602 -40789.8 -100574 -6495.28 -18250.6 -7.41511 
7580 2 23.2804 6.5479 6.42848 5.96744 -102819 -198782 34041 -129095 29038.2 -33393.1 -7.42002 
7581 2 24.0129 5.33302 6.4283 5.96303 -104099 -193614 -28996 -116222 -11635.4 -21680.7 -7.41578 
7582 2 23.3239 4.09451 6.43133 5.96768 -123463 -179223 21891.3 -142648 28053.8 -31093.1 -7.41906 
7583 2 24.0561 2.87934 6.43098 5.96303 -129008 -172270 -15767 -127087 -16559.6 -24911.2 -7.41659 
7584 2 23.3682 1.64018 6.43404 5.97043 -143829 -159811 8594.99 -150983 25582.3 -28654.4 -7.41809 
7585 2 24.0999 0.424597 6.43326 5.96537 -153350 -150829 -1768.21 -132300 -20926.4 -27919.6 -7.4175 
7713 2 26.0801 9.03666 6.41917 5.96337 -71148.4 -219508 -49857 -107105 -6769.57 -15837.6 -7.41475 
7714 2 25.3887 7.79953 6.4212 5.96269 -94573.2 -204916 43062.9 -135425 30289.3 -32517.7 -7.42091 
7715 2 26.1207 6.58432 6.42135 5.9599 -94485.2 -200005 -37950.1 -125255 -11720.6 -19006.4 -7.41541 
7716 2 25.4307 5.34644 6.42391 5.96161 -114804 -186160 30596.5 -151803 30301.2 -30442 -7.41991 
7717 2 26.1626 4.13103 6.42408 5.95854 -118584 -179962 -24320.6 -139024 -16593.2 -22009 -7.41623 
7718 2 25.4737 2.8925 6.42694 5.96296 -134929 -167546 16692.1 -163095 28795.5 -28244.7 -7.41887 
7719 2 26.2053 1.67676 6.42685 5.95938 -142425 -159773 -9613.76 -147391 -21085.1 -24828.9 -7.41715 
7720 2 25.5173 0.437657 6.42967 5.96686 -154276 -148921 1993.97 -168697 25883.9 -25925.6 -7.41782 
7848 2 27.4981 9.04914 6.41498 5.95943 -88152 -208828 52024.8 -139270 30800.6 -30968.5 -7.42177 
7849 2 28.2296 7.83356 6.4154 5.95838 -86830.7 -203999 -46907.6 -131881 -11677.2 -16310.9 -7.41502 
7850 2 27.5386 6.59627 6.41738 5.95701 -107543 -191295 39543.8 -158092 31735.8 -29125.8 -7.42076 
7851 2 28.2701 5.38056 6.41795 5.95566 -109595 -185726 -33201.9 -148424 -16440.4 -19033.5 -7.41582 
7852 2 27.5803 4.14261 6.42042 5.95692 -127140 -173836 25361.6 -172325 31174.3 -27182.4 -7.41967 
7853 2 28.3117 2.92666 6.42089 5.95505 -132544 -167106 -18137.2 -159798 -20976.5 -21606.4 -7.41674 
7854 2 27.6228 1.68814 6.42357 5.9593 -145951 -156262 10099.9 -181151 29149.4 -25137.9 -7.41855 
7855 2 28.3537 0.471808 6.42365 5.95676 -154813 -148086 -2341.24 -165337 -24964.3 -24021.7 -7.41777 
2043 1 30.6219 8.10698 2.9786 5.96837 -216682 -87723.8 51704.6 150392 31129 -27789.4 -7.42187 
2044 1 29.8949 6.88822 2.97598 5.97888 -199837 -98058 -44430.5 175523 -16098.4 -15518.8 -7.41519 
2045 1 30.5827 5.64883 2.97715 5.96348 -201454 -103977 37542.6 166075 31582.1 -26225.5 -7.42075 
2046 1 29.8544 4.43077 2.97547 5.97078 -186441 -113815 -29685.1 188440 -21013.1 -17803.5 -7.41606 
2047 1 30.5424 3.19159 2.97726 5.95861 -184380 -120700 21997.3 176238 30547.3 -24489.1 -7.41959 
2048 1 29.813 1.97416 2.97654 5.96263 -171884 -129873 -13829 195442 -25471.9 -19935.3 -7.41706 
2049 1 30.5013 0.735298 2.9788 5.95421 -165731 -137950 5661.06 180249 28179.5 -22598.8 -7.41843 
2178 1 32.0391 8.09755 2.97929 5.97776 -201242 -93929.4 -52805 178176 -15436.7 -12915.8 -7.41479 
2179 1 32.7274 6.85848 2.98023 5.96219 -204713 -99409.6 46006.5 171763 32608.3 -23702.7 -7.42149 
2180 1 31.9999 5.6399 2.97829 5.97055 -190216 -108225 -38252.8 193894 -20269.3 -14976.5 -7.41563 
2181 1 32.6883 4.40098 2.97978 5.95699 -190450 -114226 30556.2 184892 32374.1 -22250.8 -7.4203 
2182 1 31.9596 3.18301 2.97881 5.96178 -177935 -122669 -22347 204017 -24812.5 -16909.7 -7.41661 
2183 1 32.6482 1.94431 2.98078 5.9524 -174439 -129443 14068.2 192206 30744.5 -20680.8 -7.4191 
2184 1 31.9187 0.726885 2.98072 5.95508 -164289 -137125 -5670.88 207879 -28721.8 -18713.6 -7.4177 
2313 1 34.8715 8.06956 2.9832 5.96184 -205043 -97195.3 54166.6 174365 33043.3 -20874.2 -7.4222 
2314 1 34.1446 6.85054 2.98096 5.97058 -191343 -104753 -46625.9 196118 -19343.9 -12262.2 -7.41521 
2315 1 34.8335 5.61189 2.98219 5.95603 -193710 -109956 39029.7 190359 33575.3 -19671 -7.42101 
2316 1 34.1055 4.39347 2.98088 5.96158 -181609 -117443 -30912.3 209235 -23903.8 -13976.5 -7.41615 
2317 1 34.7944 3.15497 2.98255 5.951 -180646 -123050 22626.5 200827 32690.5 -18384.2 -7.41978 
2318 1 34.0655 1.93707 2.9822 5.95424 -170502 -130032 -14181.4 216374 -28003.7 -15583.7 -7.41721 
2319 1 34.7547 0.698794 2.98415 5.9476 -165841 -136483 5510.65 204989 30537.7 -17021.8 -7.41856 
2448 1 36.2887 8.0624 2.98363 5.97041 -189647 -103382 -54673 195274 -18270.9 -9712.71 -7.4148 
2449 1 36.9782 6.82405 2.98466 5.95565 -194116 -107878 47270.1 192718 34209.6 -16848.3 -7.4217 
2450 1 36.2507 5.60525 2.98295 5.96188 -182555 -114206 -39345.9 211206 -22786.1 -11191.6 -7.41569 
2451 1 36.9401 4.36698 2.98434 5.94998 -184004 -118938 31152 206073 34058.6 -15807.4 -7.42046 
2452 1 36.2117 3.14869 2.98358 5.95407 -174287 -125116 -22780.4 221468 -27006.3 -12590.4 -7.41671 
2453 1 36.9011 1.91055 2.98524 5.9466 -172232 -130212 14083.2 213596 32581.7 -14720.7 -7.41921 
2454 1 36.172 0.692679 2.98539 5.94833 -164524 -135913 -5506.53 225510 -30608.5 -13898.7 -7.41784 
7983 2 30.3395 9.08102 6.41053 5.95834 -81359.8 -205577 -55603.8 -136015 -11495.2 -13700.8 -7.41462 
7984 2 29.6475 7.84423 6.41187 5.95402 -102187 -194309 48422.5 -161553 32442.3 -27255.7 -7.42158 
7985 2 30.3786 6.62819 6.41275 5.95439 -102647 -189155 -42099 -155006 -16108.6 -16117.5 -7.41539 
7986 2 29.6878 5.39076 6.4147 5.95246 -120599 -178166 34259.4 -178555 32770.5 -25563.2 -7.42047 
7987 2 30.4189 4.17455 6.41561 5.95242 -124283 -172340 -26986.7 -169328 -20625.2 -18407.5 -7.41629 
7988 2 29.7292 2.93656 6.41797 5.95331 -138665 -162127 18756.5 -190316 31626.7 -23792.4 -7.41931 
7989 2 30.46 1.72007 6.41862 5.95211 -145478 -155224 -10864.7 -177991 -24759.5 -20568.7 -7.41732 
7990 2 29.7711 0.481601 6.4211 5.95672 -155936 -146024 2521.96 -196114 29117.1 -21924.4 -7.41815 
8118 2 31.7574 9.09063 6.40742 5.95261 -98729.8 -195032 57002.5 -162319 32520.3 -24944.5 -7.42236 
8119 2 32.4879 7.87419 6.40856 5.95404 -97880.8 -190261 -50774.1 -158911 -15605.6 -13350.1 -7.41496 
8120 2 31.7964 6.63722 6.40992 5.94968 -115964 -180611 43109.5 -181722 33664.1 -23491.6 -7.42125 
8121 2 32.527 5.42072 6.41117 5.95083 -117861 -175540 -35878.3 -175904 -20055 -15340.8 -7.41583 
8122 2 31.8365 4.18319 6.41306 5.94897 -133025 -166215 27643.3 -196334 33367.7 -21982.4 -7.42007 
8123 2 32.5671 2.9665 6.41417 5.94891 -137825 -160425 -19721 -187559 -24267 -17224.6 -7.41683 
8124 2 31.8775 1.7285 6.41638 5.95077 -149213 -151757 11186.5 -205291 31664.6 -20397.8 -7.41886 
8125 2 32.6077 0.511504 6.41704 5.94941 -156786 -145002 -2880.18 -193082 -27940 -19003.8 -7.41793 
8253 2 34.598 9.11888 6.40538 5.9544 -95282.5 -188954 -59066.8 -160201 -14942.1 -10785.4 -7.41455 
8254 2 33.9057 7.88229 6.40614 5.94849 -113352 -180870 51706.7 -182080 33945.1 -21061.9 -7.422 
8255 2 34.6359 6.66545 6.40765 5.95013 -113497 -176389 -44600.3 -179597 -19288.6 -12475.9 -7.41537 
8256 2 33.9447 5.42832 6.409 5.94631 -128968 -168173 36514.4 -199342 34441.5 -19799.3 -7.42081 
8257 2 34.6749 4.21138 6.41045 5.94731 -131794 -163403 -28651.7 -194121 -23524.5 -14073.7 -7.41633 
8258 2 33.9846 2.97379 6.41224 5.94648 -144075 -155573 20092.4 -211285 33529.8 -18481.7 -7.41958 
8259 2 34.7147 1.75665 6.41335 5.94623 -149308 -150064 -11763.1 -202751 -27378.4 -15586.4 -7.4174 
8260 2 34.025 0.51867 6.41536 5.94913 -157948 -142862 3005.93 -217061 31311.2 -17082.6 -7.41837 
8388 2 36.0159 9.12626 6.40333 5.94891 -112722 -178871 59911.6 -179788 33700.4 -18354 -7.42272 
8389 2 36.7455 7.90903 6.40507 5.95069 -111351 -174958 -53008 -180552 -18346.2 -9849.07 -7.41493 
8390 2 36.0536 6.67223 6.40585 5.9453 -126875 -168179 45188.8 -199419 34927.1 -17318.4 -7.42154 
8391 2 36.7834 5.455 6.40756 5.94702 -127769 -164255 -37466.5 -197632 -22564.8 -11164.7 -7.41584 
8392 2 36.0925 4.21775 6.40885 5.94388 -140500 -157438 29018.9 -214142 34774.5 -16248.7 -7.4203 
8393 2 36.8223 3.00041 6.4103 5.94466 -143759 -153078 -20752.8 -209298 -26539.6 -12407.4 -7.41687 
8394 2 36.1321 1.76279 6.41193 5.94486 -153069 -146696 11937 -223009 33281.7 -15115.4 -7.41905 
8395 2 36.8617 0.545242 6.41284 5.94444 -158830 -141712 -3392.11 -214721 -29981.6 -13589.9 -7.418 
8524 2 38.1632 7.91521 6.40359 5.94588 -126807 -166008 53541 -196716 34898.1 -14598.1 -7.42224 
8526 2 38.201 5.46067 6.40628 5.94296 -138853 -157313 37805.9 -214005 35464.9 -13756.5 -7.42101 
8528 2 38.2398 3.00576 6.40916 5.94229 -150064 -148593 20928.2 -225843 34685.3 -12870.2 -7.41974 
8530 2 38.2791 0.550459 6.41182 5.94405 -160061 -139832 3434.38 -231494 32660.2 -11915.5 -7.4185 
2583 1 39.1224 8.03715 2.98725 5.95573 -191609 -108175 55183.2 191993 34330.7 -13853.5 -7.42236 
2584 1 38.3954 6.81806 2.98515 5.96262 -180806 -113211 -47524.8 210025 -21496.9 -8593.99 -7.41525 
2585 1 39.0852 5.58004 2.9863 5.94962 -184656 -116987 39511.8 208181 34893.2 -13028.1 -7.42113 
2586 1 38.3573 4.36143 2.98507 5.95443 -175258 -122192 -31305.3 223301 -25770.9 -9770.47 -7.41622 
2587 1 39.0471 3.12347 2.98645 5.94554 -175975 -126166 22674.8 218854 34102.5 -12181 -7.41987 
2588 1 38.3184 1.90527 2.98615 5.94815 -168348 -130985 -14146.1 230565 -29596.4 -10881.9 -7.41731 
2589 1 39.0083 0.667432 2.98763 5.94346 -165419 -135415 5184.39 223253 32098 -11315.5 -7.41862 
2718 1 40.5397 8.03161 2.98753 5.96305 -176290 -114379 -55365.6 205839 -20064.2 -6209.05 -7.41483 
2719 1 41.23 6.79386 2.98849 5.94972 -182339 -117370 47616.7 207196 35231.3 -10096.2 -7.42178 
2720 1 40.5025 5.57502 2.98681 5.95515 -173605 -121384 -39639.6 221887 -24335.2 -7150.98 -7.41575 
2721 1 41.1926 4.33726 2.98792 5.94515 -176721 -124356 31163.7 220751 35128.2 -9460.11 -7.42052 
2722 1 40.4644 3.1188 2.9871 5.94856 -169691 -128411 -22762.5 232353 -28314.9 -8052.95 -7.41679 
2723 1 41.1544 1.88108 2.9883 5.94276 -169555 -131573 13829.3 228503 33749.5 -8825.78 -7.41925 
2724 1 40.4256 0.662923 2.98837 5.94389 -164144 -135165 -5222.19 236576 -31701.3 -8899.46 -7.41793 
2853 1 43.3746 8.00815 2.9909 5.95033 -177104 -120015 55398.1 203170 35110.9 -7036.81 -7.42242 
2854 1 42.6474 6.78916 2.9888 5.95567 -169096 -122868 -47699.2 217460 -22725.3 -4746.92 -7.41529 
2855 1 43.3379 5.55162 2.98969 5.94524 -174644 -124833 39462.9 219581 35684.9 -6592.36 -7.42117 
2856 1 42.6099 4.33298 2.98836 5.94926 -168042 -127766 -31245.9 230879 -26798.5 -5427.14 -7.41628 
2857 1 43.3003 3.09541 2.98928 5.94224 -170676 -129814 22429.5 230430 34951.5 -6161.25 -7.41989 
2858 1 42.5717 1.87706 2.98881 5.9443 -165765 -132746 -13904.6 238420 -30439.7 -6074.77 -7.41738 
2859 1 43.262 0.639524 2.98969 5.9415 -164954 -135140 4786.31 235155 33037.8 -5747.96 -7.41864 
2988 1 44.792 8.00355 2.99101 5.95662 -161844 -126446 -55420.3 210043 -20966.2 -2568.61 -7.41487 
2989 1 45.4831 6.76627 2.99174 5.94578 -169807 -127596 47502.1 215356 35796.3 -3592.16 -7.42181 
2990 1 44.7553 5.54754 2.98996 5.94981 -163632 -129559 -39513.5 226309 -25075.9 -3013.43 -7.41579 
2991 1 45.446 4.31014 2.99064 5.94224 -168821 -130547 30901.7 229191 35720.1 -3346.86 -7.42053 
2992 1 44.7176 3.09168 2.98961 5.94494 -164410 -132468 -22508.4 236999 -28907 -3449.68 -7.41684 
2993 1 45.4081 1.85423 2.99022 5.94093 -166265 -133573 13461.3 237184 34395.7 -3131.11 -7.41926 
2994 1 44.6793 0.635941 2.99002 5.94162 -163666 -135182 -4870.5 241495 -32170 -3858.57 -7.41799 
3123 1 47.6281 7.98092 2.99397 5.94696 -162108 -132680 55206.5 208141 35477.6 -457.424 -7.42243 
3124 1 46.9005 6.76218 2.99182 5.95081 -156607 -133556 -47498.3 218693 -23169.4 -822.256 -7.41533 
3125 1 47.5916 5.52498 2.99231 5.94275 -164079 -133546 39171.1 224821 36060.9 -390.053 -7.42117 