ITEM: TIMESTEP
343
ITEM: NUMBER OF ATOMS
22328
ITEM: BOX BOUNDS pp pp pp
0.0000000000000000e+00 1.2975027299999999e+02
0.0000000000000000e+00 2.2473406499999999e+02
0.0000000000000000e+00 1.5000000000000000e+01
ITEM: ATOMS id type x y z c_csym c_2[1] c_2[2] c_2[3] c_2[4] c_2[5] c_2[6] c_3 
208 1 0.876226 8.5794 2.88613 6.018 -169574 -151167 -2866.01 -16646.7 11888.9 -2925.48 -7.41379 
209 1 0.144318 7.36528 2.88319 6.02404 -156301 -164652 2518.74 -11554.1 13502.3 -1265.75 -7.41394 
210 1 0.829398 6.12399 2.88081 6.02261 -166398 -154083 -732.575 -8037.66 8172.71 -2432.9 -7.4137 
211 1 0.0968622 4.9102 2.87879 6.02647 -157248 -163162 1100.36 -4789.25 7972.1 -853.647 -7.41371 
212 1 0.781522 3.66871 2.87735 6.02573 -163624 -156694 271.002 -2948.13 4704.07 -1839.02 -7.41362 
213 1 0.0486178 2.45511 2.87623 6.02827 -158575 -161736 609.003 -1050.42 3547.91 -437.318 -7.4136 
214 1 0.733055 1.21352 2.87568 6.02861 -161234 -159135 547.713 -572.679 1493.99 -1232.43 -7.41358 
215 1 -3.64331e-06 6.55701e-08 2.87541 6.02978 -160169 -160266 554.295 72.4024 0.479588 0.243591 -7.41356 
392 1 2.29373 8.55144 2.88677 6.01986 -163933 -157174 2936.21 -13685 16303.5 -3874.97 -7.4141 
393 1 2.97885 7.31011 2.88436 6.0201 -174778 -145999 -646.811 -11519.7 10067.5 -7174.7 -7.41383 
394 1 2.24688 6.096 2.88141 6.02304 -162162 -158582 1124.11 -5239.55 10224.5 -3547.78 -7.41381 
395 1 2.93156 4.85448 2.87994 6.02358 -169260 -151370 507.732 -4859.99 6444.3 -6017.81 -7.41372 
396 1 2.19899 3.64068 2.87792 6.02557 -161049 -159520 456.644 -219.558 5191.56 -3229.93 -7.41365 
397 1 2.88344 2.39908 2.87735 6.02681 -164422 -156039 749.252 -1223.38 3051.57 -4885.46 -7.41364 
398 1 2.15052 1.18547 2.87623 6.02736 -160280 -160035 451.046 2026.31 1198.75 -2983.02 -7.41359 
575 1 5.12748 8.49703 2.88976 6.01729 -186149 -134996 672.73 -13724.2 12361.2 -12631.3 -7.41408 
576 1 4.39631 7.28243 2.88586 6.01729 -169873 -151100 159.324 -4525 12772 -6304.96 -7.41393 
577 1 5.08103 6.04087 2.88438 6.02103 -177848 -143176 1711.43 -5396.68 8737.38 -11040.4 -7.41394 
578 1 4.34901 4.82673 2.88139 6.02144 -165882 -154779 -454.992 2015.19 7111.6 -6149.8 -7.41374 
579 1 5.03349 3.58511 2.88082 6.0246 -170202 -150707 1642.58 -491.187 5157.44 -9408.27 -7.41381 
580 1 4.30089 2.37129 2.87877 6.02429 -162685 -157928 -170.302 5390.3 2479.44 -6058.78 -7.41366 
581 1 4.98534 1.12969 2.87907 6.02538 -163268 -157506 898.79 1574.56 1667.18 -7935.43 -7.41371 
758 1 6.5449 8.46993 2.89214 6.01011 -180729 -140759 -2167.29 -2423.58 15415.7 -8986.63 -7.41405 
759 1 7.22966 7.22834 2.8907 6.01723 -189284 -132145 4314.55 -4310.71 11377.6 -16783.9 -7.4143 
760 1 6.49845 6.01369 2.88674 6.01569 -173836 -147178 -2523.64 5857.58 9289.62 -9192.89 -7.41383 
761 1 7.18296 4.77203 2.88618 6.02197 -178880 -142363 3702.49 2140.16 7777.36 -14833.8 -7.4141 
762 1 6.45092 3.55785 2.88315 6.02 -167710 -152952 -1732.99 10635.2 3995.48 -9361.25 -7.41374 
763 1 7.1354 2.31624 2.88348 6.02284 -169232 -151969 2197.93 5341.54 4131.73 -12935.9 -7.41393 
764 1 6.40279 1.10237 2.8814 6.02204 -162445 -158328 -292.719 12525.7 -417.69 -9658.49 -7.41374 
942 1 8.64704 7.20198 2.89389 6.00847 -184716 -136586 -6076.4 11426.5 11495.7 -12067 -7.41391 
944 1 8.60036 4.74558 2.8894 6.015 -175758 -145273 -4607.89 17856 5689.01 -12692.1 -7.41382 
945 1 9.28487 3.50397 2.88976 6.02008 -177995 -143739 4856.95 11358.8 7055.22 -18700.8 -7.4143 
946 1 8.55282 2.28971 2.88672 6.01852 -167653 -153369 -2215.27 20946.2 641.981 -13318.5 -7.41384 
947 1 9.23749 1.04825 2.88796 6.01671 -165976 -155562 1741 13081.7 3249.96 -16669.7 -7.41409 
11192 2 0.541226 8.60663 6.51381 6.02201 -153464 -167883 3700.64 16766.3 16736.6 680.142 -7.4141 
11193 2 0.588058 6.15167 6.51917 6.02464 -155101 -165668 1641.45 8190.64 10724.7 235.696 -7.41381 
11194 2 0.635937 3.69666 6.52264 6.02676 -157018 -163549 748.729 2957.33 5756.01 -201.249 -7.41364 
11195 2 0.684407 1.2416 6.52432 6.02858 -158982 -161427 547.813 588.286 1815.48 -679.389 -7.41358 
11196 2 -6.29717e-06 1.40588e-06 6.52459 6.02978 -160148 -160320 554.255 -41.0306 -0.264507 0.119513 -7.41356 
11372 2 1.95878 8.63465 6.51325 6.01572 -159034 -161966 -2528.78 14312.9 12608.4 -3447.17 -7.41383 
11373 2 2.69104 7.42072 6.51561 6.02108 -147245 -173735 1710.46 12148.7 13929.9 -2047.44 -7.41394 
11374 2 2.00558 6.1797 6.5186 6.02156 -159360 -161442 -457.451 5822.64 8885.4 -3080.73 -7.41374 
11375 2 2.73832 4.96603 6.52006 6.02364 -151600 -169077 507.843 5370.1 8434.34 -2570.18 -7.41372 
11376 2 2.05343 3.72471 6.52208 6.02548 -159621 -160944 456.589 568.619 5393.91 -2879.04 -7.41365 
11377 2 2.78644 2.51116 6.52265 6.02575 -155879 -164672 271.585 1476.97 3946.53 -3153.7 -7.41362 
11378 2 2.10188 1.26965 6.52377 6.02832 -159861 -160586 610.404 -1939.49 2151.94 -2852.63 -7.4136 
11379 2 2.83495 0.0561305 6.52349 6.02726 -160040 -160444 514.436 228.867 269.427 -3909.84 -7.4136 
11555 2 4.7949 8.68903 6.51023 6.0173 -135968 -185228 674.777 15182.1 17121.7 -4387.92 -7.41408 
11556 2 4.10861 7.44851 6.51413 6.01739 -151995 -169129 158.332 5782.73 11847.9 -7906.17 -7.41393 
11557 2 4.84132 6.2348 6.51564 6.02013 -143315 -177609 -643.671 6637.03 11246.5 -5130.09 -7.41383 
11558 2 4.15585 4.99383 6.51859 6.02305 -154885 -165945 1125.62 -1072.34 8186.03 -7079.74 -7.41381 
11559 2 4.88884 3.78026 6.51919 6.02262 -150149 -170559 -731.515 1246.8 6192.57 -5857.06 -7.4137 
11560 2 4.20392 2.53897 6.52121 6.0264 -157528 -163147 1100.66 -5037.57 4723.11 -6478.03 -7.41371 
11561 2 4.93699 1.32543 6.52093 6.02384 -156681 -163887 -53.7633 -1436.4 1984.15 -6751.85 -7.41367 
11562 2 4.25241 0.0839389 6.52208 6.02541 -160054 -160604 513.08 -6330.67 1312.93 -6143.36 -7.41365 
11738 2 6.21255 8.71632 6.50787 6.01284 -141062 -180476 2132.68 4625.16 15146.3 -13456.9 -7.41426 
11739 2 6.9452 7.50257 6.50941 6.01633 -131433 -189614 -3093.69 6647.14 13960.6 -7788 -7.41393 
11740 2 6.2589 6.26212 6.51323 6.01993 -147124 -174202 2938.52 -3980.88 11508.6 -12181 -7.4141 
11741 2 6.99187 5.04851 6.51388 6.01803 -141311 -179552 -2863.31 -367.884 8475.86 -8829.81 -7.41379 
11742 2 6.30636 3.8076 6.51681 6.02411 -152478 -168608 2519.09 -9437.4 7847.73 -11059.6 -7.41394 
11743 2 7.03943 2.59402 6.51654 6.01938 -150811 -170104 -1578.85 -4510.47 3725.04 -9933.23 -7.41376 
11744 2 6.35447 1.35277 6.51859 6.02305 -157503 -163435 1288.31 -12192 4232.38 -10207.6 -7.41382 
11745 2 7.08741 0.139105 6.51742 6.02063 -159994 -161035 273.615 -6100.4 -383.539 -11277.8 -7.41381 
11921 2 9.05028 8.76888 6.50161 6.01203 -116169 -205203 -7142.93 5193.95 16251.8 -10230.9 -7.41399 
11922 2 8.36287 7.52912 6.5061 6.01661 -135618 -186183 6288.28 -8220.44 15080.4 -17850.1 -7.41454 
11923 2 9.09581 6.31547 6.50677 6.01274 -129152 -192043 -6457.53 -3582.38 10564.7 -11794.1 -7.41386 
11924 2 8.40945 5.0751 6.51052 6.02047 -144212 -177420 5305.76 -15413 11428 -16406.1 -7.41431 
11925 2 9.14252 3.86147 6.51027 6.01304 -141799 -179404 -4427.85 -9298.33 5393.89 -13276.5 -7.41384 
11926 2 8.45694 2.62062 6.5132 6.02015 -152283 -169001 3248.91 -19778.7 7652.09 -15126.8 -7.41411 
11927 2 9.18989 1.40689 6.51204 6.01435 -154020 -167252 -1525.67 -12503.3 832.026 -14859.8 -7.41393 
11928 2 8.50488 0.165679 6.51413 6.01944 -159971 -161120 575.802 -21620 3713.36 -14097.7 -7.41394 
941 1 9.37719 8.41732 2.8987 6.01054 -203672 -118100 8608.01 -1390.03 14030.6 -22797.9 -7.41481 
943 1 9.3316 5.96031 2.89337 6.01677 -190521 -131223 7310.37 6786.7 10681.6 -20815.4 -7.41455 
1124 1 10.7945 8.3921 2.90249 6.00039 -198566 -122839 -11316 18644.1 13396.6 -14378.2 -7.41394 
1125 1 11.4791 7.1504 2.90205 6.01017 -204764 -117121 12658.6 13388 13547.7 -26737.5 -7.41516 
1126 1 10.749 5.93497 2.8973 6.00811 -186863 -134460 -9070.87 26977.1 7337.42 -15644.8 -7.41387 
1127 1 11.4335 4.69335 2.89769 6.0162 -189680 -132501 9184.94 19669.4 10195.9 -24685.5 -7.41483 
1128 1 10.7023 3.47853 2.8938 6.01392 -175772 -145623 -5598.73 31655.9 1797.23 -16763 -7.41392 
1129 1 11.387 2.23709 2.89506 6.01259 -174741 -147354 4749.05 22694.4 6504.62 -22498.7 -7.41451 
1130 1 10.6549 1.02274 2.8921 6.01573 -165222 -156301 -1436.15 33369.8 -3095.19 -17879.9 -7.41406 
1307 1 13.6254 8.34274 2.91164 6.00261 -220713 -100838 19691.4 21711.4 16077 -31937.6 -7.41591 
1308 1 12.8964 7.12645 2.90639 6.00052 -200472 -120917 -15235.5 37648 8667.1 -17817.3 -7.41385 
1309 1 13.5811 5.88485 2.90679 6.00986 -203522 -118641 15268.4 29973.2 13257 -30199.6 -7.41551 
1310 1 12.8509 4.66931 2.90226 6.00872 -186809 -134859 -10664.1 44292.8 2863.79 -19544.6 -7.41394 
1311 1 13.5357 3.4279 2.90351 6.00854 -186079 -136292 9524.26 34584.3 9905.55 -28117.7 -7.41509 
1312 1 12.8044 2.21298 2.89984 6.01228 -173336 -148542 -5063.65 47446.7 -2438.43 -21114.6 -7.41414 
1313 1 13.4896 0.97186 2.90192 6.00377 -168737 -153662 3025.24 36096.9 6151.71 -25853.1 -7.41469 
1490 1 15.0426 8.32038 2.91599 5.99287 -215804 -105416 -22976.5 49116.3 9478.18 -18985.2 -7.41375 
1491 1 15.7274 7.07883 2.91637 6.00279 -218719 -102990 22926.7 41543.2 15972.6 -34648.6 -7.41632 
1492 1 14.9984 5.86245 2.9115 6.00229 -200035 -121804 -17429.4 58073.8 3652.3 -21322.3 -7.41389 
1493 1 15.6833 4.6211 2.91267 6.00395 -199590 -122847 16041.2 48240.5 13173.6 -32880.7 -7.41581 
1494 1 14.953 3.40545 2.90856 6.0089 -184006 -138025 -10466.4 63204.8 -1872.16 -23400 -7.41415 
1495 1 15.6383 2.1644 2.91053 5.99888 -180042 -142658 8002.9 51348.5 9840.1 -30733.2 -7.41529 
1496 1 14.907 0.949372 2.90725 6.0067 -168129 -154100 -2698.41 64902.2 -6892.65 -25296.1 -7.41451 
1673 1 17.8724 8.27554 2.92574 5.99556 -234023 -86263.7 31748 53572.3 18175.2 -37678.7 -7.4172 
1674 1 17.1446 7.05821 2.9208 5.99555 -214430 -106959 -25651.1 72090.4 4052.86 -21993.1 -7.41376 
1675 1 17.8298 5.81696 2.92184 5.99848 -213995 -107797 24023.7 62593.4 16080.5 -36343.2 -7.41663 
1676 1 17.1006 4.60048 2.91756 6.00469 -196783 -125326 -17561 79514.1 -1502.03 -24524.5 -7.41408 
1677 1 17.7861 3.35953 2.91936 5.99476 -193040 -129599 14711.9 67621.7 13326.4 -34487.5 -7.41602 
1678 1 17.0557 2.14379 2.91583 6.00259 -178826 -143840 -8243.24 83078.1 -6671.79 -26793.2 -7.41451 
1679 1 17.7417 0.903245 2.91836 5.9888 -171549 -151481 4451.25 69211.3 10018.3 -32204.3 -7.4154 
12104 2 10.4681 8.79438 6.49755 6.0125 -120745 -201340 11385.7 -13639.5 18472 -23531.8 -7.41514 
12105 2 11.2009 7.58067 6.49823 6.00584 -113961 -207493 -11723.9 -8312.72 12197.9 -14323.6 -7.41388 
12106 2 10.5135 6.34099 6.50254 6.01476 -132502 -189288 9762.28 -22905.9 15150.6 -22020.5 -7.41484 
12107 2 11.2465 5.1273 6.50235 6.00558 -129600 -191707 -8873.64 -15967.6 6796.66 -16350.4 -7.41389 
12108 2 10.5601 3.887 6.506 6.01483 -143868 -177772 6768.87 -29071.2 11432.5 -20508.5 -7.41454 
12109 2 11.293 2.67321 6.5049 6.00677 -145038 -176531 -4829.6 -20768.7 1886.88 -18315.6 -7.41402 
12110 2 10.6074 1.43242 6.50781 6.01576 -154694 -166889 2866.24 -32554.1 7442.11 -19113.2 -7.41427 
12111 2 11.34 0.218415 6.50579 6.00909 -159869 -161927 -106.681 -23029.5 -2511.14 -20351.6 -7.41423 
12287 2 13.3075 8.84368 6.48886 5.99843 -96352.3 -224976 -18667 -14588.1 13201.1 -16048.2 -7.41382 
12288 2 12.6187 7.60484 6.49336 6.00791 -117803 -204017 15965.5 -31506.4 18586.1 -27290.8 -7.41553 
12289 2 13.3517 6.39106 6.49322 5.99746 -114702 -206705 -15026.6 -24168 7762.74 -18689.9 -7.41388 
12290 2 12.6642 5.15147 6.49731 6.00774 -132286 -189610 12039.9 -39763.1 15238.5 -25769.2 -7.41514 
12291 2 13.3971 3.9376 6.49633 5.99813 -133038 -188688 -9841.26 -30813 2646.64 -21150.1 -7.41406 
12292 2 12.7106 2.69738 6.49986 6.0089 -146367 -175521 6870.74 -45117 11417 -24194.2 -7.41476 
12293 2 13.4432 1.48329 6.498 6.00023 -151124 -171011 -3630.34 -34899.7 -1987.63 -23519.3 -7.41434 
12294 2 12.7575 0.242569 6.50084 6.01115 -159916 -161989 978.642 -47738.9 7173.94 -22642.5 -7.41442 
12470 2 14.7254 8.86628 6.48363 6.00036 -100820 -220325 23725.5 -40650.1 21341.6 -31687.7 -7.41634 
12471 2 15.4583 7.65239 6.48355 5.98947 -97911.2 -223067 -22759.5 -33299.9 8222.11 -20004.2 -7.41378 
12472 2 14.7695 6.41361 6.4877 5.9997 -117986 -203328 19003.1 -51209 18662.9 -30328.8 -7.41588 
12473 2 15.5023 5.19964 6.48688 5.9894 -118797 -202689 -16569 -42187.9 3036.6 -22961.5 -7.41402 
12474 2 14.8147 3.96013 6.49072 6.00061 -135122 -186629 12661.4 -58773.9 15291.5 -28766.7 -7.4154 
12475 2 15.5474 2.74593 6.48911 5.99102 -139664 -182489 -8965.97 -48135.6 -1751.66 -25724.3 -7.41437 
12476 2 14.8607 1.5058 6.49246 6.00293 -151894 -170279 5226.88 -63356.3 11359.7 -27077.4 -7.41494 
12477 2 15.5928 0.291259 6.49003 5.99418 -160041 -162534 -554.05 -51234.9 -6040.6 -28319.2 -7.4148 
12653 2 17.5663 8.91106 6.47399 5.98196 -80316.5 -239413 -31693.9 -42975.3 8223.71 -20247.6 -7.4136 
12654 2 16.8761 7.67316 6.47785 5.99133 -101947 -218032 27349.5 -62566.4 21366.4 -33783.3 -7.41673 
12655 2 17.6089 6.45905 6.4772 5.98099 -103039 -217524 -24765.8 -53972.7 3076.38 -23601.1 -7.41389 
12656 2 16.9201 5.22033 6.48101 5.99173 -121694 -199239 20066.3 -72513.2 18702.1 -32363.7 -7.41617 
12657 2 17.6527 4.00601 6.47971 5.98184 -126161 -195455 -16012.3 -62067.2 -1790.7 -26714.4 -7.4143 
12658 2 16.9649 2.76658 6.48327 5.99377 -141285 -180527 11280.9 -79314 15318.6 -30703.3 -7.41559 
12659 2 17.6971 1.55192 6.48127 5.98451 -149320 -173388 -6037.67 -67175.9 -6175.52 -29591.7 -7.41482 
12660 2 17.0103 0.311888 6.48439 5.99741 -160290 -162095 1610.34 -82924.1 11297.4 -28842 -7.41503 
1856 1 19.2895 8.25676 2.92952 5.98941 -228938 -91431.7 -34861.1 85313.8 4067.99 -21672.5 -7.41354 
1857 1 19.975 7.01566 2.93037 5.99354 -228221 -92041.1 32990.4 76700.4 18486.3 -38333.9 -7.4175 
1858 1 19.247 5.79827 2.92616 5.99976 -210362 -111211 -26003 95345 -1365.31 -24520.7 -7.41391 
1859 1 19.9327 4.55746 2.92774 5.99026 -206885 -115029 22797.9 84051.8 16409.5 -36860.3 -7.41682 
1860 1 19.2034 3.3409 2.92422 5.99925 -191000 -131375 -15474.6 101127 -6555.28 -27078.2 -7.41441 
1861 1 19.8896 2.10049 2.9265 5.98448 -184395 -138363 11197.1 87504.2 13694.8 -34857.5 -7.4161 
1862 1 19.1591 0.884641 2.92368 5.99259 -171114 -151470 -3964.65 102910 -11259.7 -29366.4 -7.41501 
2039 1 22.1188 8.21721 2.9378 5.98727 -241169 -76740.2 42390.3 89700.1 20334.1 -38946.4 -7.41839 
2040 1 21.3921 6.99888 2.93382 5.99445 -223700 -96759.7 -35264.7 109748 -1426.35 -23596.3 -7.41367 
2041 1 22.0781 5.75826 2.93511 5.98518 -220405 -100129 31749.7 99579.1 18972.5 -37852.3 -7.41766 
2042 1 21.35 4.54082 2.93179 5.99682 -203963 -117824 -23966.6 117992 -6532.86 -26312.2 -7.41422 
2043 1 22.0364 3.30057 2.93378 5.98133 -197904 -124142 19271.5 105196 16902.7 -36198.3 -7.41686 
2044 1 21.3069 2.08393 2.93113 5.98878 -183215 -139160 -11220.8 121935 -11244.2 -28751.1 -7.41488 
2045 1 21.9941 0.844144 2.93372 5.97466 -174232 -148511 5637.59 106772 14185.9 -34036 -7.41604 
2222 1 23.5358 8.20226 2.94018 5.99019 -235648 -82816.9 -44776 121879 -1605.42 -22039 -7.41337 
2223 1 24.2223 6.96186 2.94113 5.981 -232202 -85621.8 41030.4 113255 20979.6 -37663.5 -7.41849 
2224 1 23.4953 5.74354 2.93811 5.99355 -216432 -104082 -33160.2 132863 -6555.01 -24770.9 -7.41395 
2225 1 24.1821 4.50348 2.93979 5.9775 -210856 -109688 28149.7 121389 19556.1 -36355.3 -7.41765 
2226 1 23.4537 3.28601 2.93745 5.9861 -195765 -125990 -19675.7 139272 -11221.6 -27248 -7.41465 
2227 1 24.1411 2.04639 2.93977 5.97169 -187730 -134436 13671.2 125168 17443.1 -34525.4 -7.41675 
2228 1 23.4114 0.829684 2.93804 5.97846 -173990 -148156 -5046.46 141078 -15350.4 -29472.5 -7.41545 
2405 1 26.3652 8.16809 2.94566 5.97781 -242209 -72823.7 50184.2 124678 22445.5 -36569.2 -7.41929 
2406 1 25.6394 6.94893 2.94296 5.99007 -227196 -91270.2 -42512.9 144963 -6570.64 -22759.1 -7.41362 
2407 1 26.3266 5.7091 2.9443 5.97353 -222136 -96155.7 37323.1 135167 21642 -35568.2 -7.41843 
2408 1 25.5993 4.49081 2.94233 5.98444 -207596 -112947 -28768.1 153856 -11150.6 -25169.6 -7.41435 
2409 1 26.287 3.25138 2.94438 5.96994 -200091 -120311 22494.4 141342 20116.2 -34069.6 -7.41749 
2410 1 25.5583 2.03388 2.94306 5.97575 -186435 -135119 -13441.1 158203 -15280.9 -27352.2 -7.41518 
2411 1 26.2467 0.794934 2.94565 5.96325 -176669 -145106 6398.43 143135 17892.2 -32113.3 -7.41651 
2588 1 27.7823 8.15678 2.9463 5.98703 -236180 -79753.7 -51589.6 154333 -6532.48 -20528.7 -7.41329 
2590 1 27.7437 5.69813 2.94565 5.98247 -217767 -100807 -37989.9 165625 -10998.2 -22799.6 -7.414 
2592 1 27.7042 3.24065 2.94654 5.9741 -197704 -122566 -22451.7 172361 -15117.8 -24868 -7.41485 
2594 1 27.664 0.784354 2.94864 5.96619 -176417 -144535 -5704.43 174323 -18650.5 -26746.7 -7.4158 
12836 2 18.9844 8.92996 6.46834 5.98315 -85287.3 -232499 36582.8 -73312.4 23174.9 -35965.5 -7.41763 
12837 2 19.7169 7.71567 6.46784 5.97355 -86820.2 -232102 -33968.5 -65591.8 2871.11 -23161 -7.41367 
12838 2 19.0267 6.47779 6.47132 5.98283 -106842 -212355 28692.6 -85657.2 21372 -34737.9 -7.41702 
12839 2 19.7592 5.26332 6.47034 5.9734 -111672 -208881 -24427.9 -75980.3 -2015.14 -26507.6 -7.41413 
12840 2 19.0703 4.02467 6.47383 5.98433 -128735 -192022 18880.8 -94846.2 18729.7 -33205.4 -7.41635 
12841 2 19.8024 2.80988 6.47231 5.97526 -136810 -185396 -13227.8 -83176.2 -6484.21 -29602.9 -7.41472 
12842 2 19.1146 1.57054 6.47558 5.98762 -150476 -171758 7752.04 -100603 15338.1 -31408.6 -7.41567 
12843 2 19.846 0.355291 6.47345 5.97894 -161141 -161829 -1081.97 -86999.4 -10388 -32410.6 -7.41538 
13019 2 21.8264 8.96951 6.45915 5.96737 -71286.2 -245143 -43612.5 -76318.2 2543.67 -21898.9 -7.41338 
13020 2 21.1349 7.73247 6.46211 5.97451 -91657.9 -224772 38021 -97391.8 23188.2 -35875 -7.4179 
13021 2 21.8671 6.5178 6.4614 5.96624 -96963.8 -221664 -33698.3 -88970.5 -2294.31 -25319 -7.41387 
13022 2 21.177 5.27995 6.4646 5.97521 -115327 -203661 27590.3 -109001 21391.5 -34501 -7.41717 
13023 2 21.909 4.065 6.46355 5.96704 -123346 -197643 -21708.3 -98400.2 -6827.83 -28516.9 -7.41451 
13024 2 21.22 2.82642 6.46677 5.97788 -138979 -182162 15406.3 -117239 18761.8 -32843.3 -7.4164 
13025 2 21.9514 1.61104 6.46529 5.96986 -149367 -173070 -8318.64 -104422 -10823.7 -31446.4 -7.41524 
13026 2 21.2635 0.371814 6.4683 5.98245 -161654 -160599 2188.73 -121610 15357.6 -30926.3 -7.41562 
13202 2 23.2445 8.98444 6.45363 5.96723 -77200.8 -235696 47524.8 -107116 24184.4 -35940 -7.41878 
13203 2 23.9764 7.76954 6.45309 5.96049 -83029.7 -232952 -43267.8 -100303 -2518.22 -23463.9 -7.41356 
13204 2 23.285 6.53247 6.45588 5.96701 -101713 -214238 36889 -121204 23245.7 -34695.6 -7.41802 
13205 2 24.0168 5.31732 6.45523 5.96031 -109907 -208971 -30948.7 -112143 -7076.71 -26631.7 -7.41421 
13206 2 23.3266 4.07951 6.45826 5.96881 -126592 -192538 24112 -131863 21428.3 -33193.4 -7.41719 
13207 2 24.058 2.86397 6.45738 5.96203 -136795 -184306 -16798.2 -120341 -11181.7 -29578.7 -7.41498 
13208 2 23.3689 1.62548 6.46041 5.97265 -150962 -170407 9853.19 -138520 18780 -31451.6 -7.41631 
13209 2 24.0995 0.40942 6.45917 5.96586 -163001 -159384 -1617.06 -124702 -14654.2 -32237.4 -7.41585 
13385 2 26.087 9.0187 6.44544 5.95623 -70342.3 -242150 -52664.2 -109770 -2633.41 -21240 -7.41322 
13386 2 25.3944 7.78238 6.44775 5.96008 -88860.6 -223444 46290.1 -131007 24351.6 -34015.4 -7.41885 
13387 2 26.1259 6.56699 6.44738 5.95498 -97028.3 -218739 -40423.5 -123687 -7148.33 -24269.9 -7.41386 
13388 2 25.4346 5.32992 6.45015 5.96088 -114334 -201871 33360.1 -143858 23337 -32642.6 -7.41798 
13389 2 26.1658 4.1142 6.44979 5.95571 -124312 -194700 -25990.8 -134090 -11340.2 -27131.8 -7.41465 
13390 2 25.4756 2.87643 6.45276 5.96377 -139545 -179905 18548.8 -152933 21459.8 -31075.9 -7.41705 
13391 2 26.2062 1.66024 6.45226 5.95846 -151383 -170087 -10083.5 -140671 -14960.9 -29771.8 -7.41554 
13392 2 25.517 0.421852 6.45517 5.96878 -163794 -157586 2642.41 -157847 18755.4 -29314.9 -7.41611 
13568 2 27.5051 9.02989 6.44017 5.95454 -77222.2 -230889 55394.3 -138271 24831.6 -32709.4 -7.41963 
13570 2 27.5438 6.57785 6.44241 5.95429 -102621 -210008 42694.5 -153231 24560.8 -31428 -7.41876 
13572 2 27.5834 4.12484 6.44533 5.95616 -128247 -188501 27784.7 -164610 23426.6 -30006.7 -7.4178 
13574 2 27.6236 1.67079 6.44848 5.96015 -153301 -166585 11359.8 -171697 21444.4 -28452.1 -7.4168 
2589 1 28.4699 6.91722 2.94724 5.97054 -231553 -83908.2 46363.4 146442 23186.8 -34099.7 -7.41917 
2591 1 28.4318 4.45892 2.94741 5.96703 -211441 -107232 31617.2 154955 22207.9 -32902.6 -7.41821 
2593 1 28.3928 2.00187 2.94897 5.96176 -189321 -131332 15211.2 158998 20521.9 -31271.2 -7.41719 
2771 1 30.6122 8.12761 2.9487 5.96853 -238826 -73478.8 54961.6 154980 24243.7 -32186.8 -7.41986 
2772 1 29.887 6.90778 2.94741 5.97983 -226104 -90062.1 -46945.7 174488 -10737.2 -20355.4 -7.41364 
2773 1 30.5755 5.66882 2.94886 5.96437 -220747 -95502 40627.5 165774 23764.3 -31248.5 -7.41891 
2774 1 29.8489 4.4498 2.94842 5.97337 -207895 -110729 -31603.4 183513 -14833.5 -22269.1 -7.41447 
2775 1 30.5379 3.21121 2.95069 5.96038 -200549 -118342 24338.5 172070 22572.4 -29915.4 -7.41787 
2776 1 29.8101 1.99296 2.95089 5.9647 -187959 -132086 -14666.5 187867 -18431.1 -24012.2 -7.41542 
2777 1 30.4996 0.754825 2.95375 5.95447 -178405 -141762 6768.37 174035 20679.4 -28216.2 -7.4168 
2954 1 32.0292 8.11949 2.94777 5.97808 -232395 -80773.1 -55375.4 180393 -10368.6 -17980.2 -7.41328 
2955 1 32.7182 6.8808 2.94887 5.96254 -227909 -85347.3 49239.1 173750 24841.5 -29282.5 -7.41956 
2956 1 31.9926 5.66109 2.94876 5.97307 -215997 -100413 -40525.5 191671 -14420 -19722.3 -7.41408 
2957 1 32.6819 4.42272 2.95086 5.95917 -209905 -106882 33391.2 182297 24105.4 -28213.9 -7.41853 
2958 1 31.9551 3.20377 2.95153 5.96418 -197937 -120654 -23798.1 198370 -18077.6 -21311 -7.41501 
2959 1 32.6449 1.9658 2.95441 5.95316 -189928 -129059 15933.2 186490 22678.6 -26807 -7.41744 
2960 1 31.9169 0.747544 2.9556 5.95651 -178181 -141251 -5883.72 200440 -21122 -22765 -7.41604 
3137 1 34.8599 8.09464 2.9477 5.96156 -233119 -76931.5 57251.5 179134 25502 -27134.7 -7.42016 
3138 1 34.1353 6.8743 2.94776 5.97144 -222199 -91564.6 -48976.3 197118 -13881.4 -17323 -7.4137 
3139 1 34.825 5.63616 2.94965 5.95756 -217449 -96951 42085 189882 25179.6 -26295.5 -7.41915 
3140 1 34.0991 4.41656 2.95069 5.96428 -206070 -110466 -32758.9 205961 -17586.5 -18759.7 -7.41459 
3141 1 34.7892 3.17876 2.95355 5.95265 -199523 -117645 25063.8 196178 24179.3 -25152.7 -7.41806 
3142 1 34.0621 1.95986 2.95528 5.95612 -188396 -129954 -15033.6 210366 -20766.5 -20069.3 -7.41559 
3143 1 34.7528 0.72246 2.9588 5.94721 -179654 -138800 6823.64 198292 22505.1 -23729.5 -7.41695 
3320 1 36.277 8.08918 2.94575 5.97055 -226381 -84278.1 -56800 200048 -13237.4 -15111 -7.41333 
3321 1 36.9672 6.85129 2.94739 5.95665 -222717 -88604.2 50226.6 194905 25855.2 -24243.1 -7.41973 
3322 1 36.2421 5.6311 2.94861 5.96495 -212467 -101833 -41306 211108 -16963.9 -16413.2 -7.41417 
3323 1 36.9326 4.3935 2.9514 5.95284 -207291 -107845 33878.3 203417 25247.2 -23334.2 -7.41867 
3324 1 36.2064 3.17399 2.95353 5.95636 -196781 -119956 -24070 217661 -20265 -17592.4 -7.41514 
3325 1 36.8973 1.93673 2.95719 5.94681 -189848 -127593 16028 207582 23992 -22168.2 -7.41755 
3326 1 36.1701 0.717848 2.95987 5.9493 -179353 -138366 -5726.88 219683 -22948 -18670.7 -7.4162 
13569 2 28.2362 7.81423 6.43993 5.95111 -85344.7 -226939 -49701.8 -132913 -7027.55 -21702 -7.41349 
13571 2 28.2747 5.36191 6.44244 5.95074 -112605 -203813 -35404.4 -145470 -11248.4 -24399.1 -7.41427 
13573 2 28.3139 2.9085 6.44545 5.95247 -139514 -179797 -19249.9 -154154 -15009.7 -26939.7 -7.41517 
13575 2 28.3534 0.453916 6.44849 5.95614 -165257 -155518 -2059.66 -158687 -18123.2 -29258.6 -7.41616 
13751 2 30.3477 9.05927 6.4328 5.94865 -75362.1 -233145 -58482.9 -139834 -6741.57 -19130.2 -7.41313 
13752 2 29.6542 7.82353 6.43496 5.94915 -92043.7 -216510 51738.8 -160041 25218.1 -29782.7 -7.4195 
13753 2 30.3848 6.60734 6.43521 5.94731 -101617 -211324 -44643.7 -154329 -10917.4 -21608.7 -7.41387 
13754 2 29.6924 5.37093 6.43801 5.94994 -117703 -196031 37114.9 -173426 24766.3 -28470.8 -7.41853 
13755 2 30.4227 4.1544 6.43862 5.94787 -128097 -188527 -28652.1 -164969 -14776.5 -23988.5 -7.41475 
13756 2 29.7314 2.91735 6.44176 5.95285 -142650 -174953 20621 -182639 23468 -27083.1 -7.4175 
13757 2 30.4611 1.70036 6.44249 5.95047 -154104 -165319 -11215.9 -171564 -18072.7 -26214.8 -7.41574 
13758 2 29.7707 0.462737 6.44565 5.9578 -166144 -153625 3053.41 -187535 21341.8 -25607.7 -7.41645 
13934 2 31.7657 9.06723 6.42773 5.94547 -83017.8 -221295 60241.4 -164330 25422.5 -27898.3 -7.42018 
13935 2 32.4959 7.85076 6.42805 5.94513 -91984.2 -217086 -53432 -160654 -10405.4 -18911.4 -7.41348 
13936 2 31.8026 6.61493 6.4307 5.94514 -107789 -202064 46187.6 -179547 25585.9 -26664.1 -7.41923 
13937 2 32.5326 5.39819 6.43164 5.94463 -117805 -195865 -37920.2 -173256 -14288 -21089.6 -7.41432 
13938 2 31.8403 4.16175 6.43487 5.94688 -132389 -182245 29999.7 -190804 24918.7 -25407 -7.41819 
13939 2 32.5699 2.94462 6.43618 5.94581 -143348 -173885 -20635.9 -181875 -17731.1 -23175.7 -7.41528 
13940 2 31.8785 1.70761 6.43965 5.95068 -156230 -161871 12356.6 -197799 23424.1 -24116.4 -7.41712 
13941 2 32.6074 0.489974 6.44106 5.94845 -167691 -151515 -2376.82 -186317 -20551.9 -25105.2 -7.41634 
14117 2 34.6081 9.0924 6.42098 5.94422 -83965.2 -220979 -61585.3 -164652 -9782.22 -16402.9 -7.41312 
14118 2 33.9138 7.85712 6.42339 5.94173 -99145.9 -206474 54755.7 -183176 25988.5 -24736.9 -7.41988 
14119 2 34.6434 6.64013 6.4245 5.94269 -108686 -201490 -46793.6 -179057 -13615.3 -18358.2 -7.41391 
14120 2 33.9502 5.40424 6.42773 5.9423 -123324 -188084 39153.9 -196334 25888.4 -23578.6 -7.41886 
14121 2 34.6796 4.18694 6.42949 5.94231 -133560 -181105 -29976.6 -189587 -17146.7 -20266.1 -7.41482 
14122 2 33.9874 2.9505 6.4332 5.94494 -146709 -168967 21797.7 -205465 24974.6 -22436.5 -7.41778 
14123 2 34.7162 1.73276 6.43529 5.94377 -157492 -160134 -11822.6 -196111 -20151 -22078.3 -7.41585 
14124 2 34.0248 0.495813 6.43911 5.94959 -168623 -149595 3444.42 -210231 23256.4 -21280.6 -7.41667 
14300 2 36.026 9.09774 6.41619 5.93964 -92027.2 -209193 62662.2 -184597 26062.1 -22790.9 -7.42049 
14301 2 36.7552 7.88047 6.41734 5.94166 -100928 -205387 -55086.8 -182580 -12835.6 -15854.3 -7.41352 
14302 2 36.0612 6.64508 6.42042 5.93911 -115248 -192278 47846.1 -199533 26465.3 -21716.8 -7.4195 
14303 2 36.7902 5.42757 6.42246 5.94006 -124819 -186677 -38977.8 -194986 -16385.8 -17563.8 -7.41438 
14304 2 36.0971 4.19164 6.42631 5.94057 -138101 -174723 31053.2 -210588 26080.9 -20688.8 -7.41842 
14305 2 36.8258 2.97376 6.42893 5.94034 -148058 -167255 -21239.7 -203349 -19524 -19223.9 -7.41536 
14306 2 36.1336 1.73734 6.43314 5.94398 -159656 -156693 12929.6 -217321 24904.4 -19688.1 -7.41731 
14307 2 36.8616 0.519018 6.43599 5.94257 -169956 -147447 -2619.93 -207558 -22082.3 -20778.1 -7.41644 
3503 1 39.1085 8.06791 2.94453 5.95642 -225972 -82094.3 57710.8 197655 26189.5 -22118.1 -7.42027 
3504 1 38.3843 6.84718 2.94568 5.96485 -216738 -94817.4 -49286.5 213783 -16227.5 -14275.5 -7.41378 
3505 1 39.0752 5.60979 2.94836 5.95268 -212994 -99634 42186 208188 25946 -21406.3 -7.41924 
3506 1 38.3497 4.38973 2.95065 5.95711 -203307 -111389 -32755.1 222476 -19626.3 -15350.5 -7.41469 
3507 1 39.041 3.15262 2.95438 5.94706 -197903 -117707 24961 214477 25078 -20473.2 -7.41814 
3508 1 38.3145 1.93317 2.95746 5.94966 -188211 -128363 -14843.9 226747 -22490.6 -16320.8 -7.41572 
3509 1 39.0062 0.696408 2.96187 5.94222 -180622 -136156 6623.32 216613 23584.5 -19331 -7.41702 
3686 1 40.5256 8.0646 2.94242 5.96464 -219035 -89259.3 -56623.1 214394 -15404.8 -12325.3 -7.41342 
3687 1 41.217 6.82743 2.94494 5.95248 -216691 -92976.9 49880.7 210771 26331.8 -19411.9 -7.41977 
3688 1 40.4923 5.60687 2.94709 5.95822 -207899 -104351 -40935.5 225081 -18869.7 -13320.9 -7.41428 
3689 1 41.1838 4.36993 2.95082 5.94778 -204014 -109484 33438.6 219120 25822.3 -18677.5 -7.4187 
3690 1 40.4581 3.14997 2.95404 5.95047 -195019 -119923 -23676.3 231455 -21890.2 -14216.2 -7.41525 
3691 1 41.15 1.91331 2.95862 5.94245 -189291 -126501 15649.4 223275 24717.7 -17757.8 -7.41759 
3692 1 40.4235 0.693904 2.96251 5.94418 -180268 -135716 -5421.62 233521 -24303 -15022.7 -7.4163 
3869 1 43.358 8.04622 2.94174 5.95281 -218099 -88108.7 56930.9 211420 26460.1 -17388.1 -7.42027 
3870 1 42.6341 6.82521 2.94345 5.95962 -210569 -98908.6 -48529.8 225671 -18015.4 -11468.5 -7.41389 
3871 1 43.326 5.58846 2.9471 5.94844 -208089 -102882 41357.8 221673 26285.5 -16812.2 -7.41923 
3872 1 42.601 4.36804 2.95011 5.95161 -199901 -112885 -32070.2 234042 -21160 -12315.8 -7.4148 
3873 1 43.2931 3.13151 2.95476 5.94314 -195804 -118176 24275.9 227835 25541.1 -16087.4 -7.41814 
3874 1 42.5672 1.91162 2.95873 5.94499 -187601 -127191 -14382.6 238238 -23771.6 -13068.4 -7.41581 
3875 1 43.2598 0.675377 2.96393 5.93899 -181408 -133682 6210.18 230058 24225 -15224.1 -7.41704 
4052 1 44.7752 8.04458 2.94031 5.96004 -210970 -95112.3 -55520.4 224483 -17088 -9755.92 -7.41354 
4053 1 45.4675 6.80803 2.94383 5.94935 -209872 -97878.7 48695 222373 26517.2 -14908.4 -7.41973 
4054 1 44.7431 5.5872 2.94629 5.95301 -202816 -107430 -39941.6 234775 -20321.7 -10571.4 -7.41438 
4055 1 45.4355 4.35082 2.95089 5.94393 -200255 -111498 32412.8 230510 26109.5 -14341.7 -7.41868 
4056 1 44.7103 3.1305 2.95458 5.94612 -192836 -120224 -22971.5 241033 -23101.3 -11298 -7.41534 
4057 1 45.403 1.89435 2.95986 5.93954 -188360 -125506 14950.2 234764 25156.7 -13668.4 -7.41759 
4058 1 44.677 0.674497 2.96439 5.94064 -180964 -133158 -5110.9 243185 -25287.3 -11941.9 -7.41638 
14483 2 38.8678 9.11945 6.41044 5.94085 -94626.7 -207583 -62693.6 -184130 -12018.5 -13614.5 -7.41317 
14484 2 38.173 7.8845 6.41317 5.93716 -108431 -194938 55916.5 -200675 26720.4 -19890.8 -7.42008 
14485 2 38.9017 6.66674 6.41536 5.93892 -117234 -190581 -47456 -198155 -15524.3 -15109.2 -7.41397 
14486 2 38.2078 5.43127 6.41912 5.93746 -130451 -178952 39887.8 -213419 26808.4 -18960.1 -7.41903 
14487 2 38.9363 4.21323 6.42213 5.93809 -139669 -172907 -30375.6 -208376 -18736.8 -16593 -7.41489 
14488 2 38.2433 2.97728 6.42655 5.93968 -151482 -162384 22265.9 -222145 26129.3 -18081.5 -7.41793 