ITEM: TIMESTEP
0
ITEM: NUMBER OF ATOMS
22328
ITEM: BOX BOUNDS pp pp pp
0.0000000000000000e+00 1.2975027299999999e+02
0.0000000000000000e+00 2.2473406499999999e+02
0.0000000000000000e+00 1.5000000000000000e+01
ITEM: ATOMS id type x y z c_csym c_2[1] c_2[2] c_2[3] c_2[4] c_2[5] c_2[6] c_3 
208 1 0.79 8.589 3 6.02511 -143799 -143758 -154440 -16680.8 12686.3 -1894.72 -7.41093 
209 1 0.07 7.368 3 6.02334 -127538 -151682 -154196 -13041.7 12683 -412.859 -7.41029 
210 1 0.767 6.133 3 6.02637 -134748 -128301 -155922 2846.93 9109.68 -1640.7 -7.41067 
211 1 0.046 4.912 3 6.01955 -157243 -117239 -156270 -8609.86 8040.34 -279.033 -7.41064 
212 1 0.744 3.677 3 6.02329 -126188 -114912 -157021 -11493.8 5531.97 -1490.4 -7.41022 
213 1 0.023 2.456 3 6.02394 -156154 -117698 -157424 -9760.61 3890.05 -131.593 -7.41059 
214 1 0.721 1.221 3 6.02257 -172378 -113348 -157625 -9649.96 1880.98 -1260.41 -7.41077 
215 1 0 0 3 6.02596 -118367 -129162 -157787 279.062 -29.9429 8.96131 -7.41032 
392 1 2.208 8.575 3 6.0211 -118824 -125409 -152687 20725.7 14812.9 -3323.32 -7.41031 
393 1 2.906 7.341 3 6.02148 -183403 -144558 -154486 670.007 11034 -5764.65 -7.41124 
394 1 2.185 6.12 3 6.02217 -128849 -137400 -155239 2635.45 10105.8 -3252 -7.41034 
395 1 2.882 4.885 3 6.02589 -141267 -145337 -155917 -12513.3 7371.8 -5286.98 -7.41086 
396 1 2.162 3.664 3 6.02657 -136515 -149612 -156773 -9908.88 5783.35 -3273.27 -7.41082 
397 1 2.859 2.429 3 6.02721 -132413 -129764 -156917 1853.72 3638.1 -4857.11 -7.41063 
398 1 2.138 1.208 3 6.02224 -170292 -112719 -157480 -10351 1714.03 -3292.12 -7.41078 
575 1 5.044 8.549 3 6.02114 -135864 -128268 -152031 30650.8 13149.8 -10127 -7.41097 
576 1 4.323 7.327 3 6.01966 -166141 -121954 -153712 22134.7 12145.6 -6298.06 -7.41096 
577 1 5.021 6.093 3 6.02294 -134638 -148211 -153933 -58.9025 9398.64 -9369.96 -7.41069 
578 1 4.3 4.872 3 6.02329 -120422 -122591 -155619 -11256.1 7602.89 -6369.18 -7.41017 
579 1 4.998 3.637 3 6.02304 -173311 -113140 -155364 -17560.4 5755.7 -8674.7 -7.41088 
580 1 4.277 2.416 3 6.02461 -131614 -132978 -156571 3890.04 3443.41 -6454.08 -7.4104 
581 1 4.974 1.181 3 6.02589 -138316 -145310 -156210 -12485.7 2016.85 -8054.7 -7.41085 
758 1 6.462 8.535 3 6.02537 -135482 -170385 -151836 19897 14279.3 -9286.71 -7.41119 
759 1 7.159 7.301 3 6.01884 -141135 -148793 -150917 15301.3 11731.4 -13762.7 -7.41099 
760 1 6.439 6.079 3 6.02345 -134757 -152429 -153903 22253.5 9551.59 -9448.11 -7.41107 
761 1 7.136 4.845 3 6.02361 -132723 -130553 -152749 29444.4 8049.61 -12877 -7.41095 
762 1 6.415 3.623 3 6.01966 -167799 -120784 -155226 22821.4 4948.92 -9726.01 -7.41075 
763 1 7.113 2.389 3 6.02292 -132082 -150487 -154098 -1353.78 4326.32 -12036.5 -7.4107 
764 1 6.392 1.168 3 6.02313 -123047 -119267 -155604 -9860.85 897.857 -9985.88 -7.40992 
942 1 8.577 7.287 3 6.02329 -121463 -122932 -152038 -9339.03 11288.7 -12616.4 -7.41045 
944 1 8.554 4.831 3 6.02537 -136305 -169022 -153538 20701.5 6654.8 -12973.7 -7.4111 
945 1 9.251 3.597 3 6.01884 -137723 -151003 -151064 14104.3 6611.56 -16344.9 -7.4111 
946 1 8.531 2.375 3 6.019 -134677 -153455 -153976 23101.5 2414.7 -13371.9 -7.41096 
947 1 9.228 1.141 3 6.02521 -138192 -163944 -152484 12027.2 2828.15 -15351.6 -7.41115 
11192 2 0.628 8.602 6.4 6.0216 -123302 -127185 -152758 -31968 15096.5 -565.51 -7.41084 
11193 2 0.651 6.146 6.4 6.02218 -132914 -143959 -155335 -17416.4 10384.4 -654.914 -7.41045 
11194 2 0.674 3.691 6.4 6.02158 -132089 -142172 -156939 14044.8 6041.4 -856.922 -7.41059 
11195 2 0.697 1.235 6.4 6.02425 -136089 -144896 -157642 10000.9 2049.62 -1047.7 -7.4105 
11196 2 0 0 6.4 6.02596 -118303 -129223 -157785 -2430.86 29.6785 14.5463 -7.41032 
11372 2 2.046 8.616 6.4 6.02329 -152354 -176916 -154038 -3198.12 12923.4 -3580.17 -7.41117 
11373 2 2.766 7.395 6.4 6.0204 -136706 -151948 -153821 15610.7 12889.2 -3516.24 -7.41084 
11374 2 2.069 6.16 6.4 6.02522 -145466 -141849 -155634 15884.8 9322.61 -3387.58 -7.41078 
11375 2 2.789 4.939 6.4 6.02308 -137729 -150954 -155928 14772.7 8223.31 -3796.7 -7.41061 
11376 2 2.092 3.704 6.4 6.02596 -134299 -128886 -156749 -2418.48 5766.82 -3295.67 -7.41053 
11377 2 2.813 2.483 6.4 6.0224 -170188 -115947 -157061 11909.9 3950.05 -4076.1 -7.4108 
11378 2 2.115 1.248 6.4 6.02345 -123792 -116468 -157415 8549.66 2032.88 -3287.48 -7.41027 
11379 2 2.836 0.027 6.4 6.02313 -123157 -114929 -157318 12802.6 42.2647 -4428.11 -7.4102 
11555 2 4.881 8.643 6.4 6.02141 -135802 -156059 -152156 16659.9 15328.5 -6283.87 -7.41068 
11556 2 4.184 7.408 6.4 6.02519 -138671 -127274 -153747 -2990.16 11445.8 -7448.76 -7.41057 
11557 2 4.905 6.187 6.4 6.0224 -169199 -118545 -154515 13442.6 10449.5 -6650.86 -7.41092 
11558 2 4.207 4.952 6.4 6.02329 -126955 -115005 -155241 8361.21 7930.33 -7110.8 -7.41031 
11559 2 4.928 3.731 6.4 6.02329 -122108 -119784 -155824 13005.2 6047.09 -7081.41 -7.41028 
11560 2 4.23 2.496 6.4 6.02241 -172935 -113511 -156280 8335.97 4306.69 -6872.95 -7.41084 
11561 2 4.951 1.275 6.4 6.02653 -130422 -132161 -156376 -500.68 1838.21 -7546.53 -7.41065 
11562 2 4.254 0.04 6.4 6.02445 -139359 -146096 -156769 9580.86 561.82 -6630.19 -7.41057 
11738 2 6.299 8.656 6.4 6.02329 -130304 -114031 -150578 8046.74 13971.6 -11822.2 -7.41054 
11739 2 7.02 7.435 6.4 6.02329 -121423 -122657 -152739 14727.9 12661.7 -9537.44 -7.41043 
11740 2 6.322 6.2 6.4 6.0224 -175840 -112380 -152609 7909.82 10330 -11299.1 -7.41102 
11741 2 7.043 4.979 6.4 6.02705 -129154 -135115 -154397 1137.08 8029.25 -10012.8 -7.41074 
11742 2 6.346 3.744 6.4 6.02657 -140641 -146644 -154193 8464.21 6565.28 -10826.7 -7.41095 
11743 2 7.066 2.523 6.4 6.02589 -137126 -150299 -155039 15283 3723.02 -10574.2 -7.4109 
11744 2 6.369 1.288 6.4 6.02233 -132098 -134045 -155283 -4325.24 2930.59 -10317.2 -7.41035 
11745 2 7.09 0.067 6.4 6.02164 -177862 -146882 -154941 3109.24 -338.554 -11304 -7.41122 
11921 2 9.135 8.683 6.4 6.02705 -128793 -138237 -150383 3009.41 15063.8 -12584.3 -7.41093 
11922 2 8.438 7.448 6.4 6.02657 -143729 -145804 -149075 8274.19 12885.6 -15777.6 -7.41121 
11923 2 9.158 6.227 6.4 6.02657 -136293 -153371 -152266 17106.6 10185.8 -13150 -7.41103 
11924 2 8.461 4.992 6.4 6.02705 -134550 -130304 -151010 -6665.82 9233.48 -15043.4 -7.41092 
11925 2 9.182 3.771 6.4 6.0224 -170179 -118782 -153377 15743.9 5442.05 -13721.5 -7.41097 
11926 2 8.484 2.536 6.4 6.02329 -125708 -120520 -152569 8219.06 5534.35 -14454.4 -7.41008 
11927 2 9.205 1.315 6.4 6.02292 -130250 -153362 -153336 3036.56 1156.38 -14467.9 -7.41073 
11928 2 8.507 0.081 6.4 6.01934 -168486 -116893 -153642 -24825.2 1638.72 -13869.7 -7.41095 
941 1 9.298 8.508 3 6.02329 -131806 -115912 -146495 -15074.9 14367.1 -18595.9 -7.41051 
943 1 9.275 6.052 3 6.02238 -174414 -116202 -148911 -17844.1 10590.7 -17506.1 -7.41108 
1124 1 10.716 8.495 3 6.02398 -136459 -155247 -149819 -3822.22 13347.5 -15713.1 -7.41114 
1125 1 11.413 7.26 3 6.02586 -138846 -130432 -144026 -2576.28 13171.3 -22350.6 -7.41106 
1126 1 10.692 6.039 3 6.0224 -170034 -120635 -151427 -3395.45 8412.38 -16268.5 -7.41106 
1127 1 11.39 4.804 3 6.02329 -127383 -121108 -146634 -16817.5 9419.77 -21084.9 -7.41038 
1128 1 10.669 3.583 3 6.02292 -129709 -155323 -151977 8353.17 3848.88 -16767.7 -7.41078 
1129 1 11.367 2.349 3 6.01966 -171102 -119886 -148922 13687.5 5513.46 -19807.5 -7.41108 
1130 1 10.646 1.127 3 6.02409 -129204 -132696 -151616 37011.9 -438.481 -17437.2 -7.41099 
1307 1 13.551 8.468 3 6.02398 -144846 -148467 -137798 -15651.8 16049.9 -27349.9 -7.41179 
1308 1 12.831 7.247 3 6.02657 -139363 -153336 -149040 -1335.24 10205.8 -19421.5 -7.41117 
1309 1 13.528 6.012 3 6.02657 -145262 -147100 -141142 -14977.6 12288.3 -25937.5 -7.41161 
1310 1 12.808 4.791 3 6.02398 -137393 -154332 -149584 -3352.22 5350.69 -20226.9 -7.41115 
1311 1 13.505 3.556 3 6.02342 -137872 -133905 -144030 -6092.94 8359.7 -24673.4 -7.41081 
1312 1 12.784 2.335 3 6.02303 -171172 -119519 -149242 -8107.4 870.991 -21054.7 -7.41117 
1313 1 13.482 1.1 3 6.02346 -123292 -121459 -146431 -19260.8 4220.52 -23385.1 -7.41062 
1490 1 14.969 8.455 3 6.02329 -122319 -126021 -146486 -566.775 11730.7 -22690.5 -7.41091 
1491 1 15.667 7.22 3 6.02329 -129179 -118695 -134081 -16064.2 15287.1 -31110.1 -7.4116 
1492 1 14.946 5.999 3 6.02587 -132080 -139870 -147193 12023 6858.76 -23574.2 -7.41087 
1493 1 15.643 4.764 3 6.02398 -142196 -151577 -138059 -17451.1 11198.6 -29606.4 -7.41177 
1494 1 14.923 3.543 3 6.02657 -140578 -152629 -146833 -1134.95 2206.71 -24436.8 -7.41129 
1495 1 15.62 2.308 3 6.02673 -143115 -150194 -140995 -16851.7 7214.5 -28283.4 -7.41162 
1496 1 14.9 1.087 3 6.02398 -138643 -151319 -145616 -4540.69 -2133.52 -25373.7 -7.41135 
1673 1 17.805 8.428 3 6.02522 -147330 -149277 -126056 -20380.4 18076.1 -36157.8 -7.4124 
1674 1 17.085 7.207 3 6.02269 -139415 -159088 -144560 -2021.47 8406.89 -26701.8 -7.41114 
1675 1 17.782 5.972 3 6.02586 -137908 -136189 -130428 -3798.24 14340.6 -34705.5 -7.41177 
1676 1 17.061 4.751 3 6.02329 -123415 -125427 -144082 -467.128 3462.24 -27757 -7.41104 
1677 1 17.759 3.516 3 6.02329 -126839 -122046 -134272 -18027.4 10417.5 -33253 -7.41159 
1678 1 17.038 2.295 3 6.02587 -133670 -139196 -142854 11914.4 -1196.25 -28863.9 -7.4111 
1679 1 17.735 1.06 3 6.02413 -139852 -152771 -137815 -18265 6210.33 -31705.5 -7.41176 
12104 2 10.553 8.696 6.4 6.02705 -137846 -129788 -144096 -6601.78 15720.2 -20528.5 -7.41127 
12105 2 11.274 7.475 6.4 6.02241 -169625 -122105 -150215 17714.1 12099.2 -16223.5 -7.41111 
12106 2 10.576 6.24 6.4 6.02329 -130066 -117355 -146764 7904.86 11941.7 -19680.2 -7.41049 
12107 2 11.297 5.019 6.4 6.02329 -122014 -123228 -151197 22054 7374.47 -16981.7 -7.41049 
12108 2 10.599 3.784 6.4 6.02238 -172965 -117745 -148922 9639.76 8227.84 -18852.5 -7.41108 
12109 2 11.32 2.563 6.4 6.02537 -137176 -169363 -151337 -8938.84 2901.96 -17751.7 -7.4112 
12110 2 10.623 1.329 6.4 6.01884 -136705 -152526 -150541 -23400.5 4375.82 -18150.1 -7.41113 
12111 2 11.343 0.107 6.4 6.01916 -135315 -151667 -150526 -11120.2 -1405.47 -18729.4 -7.41111 
12287 2 13.389 8.723 6.4 6.02329 -121751 -126730 -147812 24138.4 14078.2 -19242 -7.41064 
12288 2 12.691 7.488 6.4 6.02238 -176042 -117379 -141152 9872.58 14912.9 -24563.9 -7.41148 
12289 2 13.412 6.267 6.4 6.02537 -136449 -172850 -148878 -6887.25 9126.12 -20155.3 -7.41131 
12290 2 12.715 5.033 6.4 6.01884 -139937 -152553 -143963 -23058.7 11203 -23598.2 -7.41134 
12291 2 13.435 3.811 6.4 6.02345 -136015 -154930 -148947 -10163.1 4484.77 -21130.1 -7.41131 
12292 2 12.738 2.577 6.4 6.02361 -131916 -134379 -146460 -38278.9 7276.08 -22645.3 -7.41126 
12293 2 13.459 1.355 6.4 6.01982 -169447 -123152 -148046 -11740.7 13.5153 -22268.6 -7.41112 
12294 2 12.761 0.121 6.4 6.02292 -131076 -152267 -148172 -9756.39 3360.14 -21824.1 -7.41097 
12470 2 14.807 8.737 6.4 6.01884 -143097 -152461 -134212 -22533.8 17888.4 -29672.7 -7.41185 
12471 2 15.527 7.515 6.4 6.02345 -136257 -158900 -146337 -8171.15 11013.6 -23270.2 -7.41129 
12472 2 14.83 6.281 6.4 6.02114 -134730 -134127 -137721 -37847.8 14193.2 -28561.6 -7.41171 
12473 2 15.551 5.059 6.4 6.01966 -167839 -126519 -146396 -9824.31 5943.32 -24446.3 -7.41129 
12474 2 14.853 3.825 6.4 6.02294 -134007 -154163 -140884 -8220.8 10437 -27484.8 -7.41136 
12475 2 15.574 2.604 6.4 6.02329 -122426 -127276 -145347 22592.6 1283.99 -25653.8 -7.41066 
12476 2 14.876 1.369 6.4 6.0232 -173258 -118999 -143513 8204.22 6462.36 -26442.1 -7.41147 
12477 2 15.597 0.148 6.4 6.02342 -135667 -134970 -143525 9336.72 -3074.32 -26948.5 -7.41082 
12653 2 17.643 8.763 6.4 6.01966 -169097 -127679 -143838 -7393.94 12465.6 -26199.9 -7.41152 
12654 2 16.945 7.529 6.4 6.02169 -129433 -121581 -129943 -24830.7 17331 -33599.3 -7.4116 
12655 2 17.666 6.307 6.4 6.0211 -120893 -131883 -143848 -8253.02 7500.72 -27487 -7.41071 
12656 2 16.968 5.073 6.4 6.02148 -182884 -152532 -134118 -8304.61 13491.4 -32433.5 -7.41229 
12657 2 17.689 3.852 6.4 6.02166 -133607 -143430 -142582 10596.6 2724.97 -28927.7 -7.41073 
12658 2 16.992 2.617 6.4 6.02397 -141307 -153369 -137606 3777.77 9497.16 -31203.4 -7.41178 
12659 2 17.712 1.396 6.4 6.02657 -141690 -153764 -140597 19055.9 -1912.39 -30283.2 -7.41161 
12660 2 17.015 0.161 6.4 6.02688 -141993 -149922 -140575 172.28 5462.71 -30005.5 -7.41161 
1856 1 19.223 8.414 3 6.02179 -130434 -147883 -141945 44422 9610.04 -29492 -7.41096 
1857 1 19.92 7.18 3 6.02304 -151377 -187644 -121397 -5539.27 17405 -39703.1 -7.41296 
1858 1 19.2 5.959 3 6.0204 -139560 -159558 -141541 -2031.89 4641.38 -30816.7 -7.4114 
1859 1 19.897 4.724 3 6.02522 -144943 -152658 -126251 -22371.1 13511.2 -38114.8 -7.41237 
1860 1 19.177 3.503 3 6.02269 -140749 -158693 -139941 -2243.24 -36.0064 -32102.2 -7.41138 
1861 1 19.874 2.268 3 6.02587 -136057 -139550 -130531 -5921.4 9519.34 -36632.3 -7.41175 
1862 1 19.153 1.047 3 6.02313 -124689 -122734 -137318 -2144.18 -4524.36 -33500.1 -7.41139 
2039 1 22.059 8.388 3 6.02179 -137446 -142095 -110740 25758.9 20347.9 -44440 -7.41279 
2040 1 21.338 7.166 3 6.0211 -122474 -130535 -138776 31765.5 5656.09 -33561.7 -7.4114 
2041 1 22.036 5.932 3 6.02169 -128431 -125514 -116512 11295.6 16684.6 -42980.7 -7.4125 
2042 1 21.315 4.71 3 6.02179 -131607 -147539 -136908 44053.9 895.943 -35121 -7.41124 
2043 1 22.012 3.476 3 6.02304 -149334 -191082 -122289 -7728.71 12669.7 -41344.7 -7.4129 
2044 1 21.292 2.255 3 6.02169 -142765 -159649 -134245 -752.564 -3558.82 -36537.3 -7.41156 
2045 1 21.989 1.02 3 6.02589 -143191 -154013 -127105 -18359.4 8634.03 -39630.7 -7.4123 
2222 1 23.477 8.374 3 6.02486 -148404 -195198 -136176 16899.8 6699.93 -35738.3 -7.41209 
2223 1 24.174 7.14 3 6.02023 -145411 -158864 -105902 12163.5 19603.8 -47307.1 -7.41333 
2224 1 23.454 5.918 3 6.02215 -138851 -163718 -134092 31880.2 1878.04 -37481.1 -7.41189 
2225 1 24.151 4.684 3 6.02241 -136816 -142985 -112199 23348.2 15956.4 -45776.3 -7.41282 
2226 1 23.43 3.462 3 6.0211 -122454 -132855 -130877 31246.6 -2965.79 -39234.7 -7.4117 
2227 1 24.128 2.228 3 6.02292 -134376 -161429 -118149 -8338.29 12070.6 -44105 -7.41274 
2228 1 23.407 1.007 3 6.02294 -135387 -144510 -127124 10636.8 -7271.85 -40773.4 -7.41152 
2405 1 26.313 8.347 3 6.02329 -133235 -128029 -93443.4 -19322.7 22556.2 -51136.5 -7.41349 
2406 1 25.592 7.126 3 6.02587 -134141 -148370 -131439 12448 2446.24 -39334.3 -7.41161 
2407 1 26.289 5.891 3 6.02041 -143593 -162732 -100841 -23353.5 19077.7 -49675.1 -7.41359 
2408 1 25.569 4.67 3 6.02487 -149736 -195051 -128035 16092.8 -2197.97 -41238.3 -7.41252 
2409 1 26.266 3.436 3 6.02023 -143700 -162242 -107837 9831.83 15356.6 -48092.3 -7.4132 
2410 1 25.546 2.214 3 6.01937 -138479 -165587 -123521 30823.4 -6594.84 -43078 -7.41247 
2411 1 26.243 0.98 3 6.02489 -142529 -176674 -114406 4847.08 11409 -46366.9 -7.413 
2588 1 27.731 8.334 3 6.02397 -140278 -166877 -129218 4843.78 3089.29 -40343.5 -7.41212 
2590 1 27.707 5.878 3 6.02329 -125938 -134073 -125172 4301.18 -1621.78 -42679.6 -7.41198 
2592 1 27.684 3.422 3 6.02586 -135710 -148309 -120105 11310.4 -6102.67 -44722 -7.41223 
2594 1 27.661 0.966 3 6.02519 -150484 -192328 -114504 13281 -10398 -46560.5 -7.41338 
12836 2 19.06 8.777 6.4 6.02151 -185955 -152817 -120637 -7307.96 20317.3 -38692.6 -7.41299 
12837 2 19.781 7.556 6.4 6.0204 -131692 -146633 -141124 14768.9 8697.35 -30319.8 -7.41101 
12838 2 19.084 6.321 6.4 6.02395 -143732 -153379 -125776 9710.45 16662 -37293.4 -7.4124 
12839 2 19.804 5.1 6.4 6.02413 -142449 -158099 -139875 23192.1 3883.8 -31862.4 -7.41137 
12840 2 19.107 3.865 6.4 6.02589 -144903 -152131 -130194 2198.34 12813.3 -36021.3 -7.41216 
12841 2 19.827 2.644 6.4 6.02398 -139163 -158737 -137725 21831.4 -732.224 -33401.8 -7.41174 
12842 2 19.13 1.409 6.4 6.02602 -135740 -138976 -134217 -11330 8723.91 -34734 -7.41156 
12843 2 19.851 0.188 6.4 6.02313 -124853 -123268 -134484 21498.7 -5210.39 -35072.1 -7.41155 
13019 2 21.896 8.804 6.4 6.02413 -142261 -161710 -138851 25505.9 9942.63 -32674 -7.41139 
13020 2 21.199 7.569 6.4 6.02589 -147714 -152442 -115944 3379.43 19662.6 -42098.3 -7.41293 
13021 2 21.919 6.348 6.4 6.02397 -138645 -162376 -137340 24210.2 5016.58 -34521.9 -7.41173 
13022 2 21.222 5.113 6.4 6.02587 -138216 -139294 -121068 -10231.5 15991.8 -40833.7 -7.41225 
13023 2 21.943 3.892 6.4 6.02329 -124408 -129303 -134686 22656.3 87.0464 -36264.4 -7.4115 
13024 2 21.245 2.657 6.4 6.02329 -127378 -125076 -126192 1845.32 12143 -39397.4 -7.41199 
13025 2 21.966 1.436 6.4 6.02587 -134790 -143190 -131195 8311.88 -4340.19 -37990 -7.41169 
13026 2 21.269 0.201 6.4 6.02301 -142211 -156239 -130564 1763.51 7985.37 -37958.4 -7.41187 
13202 2 23.314 8.817 6.4 6.02587 -141134 -139746 -104764 -8814.65 22713.8 -46379.5 -7.41311 
13203 2 24.035 7.596 6.4 6.02329 -124027 -132804 -134849 24978 5762.33 -36667.3 -7.41147 
13204 2 23.337 6.361 6.4 6.02329 -130036 -125384 -110758 3222.15 19167.5 -45214.2 -7.41281 
13205 2 24.058 5.14 6.4 6.02587 -134018 -146926 -132090 10719.7 1055.57 -38603.9 -7.41161 
13206 2 23.361 3.905 6.4 6.02397 -143419 -158234 -116823 2435.59 15294.3 -43827.5 -7.41287 
13207 2 24.081 2.684 6.4 6.02589 -142664 -159876 -128171 22049 -3502.72 -40479.2 -7.41222 
13208 2 23.384 1.449 6.4 6.02185 -144863 -159645 -122305 1822.85 11395.7 -42362.4 -7.4122 
13209 2 24.104 0.228 6.4 6.0232 -147582 -192292 -123537 11360.4 -7873.59 -42350.3 -7.41279 
13385 2 26.15 8.844 6.4 6.02587 -133753 -150162 -132123 12929.3 6502.09 -38248.5 -7.41157 
13386 2 25.453 7.609 6.4 6.02397 -146129 -158602 -99472.9 4053.57 22083.3 -49119 -7.41379 
13387 2 26.173 6.388 6.4 6.02589 -142138 -163270 -129119 24374.2 1641.92 -40424.4 -7.41214 
13388 2 25.476 5.153 6.4 6.02413 -148717 -157644 -106128 3110.67 18625 -47748.3 -7.41317 
13389 2 26.196 3.932 6.4 6.02304 -140070 -164453 -125498 29711 -2857.37 -42432 -7.41235 
13390 2 25.499 2.697 6.4 6.02166 -136494 -146490 -112411 -8586.47 14845.4 -46341.4 -7.41257 
13391 2 26.22 1.476 6.4 6.02294 -133280 -164883 -120395 10831.9 -7283.31 -44446.2 -7.4126 
13392 2 25.522 0.242 6.4 6.02078 -123947 -130570 -118298 -31248.8 10878 -44816.7 -7.41237 
13568 2 27.568 8.857 6.4 6.02657 -149747 -157592 -86690.7 3139.13 24876 -52321.9 -7.41447 
13570 2 27.591 6.401 6.4 6.0231 -140544 -147288 -94350.2 -8660.7 21606.7 -51172 -7.4133 
13572 2 27.614 3.946 6.4 6.0211 -127393 -133435 -101208 -28077.4 18164.5 -49890.9 -7.41318 
13574 2 27.638 1.49 6.4 6.01905 -142058 -163206 -108303 -29112.8 14416.5 -48201.5 -7.41341 
2589 1 28.428 7.099 3 6.02586 -140723 -145096 -88160.3 -5126.44 21940.6 -52993.9 -7.41398 
2591 1 28.405 4.643 3 6.02329 -131510 -131208 -96169 -21653.4 18580.3 -51546.9 -7.41333 
2593 1 28.381 2.187 3 6.02072 -142258 -165820 -103989 -25773 14945.3 -49827.6 -7.41341 
2771 1 30.566 8.307 3 6.02397 -147285 -162830 -74989.8 -18386.7 24418.6 -55406.1 -7.4151 
2772 1 29.846 7.086 3 6.02657 -143522 -165224 -123012 6161.18 -1218.21 -43167.7 -7.41245 
2773 1 30.543 5.851 3 6.02657 -148407 -161347 -83765.9 -18478.9 21512.6 -54070.4 -7.41461 
2774 1 29.823 4.63 3 6.02398 -141778 -166810 -117471 3597.37 -5718.82 -45431.6 -7.41275 
2775 1 30.52 3.395 3 6.02586 -139295 -148123 -92169.9 -7523.81 18154.6 -52622.9 -7.41375 
2776 1 29.799 2.174 3 6.02329 -127802 -133906 -111287 2801.55 -9971.28 -47555.2 -7.41273 
2777 1 30.497 0.939 3 6.02343 -128421 -134424 -100136 -23071.9 14587.9 -50920.9 -7.41296 
2954 1 31.984 8.294 3 6.02329 -128052 -137647 -120808 4252.83 -1296.31 -42949 -7.41193 
2955 1 32.682 7.059 3 6.02329 -132276 -132903 -70113.5 -18636.3 24058.7 -55919.1 -7.41497 
2956 1 31.961 5.838 3 6.02586 -136557 -151793 -115355 18260.2 -5565.65 -45395.5 -7.41246 
2957 1 32.658 4.603 3 6.02398 -145944 -165616 -79555.9 -20718.3 21095.4 -54590.2 -7.41483 
2958 1 31.938 3.382 3 6.02657 -145257 -165140 -108735 4585.69 -9725.38 -47698.2 -7.41322 
2959 1 32.635 2.147 3 6.02673 -147291 -163972 -88290.7 -20834.6 17777.1 -52993.7 -7.41436 
2960 1 31.915 0.926 3 6.02322 -143302 -164363 -101489 592.595 -13631.6 -49752 -7.41362 
3137 1 34.82 8.267 3 6.02486 -157458 -196681 -55943.1 -4948.85 26206.9 -56766.2 -7.41643 
3138 1 34.1 7.046 3 6.02141 -142411 -172326 -113777 2997.3 -5594.38 -44540.8 -7.41257 
3139 1 34.797 5.811 3 6.02587 -141630 -149860 -65595.2 -6133.04 23637.3 -55705.6 -7.41518 
3140 1 34.076 4.59 3 6.02329 -128151 -137003 -106685 4435.29 -9706.5 -47066.5 -7.41295 
3141 1 34.774 3.355 3 6.02329 -131091 -135425 -75647.6 -20949.5 20871.9 -54233.3 -7.41465 
3142 1 34.053 2.134 3 6.02587 -138562 -151465 -98808.2 16369 -13642.5 -49236.2 -7.41337 
3143 1 34.75 0.899 3 6.02413 -144423 -165760 -85412.6 -21757.1 17683.1 -52457.8 -7.41449 
3320 1 36.238 8.253 3 6.02179 -133961 -156650 -112807 48649.9 -5941.41 -42903.8 -7.41258 
3321 1 36.935 7.019 3 6.02303 -154991 -200489 -51812 -7020.49 25911.4 -55743.1 -7.41665 
3322 1 36.215 5.798 3 6.0204 -144214 -169711 -105353 1812.89 -9897.56 -45520.9 -7.41326 
3323 1 36.912 4.563 3 6.02522 -149194 -165265 -62439.1 -24311.2 23469.2 -54520.8 -7.41574 
3324 1 36.192 3.342 3 6.02269 -145702 -169677 -96984.9 1328.1 -13613.9 -47843.3 -7.4136 
3325 1 36.889 2.107 3 6.02587 -140711 -151794 -72734.6 -8305.39 20771.5 -53063.5 -7.41478 
3326 1 36.168 0.886 3 6.02313 -129744 -134436 -87534.6 1066.84 -17105.3 -50062.9 -7.41399 
13569 2 28.288 7.636 6.4 6.02306 -139966 -167576 -127007 26858 2138.22 -41431.9 -7.41224 
13571 2 28.312 5.18 6.4 6.02292 -132516 -168205 -122448 13161 -2412.23 -43887 -7.41245 
13573 2 28.335 2.724 6.4 6.02313 -135202 -150043 -116831 -18688.1 -6821.36 -46047.2 -7.41239 
13575 2 28.358 0.268 6.4 6.02055 -141486 -162768 -111043 -6352.82 -10940.2 -47966.3 -7.41312 
13751 2 30.404 8.884 6.4 6.02329 -124965 -137195 -125104 32228.1 2166.04 -41811.4 -7.41195 
13752 2 29.706 7.649 6.4 6.02327 -130790 -132712 -81104.5 7018.02 24361.9 -53792.3 -7.41426 
13753 2 30.427 6.428 6.4 6.02487 -142169 -185336 -120240 800.705 -2240.04 -44335 -7.41251 
13754 2 29.73 5.194 6.4 6.01659 -142868 -166042 -89223.3 -27312.1 21226.8 -52521.2 -7.41431 
13755 2 30.45 3.972 6.4 6.02237 -142568 -165554 -114455 -5080.69 -6481.61 -46677.6 -7.41304 
13756 2 29.753 2.738 6.4 6.02452 -146213 -162435 -97196.6 -30203.5 17715.6 -51100.5 -7.41388 
13757 2 30.473 1.516 6.4 6.01691 -140358 -169741 -107670 -4965.93 -10514.6 -48928 -7.41318 
13758 2 29.776 0.282 6.4 6.02487 -144417 -179647 -104494 -28022.3 14001.1 -49425.7 -7.41339 
13934 2 31.822 8.898 6.4 6.01659 -145876 -166617 -67181.8 -24925.2 26669.4 -55529.4 -7.41539 
13935 2 32.542 7.676 6.4 6.02452 -141970 -167729 -118523 -3163.14 -2176.71 -44073.6 -7.4128 
13936 2 31.845 6.442 6.4 6.02452 -147881 -162178 -75976 -27840.5 23887.3 -54506.3 -7.41515 
13937 2 32.565 5.22 6.4 6.01659 -139529 -172336 -112297 -2873.26 -6452 -46635.1 -7.41289 
13938 2 31.868 3.986 6.4 6.02486 -147126 -181994 -84860.8 -24677.2 20866.4 -53129 -7.41446 
13939 2 32.589 2.765 6.4 6.02327 -126451 -138820 -104855 28436.5 -10573.2 -48998 -7.41294 
13940 2 31.891 1.53 6.4 6.02345 -129589 -133780 -93132.3 4202.12 17481.2 -51612.5 -7.41371 
13941 2 32.612 0.309 6.4 6.02486 -139433 -148988 -96877.7 12921.6 -14314.7 -51104.7 -7.41322 
14117 2 34.657 8.924 6.4 6.01659 -138229 -173507 -117789 -1513.99 -2569.23 -42956.5 -7.4127 
14118 2 33.96 7.69 6.4 6.02487 -149399 -182002 -61910.9 -22359.2 26298.2 -55503.5 -7.4157 
14119 2 34.681 6.469 6.4 6.02327 -125677 -140677 -110782 30289 -6688.01 -45739.7 -7.4126 
14120 2 33.983 5.234 6.4 6.02329 -131713 -133889 -71457 6499.99 23527.2 -54413.1 -7.41488 
14121 2 34.704 4.013 6.4 6.02487 -139015 -153408 -102904 13750.8 -10531.1 -48286.1 -7.41288 
14122 2 34.007 2.778 6.4 6.02306 -145885 -166625 -81056.7 394.111 20438.9 -52933.6 -7.41474 
14123 2 34.727 1.557 6.4 6.02657 -146362 -166248 -94442.4 23057.1 -14284.8 -50483 -7.41399 
14124 2 34.03 0.322 6.4 6.02688 -146830 -162743 -90229.1 -3773.87 17200.2 -51183 -7.41422 
14300 2 36.075 8.938 6.4 6.02292 -140964 -167293 -46800.6 -8222.38 28097.1 -55650 -7.41655 
14301 2 36.796 7.717 6.4 6.0231 -136714 -157099 -110027 15483.8 -7124.84 -44065.1 -7.41236 
14302 2 36.099 6.482 6.4 6.02306 -148065 -166461 -57709.9 2806.54 25901.5 -54642.4 -7.416 
14303 2 36.819 5.261 6.4 6.02657 -145369 -167922 -101832 24808.4 -10831.1 -46643.6 -7.41357 
14304 2 36.122 4.026 6.4 6.02657 -149467 -164821 -67942.3 -130.813 23298.5 -53379.7 -7.41544 
14305 2 36.842 2.805 6.4 6.02397 -143953 -169811 -93028.2 24991.3 -14368.2 -49039.6 -7.41406 
14306 2 36.145 1.57 6.4 6.02602 -140668 -151241 -78080.2 -14125.4 20315.4 -51854.8 -7.4145 
14307 2 36.866 0.349 6.4 6.02313 -129696 -135009 -83004.5 24299.5 -17680.4 -51266.6 -7.41424 
3503 1 39.074 8.227 3 6.02179 -141472 -154183 -37045.8 24816.9 27713.5 -55002 -7.4166 
3504 1 38.353 7.005 3 6.02169 -126871 -138788 -104550 34293.1 -10274.5 -43282.6 -7.41317 
3505 1 39.051 5.771 3 6.02169 -131887 -136650 -48267.7 10076 25762.1 -54052.9 -7.41626 
3506 1 38.33 4.549 3 6.02179 -136468 -156778 -95542 46475.2 -13876.2 -45776 -7.41339 
3507 1 39.027 3.315 3 6.02303 -154006 -202245 -59950.5 -9099.57 23375.7 -52713.9 -7.41619 
3508 1 38.307 2.094 3 6.0204 -146318 -169247 -86128.6 -344.621 -17167.9 -48008.5 -7.41433 
3509 1 39.004 0.859 3 6.02505 -147752 -164602 -71201.8 -25079.7 20809.9 -51015.6 -7.41525 
3686 1 40.492 8.213 3 6.02522 -145232 -167598 -104493 789.14 -10622.8 -40407.8 -7.41342 
3687 1 41.189 6.978 3 6.0204 -150300 -168022 -34150.2 -21249.1 27652.6 -52540.7 -7.41716 
3688 1 40.469 5.757 3 6.02303 -151003 -203534 -95285.2 15637.7 -14139.1 -42906.7 -7.41425 
3689 1 41.166 4.523 3 6.02179 -139940 -155278 -46368.1 23089.2 25787.1 -51503.2 -7.4162 
3690 1 40.445 3.301 3 6.0211 -128909 -138439 -84994.2 32121.7 -17570.3 -45246.5 -7.41424 
3691 1 41.143 2.067 3 6.02169 -131735 -138184 -58223.7 8382.54 23559.8 -50079.3 -7.41559 
3692 1 40.422 0.845 3 6.02227 -138137 -154026 -74314.7 42887.7 -20569 -47236.2 -7.41455 
3869 1 43.328 8.186 3 6.02241 -183464 -134658 -19982.6 -16741.1 29181.8 -50269.5 -7.41805 
3870 1 42.607 6.965 3 6.02519 -139263 -152604 -95787.6 16053 -14617.5 -39537.6 -7.41351 
3871 1 43.304 5.73 3 6.02141 -149541 -171387 -32602.1 -21138.2 27751.1 -49368.8 -7.417 
3872 1 42.584 4.509 3 6.02486 -154423 -200874 -85241 15799.6 -17817.8 -41820.6 -7.41479 
3873 1 43.281 3.275 3 6.02023 -148537 -170013 -45255.3 10169.2 25926.2 -48258.2 -7.41654 
3874 1 42.561 2.053 3 6.02247 -145660 -170233 -73796.5 30620.3 -20731.7 -43947 -7.41511 
3875 1 43.258 0.819 3 6.02225 -139987 -151303 -57852 22538.1 23801 -46825.7 -7.41569 
4052 1 44.745 8.173 3 6.0224 -177112 -135980 -97038 3698.36 -15055.6 -35741.3 -7.41384 
4053 1 45.443 6.938 3 6.02329 -135823 -137538 -18686.4 -16774.9 29288.8 -46605.5 -7.41754 
4054 1 44.722 5.717 3 6.02329 -130632 -138826 -85903.3 3127.98 -18166.5 -38043.9 -7.41387 
4055 1 45.42 4.482 3 6.02241 -184337 -135895 -31960.1 -20082.9 27933.6 -45730.3 -7.41715 
4056 1 44.699 3.261 3 6.02519 -141097 -152067 -74050 8704.05 -21059.8 -39996.3 -7.41469 
4057 1 45.396 2.026 3 6.02072 -147190 -171282 -45508.3 -24419.5 26267.9 -44375.8 -7.41655 
4058 1 44.676 0.805 3 6.02519 -156198 -197948 -61830.8 12113.2 -23624.4 -41791.7 -7.41607 
14483 2 38.911 8.965 6.4 6.02413 -146009 -168909 -110275 27729.6 -7522.71 -41670.5 -7.41287 
14484 2 38.214 7.73 6.4 6.02589 -151490 -164480 -43002.6 2349.22 27758.7 -54032.2 -7.41681 
14485 2 38.934 6.509 6.4 6.02398 -142984 -170646 -101698 26394.1 -11172.3 -44434.6 -7.41359 
14486 2 38.237 5.274 6.4 6.02587 -142682 -151064 -53724.5 -11603.5 25618.2 -52971.9 -7.41582 
14487 2 38.958 4.053 6.4 6.02329 -129152 -138522 -92044.7 24719.5 -14793.1 -46934.3 -7.41374 
14488 2 38.26 2.818 6.4 6.02329 -132296 -136455 -64950 146.909 23197.2 -51623.6 -7.41522 
14489 2 38.981 1.597 6.4 6.02587 -139729 -153220 -81712.7 10208.1 -17903.5 -49106.9 -7.41428 
14490 2 38.284 0.362 6.4 6.02188 -145901 -169510 -75810.4 9.2598 20359.7 -49913.8 -7.41463 
14666 2 40.329 8.978 6.4 6.02587 -144589 -150485 -28333 -9116.23 29418.4 -52497.9 -7.41721 
14667 2 41.05 7.757 6.4 6.02329 -127998 -138771 -101666 25717.5 -11786 -41469.1 -7.41322 
14668 2 40.352 6.522 6.4 6.02329 -134318 -135898 -39684.2 2708.8 27693.8 -51647.8 -7.41661 
14669 2 41.073 5.301 6.4 6.02586 -138538 -153942 -92245.3 11499.9 -15091 -44052 -7.4137 
14670 2 40.376 4.066 6.4 6.02398 -148258 -168388 -51447 1717.6 25504.3 -50461.7 -7.41634 
14671 2 41.096 2.845 6.4 6.02589 -147555 -167798 -81466.1 22819.9 -18217.1 -46352.4 -7.41469 
14672 2 40.399 1.61 6.4 6.02185 -150000 -169320 -62732 937.623 23147.3 -49026.7 -7.41535 
14673 2 41.119 0.389 6.4 6.0232 -152620 -200985 -70234.8 12066.1 -21082.1 -48315.8 -7.41561 
14849 2 43.165 9.005 6.4 6.02586 -137226 -153526 -102681 12070.1 -12278.4 -38016.7 -7.41314 
14850 2 42.468 7.77 6.4 6.02397 -150105 -167613 -25525.9 4273.92 29205.3 -49528.1 -7.41776 
14851 2 43.188 6.549 6.4 6.02589 -146278 -167778 -92628.9 23690.7 -15603.6 -40541.5 -7.41408 
14852 2 42.491 5.314 6.4 6.02413 -153355 -166319 -37781.9 3284.03 27675.6 -48530.2 -7.41684 
14853 2 43.211 4.093 6.4 6.02303 -144713 -170021 -82094.3 29170.3 -18587.4 -42917.6 -7.41465 
14854 2 42.514 2.858 6.4 6.02166 -141530 -154703 -49821.3 -8459.62 25639.9 -47260.5 -7.41591 
14855 2 43.235 1.637 6.4 6.02294 -138233 -171329 -70275.5 10393.6 -21366.3 -44991.1 -7.41526 
14856 2 42.537 0.403 6.4 6.02078 -129124 -138154 -61627.9 -31090.9 23344.4 -45705.4 -7.41539 
15032 2 44.583 9.018 6.4 6.02413 -154949 -165370 -11392.9 5736.59 30371.8 -46663.1 -7.41828 
15033 2 45.303 7.797 6.4 6.02303 -143254 -169381 -94322.4 29638.4 -16006.7 -36691.5 -7.414 
15034 2 44.606 6.562 6.4 6.02166 -143356 -153803 -23837.6 -5902.62 29225.7 -45891.6 -7.41733 
15035 2 45.327 5.341 6.4 6.02295 -136790 -171229 -82806.8 11167.4 -19010.2 -38974 -7.41457 
15036 2 44.629 4.107 6.4 6.0211 -132248 -139999 -36201.6 -27036.6 27732.4 -44773.1 -7.41667 
15037 2 45.35 2.885 6.4 6.02316 -139230 -153655 -70743 -20260.2 -21742.9 -41019.5 -7.41499 
15038 2 44.653 1.651 6.4 6.02152 -147131 -169162 -49510.7 -27912.5 25924.5 -43393.6 -7.41657 
15039 2 45.373 0.429 6.4 6.02055 -147064 -167998 -58498 -7652.17 -24131.4 -42889.8 -7.41581 
4235 1 47.581 8.146 3 6.02657 -151090 -167376 -5582.12 -16878.7 30477.9 -43187.9 -7.41886 