ITEM: TIMESTEP
107
ITEM: NUMBER OF ATOMS
11096
ITEM: BOX BOUNDS pp pp pp
0.0000000000000000e+00 9.1467455599999994e+01
0.0000000000000000e+00 1.5842627999999999e+02
0.0000000000000000e+00 1.8399999999999999e+01
ITEM: ATOMS id type x y z c_csym c_2[1] c_2[2] c_2[3] c_2[4] c_2[5] c_2[6] c_3 
145 1 0.20116 9.8205 7.39122 6.02036 -151748 -162115 5855.85 -23474.7 21492 -1920.89 -7.41442 
146 1 0.885652 8.57878 7.38742 6.01768 -166521 -146611 -3750.92 -17820.6 12623.4 -3166.75 -7.41381 
147 1 0.15244 7.36539 7.38409 6.02409 -152319 -160911 2587.99 -12381.7 14539 -1422.08 -7.41399 
148 1 0.836201 6.12331 7.38138 6.02256 -162960 -149719 -1219.94 -8630.78 8671.4 -2648.34 -7.41371 
149 1 0.102323 4.91027 7.37908 6.02662 -153255 -159351 940.942 -5119.63 8527.1 -949.843 -7.41373 
150 1 0.785628 3.66798 7.37746 6.02599 -159909 -152497 -21.5186 -3147.25 4966.08 -1995.46 -7.41363 
151 1 0.0513557 2.45514 7.37619 6.02868 -154588 -157809 384.271 -1182 3761.37 -486.405 -7.4136 
152 1 0.734436 1.21274 7.37556 6.02895 -157319 -155034 317.166 -643.483 1568.09 -1316.19 -7.41358 
275 1 3.03553 9.76312 7.3925 6.01587 -178667 -134903 -4009.05 -23470.9 14539.6 -8892.59 -7.41396 
276 1 2.30318 8.54923 7.38816 6.01962 -160624 -153030 3047.69 -14764.1 17566.6 -4177.13 -7.41417 
277 1 2.98699 7.30712 7.38541 6.01983 -171908 -141171 -1116.43 -12370.2 10702.4 -7788.31 -7.41386 
278 1 2.25371 6.09373 7.38206 6.02302 -158506 -154498 944.126 -5672.21 10966.9 -3805.31 -7.41384 
279 1 2.93704 4.85141 7.38039 6.02366 -165906 -146819 247.205 -5164.57 6832.87 -6503.06 -7.41374 
280 1 2.20312 3.63837 7.3781 6.02575 -157137 -155433 186.664 -272.296 5512.1 -3442 -7.41366 
281 1 2.88621 2.39595 7.37746 6.02702 -160773 -151779 538.879 -1332.75 3215.22 -5228.56 -7.41365 
282 1 2.15192 1.18312 7.37619 6.02765 -156345 -155954 197.297 2082 1239.28 -3159.51 -7.41359 
404 1 4.45301 9.73393 7.39424 6.01201 -172236 -141990 2051.95 -16012.9 20689.8 -6763.14 -7.41436 
405 1 5.13689 8.49176 7.39154 6.01683 -184122 -129566 444.764 -14820.5 13129.9 -13727.9 -7.41415 
406 1 4.40447 7.27786 7.38712 6.0169 -166799 -146719 -229.799 -4997.95 13732.1 -6706.26 -7.41398 
407 1 5.08784 6.0355 7.38544 6.02086 -175000 -138261 1655.99 -5771.57 9306.04 -11968.8 -7.41399 
408 1 4.35451 4.8221 7.38205 6.02142 -162341 -150491 -914.092 2067.53 7591.32 -6545.2 -7.41375 
409 1 5.03763 3.57966 7.3814 6.02464 -166902 -146107 1570.15 -515.477 5485.28 -10137.3 -7.41384 
410 1 4.30369 2.3666 7.37907 6.02441 -158963 -153706 -551.251 5721.87 2589.68 -6441.97 -7.41366 
411 1 4.98677 1.12419 7.37941 6.02552 -159575 -153234 697.405 1726.97 1768.43 -8484.07 -7.41373 
533 1 7.2856 9.67773 7.39956 6.01129 -199427 -114696 3905.83 -15652.3 15552.4 -20123.9 -7.41461 
534 1 6.55432 8.46313 7.39421 6.0092 -178443 -135551 -3020 -2823.81 16563.6 -9443.08 -7.4141 
535 1 7.23776 7.22073 7.39258 6.01682 -187364 -126516 4723.76 -4660.44 12107.8 -18212.8 -7.41441 
536 1 6.50528 6.00678 7.3881 6.0152 -170804 -142547 -3386.16 6126.48 9952.13 -9742.51 -7.41386 
537 1 7.18844 4.76432 7.38748 6.02182 -176156 -137448 3980.26 2310.88 8307.03 -16052.2 -7.41419 
538 1 6.45508 3.55086 7.38405 6.01985 -164331 -148681 -2413.62 11299.3 4215.61 -9968.29 -7.41375 
539 1 7.1382 2.30844 7.38442 6.02279 -165932 -147569 2198.4 5818.68 4429 -13929.8 -7.41399 
540 1 6.40424 1.09533 7.38205 6.02206 -158687 -154175 -696.933 13324 -544.968 -10315.1 -7.41376 
662 1 8.70298 9.65003 7.40299 6.00042 -193236 -121096 -7748.89 872.102 19030.3 -11607 -7.41417 
664 1 8.65515 7.1929 7.39614 6.00761 -182580 -131217 -7611.4 12026.9 12293.4 -12651.1 -7.41393 
666 1 8.60586 4.73639 7.39112 6.01446 -172912 -140468 -5824.96 19031.7 6023.44 -13455.5 -7.41383 
668 1 8.55564 2.28043 7.38811 6.01816 -164293 -149129 -2971.37 22451 556.971 -14216.3 -7.41386 
663 1 9.38649 8.40758 7.40151 6.00969 -202500 -111611 9795.85 -1614.74 14827.2 -24652.6 -7.415 
665 1 9.33837 5.95041 7.3956 6.01636 -188500 -125562 8225.76 7328.85 11382 -22509.2 -7.41471 
667 1 9.28902 3.49396 7.39156 6.01971 -175205 -138838 5307.42 12344.7 7571.64 -20179.4 -7.41441 
669 1 9.23896 1.03816 7.38951 6.01622 -162376 -151465 1623.93 14197.7 3551.76 -17923.4 -7.41416 
791 1 11.5338 9.59653 7.41163 6.00148 -219360 -94212.7 16934.4 3220.29 17075.9 -30526.6 -7.41578 
792 1 10.8038 8.38095 7.40569 5.99926 -197111 -116759 -13809.1 19563 14209 -14801.4 -7.41393 
793 1 11.4871 7.13845 7.40529 6.00943 -203374 -110802 14526.9 14417.2 14318.2 -28740.4 -7.41542 
794 1 10.7557 5.92367 7.40002 6.00734 -184650 -129143 -11103.6 28812.9 7724.19 -16396.7 -7.41387 
795 1 11.439 4.68125 7.40052 6.01575 -187466 -127063 10391.3 21395.8 10892.1 -26536 -7.41503 
796 1 10.7064 3.46712 7.39614 6.01336 -172895 -140918 -6966.46 34008.2 1738.97 -17771.9 -7.41394 
797 1 11.3898 2.22488 7.39758 6.01171 -171811 -142784 5133.6 24685.5 7057.98 -24146.7 -7.41465 
798 1 10.6564 1.01126 7.39421 6.01519 -161589 -152179 -2034.77 35778.7 -3554.94 -19091.6 -7.41412 
920 1 12.9511 9.57133 7.41602 5.99098 -213347 -100183 -21934.8 28032.9 15372.5 -15892.3 -7.41384 
921 1 13.6345 8.32885 7.41582 6.00169 -219256 -94048.1 22778.5 23059.3 16774 -33963.7 -7.41629 
922 1 12.9044 7.11318 7.41011 5.99974 -198843 -115092 -18354.6 40004.4 8993.11 -18339.3 -7.41382 
923 1 13.5878 5.87078 7.4107 6.00914 -201678 -112651 17531.4 32448.3 14031.4 -32168.7 -7.41582 
924 1 12.8563 4.6559 7.40568 6.00808 -184443 -129670 -12931.1 47521.1 2768.62 -20446.4 -7.41395 
925 1 13.5398 3.4137 7.40713 6.00737 -183738 -131161 10724.4 37618.8 10657.8 -29949.3 -7.41532 
926 1 12.8072 2.19946 7.40298 6.01157 -170350 -144045 -6301.04 51050.8 -2951.88 -22324 -7.4142 
927 1 13.4911 0.957568 7.40528 6.00241 -165533 -149475 3035.18 39191.8 6819 -27481.2 -7.41484 
1049 1 15.7804 9.5219 7.42636 5.99383 -234727 -76651.2 32554 32399.8 18537.7 -37638.2 -7.41728 
1050 1 15.0518 8.30524 7.42059 5.99248 -213992 -99436.9 -27377.1 51655.2 9623.64 -19086.7 -7.41367 
1051 1 15.7353 7.06292 7.42129 6.00197 -216630 -96850.5 26468.3 44541.3 16692.6 -36403.6 -7.41675 
1052 1 15.0051 5.84716 7.41598 6.00196 -197942 -116329 -20849 61948.9 3433.83 -21889.2 -7.41386 
1053 1 15.6887 4.60503 7.41741 6.00261 -197375 -117352 18341.5 52202.2 14023.3 -34582.6 -7.41615 
1054 1 14.9572 3.39005 7.41281 6.00826 -181560 -133125 -12639.4 67814.5 -2488.36 -24356.1 -7.41419 
1055 1 15.6412 2.14823 7.41498 5.99723 -177406 -137931 8843.16 55680.5 10740 -32296.3 -7.41553 
1056 1 14.9085 0.933883 7.41124 6.00546 -164883 -149729 -3470.16 69556.2 -7873.89 -26558.1 -7.41462 
1178 1 17.1976 9.50002 7.43069 5.98627 -228617 -83439.4 -37665 62665.3 9588.95 -18729.4 -7.41342 
1179 1 17.8815 8.25784 7.43149 5.99495 -230433 -80772.8 36659.7 56634.7 18700.2 -38901.5 -7.41777 
1180 1 17.1525 7.04114 7.42623 5.99588 -211971 -101758 -30376 76126.1 3642.97 -22049.1 -7.41366 
1181 1 17.8365 5.79914 7.42763 5.99696 -211098 -102402 27604 67180.6 16899.3 -37578 -7.41709 
1182 1 17.106 4.58331 7.42289 6.00468 -194340 -120333 -20908.7 84834.4 -2269.54 -25003.3 -7.41407 
1183 1 17.7902 3.34161 7.42491 5.99289 -190426 -124549 16650 73079 14346.1 -35659.1 -7.41636 
1184 1 17.0585 2.12652 7.42087 6.00112 -176070 -139017 -9957.26 88872.9 -7786.14 -27618 -7.4146 
1185 1 17.7433 0.885236 7.42348 5.98689 -168654 -146848 4564.71 74670.2 11159.5 -33234.8 -7.41563 
1307 1 20.0262 9.45555 7.44077 5.98867 -242071 -65882.9 47429.9 67675.4 19996.6 -39678.1 -7.41881 
1308 1 19.2986 8.23791 7.43577 5.99085 -224839 -87416.9 -40904.5 88867.6 3439.68 -21129.4 -7.41338 
1309 1 19.9829 6.99611 7.43713 5.99201 -223725 -87709.1 37901.9 81354.7 19135.7 -38825 -7.41809 
1310 1 19.2537 5.77938 7.4325 6.0008 -207087 -106891 -30644.5 100742 -2301.66 -24375.7 -7.41384 
1311 1 19.9382 4.53785 7.43435 5.98837 -203405 -110366 25988.1 90168.1 17417 -37341.2 -7.41728 
1312 1 19.2075 3.32196 7.43029 5.99762 -188150 -126683 -18358.2 107612 -7810.32 -27273.1 -7.41445 
1313 1 19.8925 2.08081 7.43261 5.98241 -181563 -133547 12383.7 94161.5 14972.8 -35268.3 -7.41642 
1314 1 19.1607 0.865628 7.42926 5.99067 -168187 -146595 -4858.02 109539 -12772.1 -29830.9 -7.41517 
1436 1 21.4434 9.43739 7.44418 5.98729 -235464 -74381 -51741.5 99305.9 2948.44 -19454.5 -7.41304 
1437 1 22.1281 8.19585 7.44551 5.98768 -233485 -74376.5 48568.8 93679.6 20687.7 -38504.7 -7.4191 
1438 1 21.4001 6.97825 7.44114 5.99643 -218613 -94018.5 -41184.6 114493 -2514.45 -22774 -7.41353 
1439 1 22.085 5.73695 7.44282 5.98332 -214724 -96780.9 36222.7 105677 19834.8 -37425.2 -7.41824 
1440 1 21.3554 4.52022 7.43892 5.99509 -200072 -114111 -28121.5 124500 -7910.45 -25775.1 -7.41419 
1441 1 22.0407 3.27927 7.44095 5.97912 -193950 -119940 21674.2 112510 18181.7 -35752 -7.41729 
1442 1 21.3098 2.06331 7.43765 5.98673 -180211 -134550 -13271.5 129189 -12869.7 -28453.2 -7.41498 
1443 1 21.9957 0.822805 7.43999 5.97286 -171418 -143491 5748.99 114363 15774.2 -33532.5 -7.41631 
1565 1 24.2722 9.39817 7.45265 5.9834 -240053 -63392.2 59035.4 103444 21583 -36950.3 -7.42005 
1566 1 23.5453 8.17976 7.44858 5.99222 -227235 -82701 -51861.8 125235 -2804.69 -20553.3 -7.41316 
1567 1 24.2307 6.93874 7.45012 5.97937 -223525 -84713.4 46723.3 118642 21570 -36191.5 -7.41918 
1568 1 23.5022 5.72121 7.44644 5.9921 -210150 -102360 -38569.2 138516 -8014.87 -23487 -7.41384 
1569 1 24.1878 4.48049 7.44823 5.97554 -204684 -107070 31803.8 128616 20704.4 -34891 -7.41818 
1570 1 23.458 3.26376 7.44508 5.98389 -191380 -122469 -22983.4 146273 -12922.1 -26138.8 -7.41468 
1571 1 24.1441 2.02344 7.44707 5.96982 -183788 -129980 14973.5 133259 19041.1 -33064 -7.41712 
1572 1 23.4131 0.80742 7.44453 5.97627 -171009 -142692 -5967.44 148451 -17205.1 -28504.3 -7.41565 
1694 1 25.6893 9.38364 7.45481 5.98935 -232778 -73857 -62154.5 132637 -3084.26 -18024.3 -7.41278 
1695 1 26.3753 8.14296 7.45624 5.97654 -228922 -75156.4 56982.3 128499 22661.2 -33983 -7.42008 
1696 1 25.6478 6.9247 7.45278 5.98886 -217776 -92534.2 -49082.5 149111 -8056.69 -20760.6 -7.41346 
1697 1 26.334 5.68426 7.45437 5.9718 -212801 -96083.9 42179 141715 22542.1 -32991.9 -7.41906 
1698 1 25.6051 4.4668 7.45138 5.98208 -200858 -111586 -33332.6 160055 -12874 -23262.5 -7.41431 
1699 1 26.2916 3.22669 7.4531 5.96791 -194329 -117663 25032.3 149378 21595.2 -31531 -7.41795 
1700 1 25.5614 2.00996 7.45068 5.9734 -182247 -130992 -15620.6 165255 -17175 -25526.7 -7.41531 
1701 1 26.2485 0.770275 7.45248 5.96211 -173590 -139588 6389.01 151623 19809.8 -29634.9 -7.41679 
1823 1 28.519 9.34928 7.46131 5.97483 -230482 -68337.9 66667.1 135054 23180 -31111.2 -7.42091 
1824 1 27.7924 8.13038 7.45802 5.98662 -221920 -84967.2 -59208.5 156056 -7985.55 -17871.2 -7.41305 
1825 1 28.4791 6.89027 7.45946 5.96922 -217478 -87399.7 52347.2 151353 23748.2 -30361.6 -7.4199 
1826 1 27.7511 5.67216 7.4566 5.98079 -207565 -102584 -43753.7 170156 -12679.8 -20139.9 -7.41389 
1827 1 28.4381 4.43231 7.45811 5.96543 -202035 -107185 35372.8 162189 23468.5 -29216.8 -7.41877 
1828 1 27.7088 3.21492 7.45579 5.97161 -191373 -120600 -25915.1 178539 -16990.2 -22217.1 -7.41489 
1829 1 28.3962 1.97541 7.45733 5.96027 -184235 -127545 16431.1 167409 22345.5 -27688.9 -7.41756 
1830 1 27.6659 0.75866 7.45559 5.96414 -173226 -138783 -6562.51 181008 -20614.3 -24105.5 -7.41601 
1952 1 29.9361 9.33794 7.46233 5.98531 -222531 -80339.9 -68671.7 159394 -7777.75 -15004.5 -7.41267 
1953 1 30.6235 8.09818 7.46366 5.96776 -218795 -81656.8 62009.4 157465 24400 -27250.4 -7.42069 
1954 1 29.8963 6.87951 7.46089 5.9786 -211036 -96200.1 -53842.6 176482 -12315.4 -16993.9 -7.41346 
1955 1 30.5837 5.63995 7.46224 5.96312 -206717 -99332.4 45576.4 171417 24730.9 -26369.4 -7.41956 
1956 1 29.8553 4.42198 7.45996 5.97068 -197694 -112343 -36333.6 187975 -16618.6 -18833 -7.41443 
1957 1 30.543 3.18269 7.46131 5.95859 -192156 -117496 26812.4 179761 24218.1 -25165.9 -7.41833 
1958 1 29.8134 1.96534 7.4596 5.96248 -182420 -128683 -16845.7 193610 -20347.5 -20525 -7.41555 
1959 1 30.5016 0.726394 7.46089 5.95381 -175006 -135929 6555.99 182453 22824.8 -23669 -7.41706 
2081 1 32.7672 9.30765 7.46713 5.9673 -216219 -78716.2 71000.2 160127 24577.3 -23836.5 -7.42142 
2082 1 32.0407 8.08852 7.4644 5.97741 -211124 -92368.2 -63356.8 179185 -11773.8 -13962.6 -7.41304 
2083 1 32.7287 6.84929 7.46564 5.96186 -207665 -94093.8 55365.6 177026 25466.4 -23175.5 -7.42031 
2084 1 32.0009 5.63082 7.46337 5.97044 -200950 -106534 -46510.6 193718 -16044.6 -15538.7 -7.41396 
2085 1 32.6891 4.39178 7.46457 5.95725 -196769 -110061 37142.9 188465 25509.8 -22253 -7.41909 
2086 1 31.9602 3.17392 7.46284 5.96169 -188901 -120952 -27329.2 202490 -19875.3 -17001.9 -7.41505 
2087 1 32.6487 1.93513 7.46396 5.95234 -183340 -126335 17005.8 194255 24690.7 -21080.6 -7.4178 
2088 1 31.9189 0.7178 7.46282 5.95499 -174594 -135294 -6662.27 205306 -22989.6 -18360 -7.41626 
2210 1 34.1844 9.29884 7.46731 5.97713 -207589 -91365.8 -72167.6 178477 -11062.5 -11119.8 -7.41265 
2211 1 34.8731 8.05996 7.46847 5.96162 -205081 -91752.3 64580.4 179170 25750.6 -19760.8 -7.42102 
2212 1 34.1459 6.84111 7.46616 5.97038 -200629 -103413 -56214.1 195811 -15265.5 -12427.1 -7.4135 
2213 1 34.8346 5.60234 7.46726 5.95641 -197855 -105245 47162.8 193620 26304 -19082.9 -7.41981 
2214 1 34.1063 4.38405 7.46546 5.96155 -191969 -115553 -37672.2 207658 -19180.8 -13648.9 -7.41453 
2215 1 34.7951 3.14546 7.46647 5.95139 -188166 -119108 27500.5 202487 26008.7 -18197.5 -7.41852 
2216 1 34.0659 1.92768 7.46525 5.95434 -181286 -127762 -17224.8 213632 -22489.9 -14791.3 -7.41571 
2217 1 34.755 0.689325 7.46613 5.94783 -175705 -133004 6412.42 205680 24824.1 -17127.7 -7.41719 
2340 1 36.2904 8.05248 7.46849 5.97025 -196954 -103030 -65311.9 194544 -14291 -9541.1 -7.41307 
2342 1 36.2518 5.59541 7.46762 5.96193 -191751 -113016 -47650.1 209311 -18260.7 -10520.2 -7.41403 
2344 1 36.2123 3.1389 7.46719 5.95433 -184647 -122920 -27753.7 218379 -21756.6 -11439.7 -7.41516 
2346 1 36.1723 0.682929 7.46723 5.94878 -175161 -132626 -6447.14 221557 -24523.4 -12309.8 -7.41642 
2339 1 37.0171 9.27162 7.47086 5.96232 -199178 -92265 73129.9 178004 25648.5 -16200.6 -7.42169 
2341 1 36.9796 6.81402 7.46951 5.95602 -195573 -103327 56701.6 195272 26676.4 -15738.7 -7.42051 
2343 1 36.941 4.35704 7.46854 5.95065 -189801 -114782 37784.5 207216 26860.9 -15109.3 -7.41923 
2345 1 36.9016 1.90068 7.46798 5.94724 -181345 -126257 17041.5 213484 26181.6 -14320.9 -7.4179 
2468 1 38.4344 9.26462 7.47045 5.97101 -190019 -105173 -73731.9 190106 -13137 -6893.94 -7.41267 
2469 1 39.1242 8.02648 7.47143 5.95615 -189454 -103993 65662.6 193650 26684.1 -12265.5 -7.42117 
2470 1 38.3968 6.80765 7.46941 5.96228 -188091 -112878 -57121.7 207596 -17119.2 -7634.81 -7.41355 
2471 1 39.0865 5.56952 7.47027 5.95032 -187416 -112935 47692.8 208503 27317.4 -11867.7 -7.41992 
2472 1 38.3582 4.35113 7.46878 5.95481 -184664 -120530 -38027.9 219698 -20780.1 -8332.02 -7.41462 
2473 1 39.0478 3.11307 7.4695 5.9466 -182969 -122057 27570.6 217846 27102.3 -11334.8 -7.41859 
2474 1 38.3189 1.89503 7.46858 5.94887 -179110 -128050 -17122 226033 -23815.7 -8991.62 -7.41582 
2475 1 39.0086 0.657099 7.46913 5.94455 -175813 -131137 6099.35 221507 26005 -10684.6 -7.41725 
2597 1 41.2687 9.23939 7.47307 5.95676 -180270 -107504 73973.7 188878 26369.7 -8681.32 -7.42179 
2598 1 40.5416 8.02044 7.47094 5.96264 -181007 -115676 -65994.4 202729 -15767.9 -4992.42 -7.41312 
2599 1 41.2317 6.78259 7.47175 5.9505 -181954 -114133 57105.9 206503 27431.8 -8495.4 -7.42058 
2600 1 40.5037 5.56403 7.47009 5.9552 -181022 -121056 -47897.4 217655 -19558.1 -5470.24 -7.4141 
2601 1 41.1937 4.32616 7.47076 5.94629 -181397 -120695 37827.4 218884 27650.4 -8198.2 -7.41928 
2602 1 40.4651 3.10793 7.46966 5.94943 -179199 -126179 -27656.3 227087 -22851.5 -5919.71 -7.41524 
2603 1 41.155 1.8701 7.47016 5.94421 -178370 -127389 16799.8 225611 27008.3 -7795.07 -7.41793 
2604 1 40.4259 0.652114 7.46965 5.94514 -175114 -131186 -6080.58 230677 -25405.1 -6352.39 -7.41651 
2726 1 42.6861 9.23346 7.47223 5.96335 -170829 -120808 -74201.6 194788 -14220.4 -2586.31 -7.4127 
2727 1 43.3769 7.9959 7.47301 5.95116 -172680 -117704 65935.2 201307 27242 -4995.77 -7.42121 
2728 1 42.6491 6.77728 7.47119 5.95565 -174213 -124029 -57251.8 212453 -18093 -2845.03 -7.4136 
2729 1 43.3394 5.53963 7.47182 5.94649 -175949 -122028 47683.1 216540 27875.7 -4917.73 -7.41994 
2730 1 42.611 4.3213 7.47053 5.94981 -176095 -126983 -37893.1 224822 -21619.6 -3085.44 -7.41467 
2731 1 43.3012 3.0836 7.47098 5.94391 -176945 -126339 27339.2 226368 27659 -4746.33 -7.41861 
2732 1 42.5723 1.86549 7.47027 5.94577 -176034 -129785 -16792.8 231586 -24503.1 -3312.54 -7.41589 
2733 1 43.2624 0.627812 7.47054 5.94353 -175201 -130551 5705.51 230557 26567.7 -4494.86 -7.41725 
2855 1 45.522 9.20915 7.47407 5.95231 -160474 -124140 74092.4 193027 26770 -1360.83 -7.4218 
2856 1 44.7943 7.99056 7.47211 5.95652 -163933 -129746 -65998.7 204107 -16389.6 -447.14 -7.41315 
2857 1 45.4852 6.75315 7.47271 5.94718 -167183 -126007 57025.2 211034 27812.1 -1486.66 -7.42058 
2858 1 44.7568 5.53482 7.47122 5.95034 -169261 -130470 -47706.4 219349 -20111.5 -474.977 -7.41414 
2859 1 45.4473 4.29728 7.47164 5.94409 -172140 -128050 37580 223821 28001 -1534.24 -7.41927 
2860 1 44.7184 3.07914 7.47071 5.94612 -172999 -131014 -27322 229127 -23314.5 -494.986 -7.41529 
2861 1 45.4087 1.84153 7.47095 5.9432 -174454 -129895 16428.1 231118 27328.1 -1506.55 -7.41792 
2862 1 44.6796 0.62349 7.47062 5.94382 -174378 -131167 -5655.36 233213 -25760.3 -516.891 -7.41656 
2984 1 46.9396 9.20354 7.47284 5.95781 -150876 -138287 -74038.2 192759 -14455.1 1727.49 -7.41273 
2985 1 47.631 7.9664 7.4734 5.94838 -155156 -132881 65736 202362 27480.6 2108.24 -7.42119 
2986 1 46.9026 6.74816 7.47176 5.9513 -159321 -136733 -56976.5 210705 -18320.8 1920.6 -7.41363 
2987 1 47.5935 5.51081 7.47214 5.9448 -163670 -132490 47385.7 218050 28067.5 1854.45 -7.41992 
2988 1 46.8646 4.29273 7.47101 5.9467 -166735 -135073 -37526.2 223475 -21818.9 2114.65 -7.41471 
2989 1 47.5551 3.05523 7.47121 5.94304 -170123 -132172 26959 228388 27792 1667.45 -7.41858 
2990 1 46.826 1.83722 7.47066 5.94414 -172044 -133018 -16369 230610 -24650 2305 -7.41593 
2991 1 47.5163 0.599628 7.47066 5.94308 -173777 -131436 5273.97 233092 26641.8 1536.6 -7.41722 
3113 1 49.7771 9.17906 7.47387 5.95013 -140037 -142559 73673.1 190641 26891 5878.23 -7.42174 
3114 1 49.0485 7.96101 7.47211 5.95272 -146324 -145962 -65572.7 198967 -16242.9 4101.14 -7.41317 
3115 1 49.7399 6.72388 7.47245 5.94572 -151935 -139874 56611.8 209100 27877.5 5434.68 -7.42053 
3116 1 49.0109 5.50596 7.47114 5.94772 -156917 -141854 -47264.2 214556 -19996.4 4522.31 -7.41416 
3117 1 49.7016 4.26858 7.4713 5.94316 -162048 -136995 37147.4 222428 27988.9 5043.14 -7.41922 
3118 1 48.9724 3.05071 7.47054 5.94473 -166070 -137492 -26866.9 224783 -23205.4 4935.72 -7.41531 
3119 1 49.6628 1.81316 7.47051 5.94273 -169943 -134141 15981.4 230175 27225.3 4703.36 -7.41787 
3120 1 48.9335 0.595248 7.47034 5.94355 -172949 -132964 -5210.75 229351 -25629.4 5329.05 -7.41659 
3242 1 51.1948 9.17305 7.47222 5.95462 -130395 -157784 -73333.9 184242 -13876.1 6049.24 -7.41275 
3243 1 51.8866 7.93615 7.47252 5.94689 -137292 -149885 65075.8 196998 27441.6 9214.45 -7.42109 
3244 1 51.1574 6.71848 7.47108 5.94922 -144028 -151564 -56370.9 202521 -17828.5 6721.3 -7.41365 
3245 1 51.8485 5.48127 7.47118 5.94382 -150920 -144812 46817 213196 27938.4 8634.4 -7.41984 
3246 1 51.119 4.26362 7.47025 5.94578 -156575 -144837 -36984.5 215639 -21392 7375.04 -7.41472 
3247 1 51.8096 3.02614 7.47016 5.94288 -162525 -139481 26445.6 224011 27548 8093.62 -7.41851 
3248 1 51.0801 1.80843 7.46979 5.94385 -167439 -137936 -15883.2 223295 -24256.9 8006.49 -7.41594 
3249 1 51.7702 0.570753 7.46952 5.94413 -171714 -134113 4816.93 229218 26269.1 7584.09 -7.41716 
3371 1 54.0337 9.14735 7.47226 5.94874 -120156 -162875 72544.9 181962 26767.8 13181.9 -7.42159 
3372 1 53.3042 7.93 7.47075 5.95124 -128554 -164064 -64639.9 187423 -15301.3 8683.81 -7.41318 
3373 1 53.9957 6.69298 7.47079 5.9451 -136571 -155355 55743.9 200799 27654.6 12441.4 -7.4204 
3374 1 53.266 5.47564 7.46972 5.94734 -144215 -155097 -46522.6 203320 -19175.9 9606.9 -7.41417 
3375 1 53.9567 4.23827 7.46956 5.94361 -151724 -147722 36461.1 214576 27630.6 11715.9 -7.41912 
3376 1 53.227 3.02085 7.46902 5.94478 -158520 -145760 -26270.7 213949 -22477.3 10498.5 -7.41531 
3377 1 53.9171 1.78318 7.46869 5.94433 -164849 -139962 15438.2 222845 26704.7 11009 -7.41778 
3378 1 53.1875 0.565593 7.46874 5.94431 -170815 -136250 -4750.18 218973 -24958.3 11344.1 -7.41658 
3500 1 55.4515 9.14021 7.47008 5.9539 -110740 -179215 -71813.6 169420 -12406.1 10358.4 -7.41277 
3501 1 56.1435 7.90341 7.47002 5.94712 -119899 -168490 63646.5 185347 27149 16437.6 -7.4209 
3502 1 55.4134 6.68646 7.46887 5.9495 -128787 -167933 -55232.8 187880 -16528.1 11590.5 -7.41365 
3503 1 56.1044 5.44921 7.46862 5.94502 -138016 -158516 45764.8 201857 27489.8 15558.4 -7.41967 
3504 1 55.3742 4.23217 7.46796 5.94638 -146306 -156334 -36142.2 201316 -20241 12775.4 -7.41471 
3505 1 56.0645 2.99455 7.46753 5.94514 -154698 -148510 25690.8 213091 26904.9 14671.8 -7.41837 
3506 1 55.3345 1.77731 7.46744 5.94527 -162339 -144454 -15288.6 209318 -23221.2 13905.2 -7.41592 
3507 1 56.0242 0.539378 7.46684 5.94757 -168940 -138158 4328.85 218761 25405.3 13774.1 -7.41705 
3629 1 58.2918 9.11226 7.46879 5.95003 -101705 -184108 70176.1 166987 26440.8 20554.2 -7.42129 
3630 1 57.5613 7.89576 7.46763 5.95234 -111418 -183417 -62798.7 169419 -13427.6 13258 -7.41319 
3631 1 58.2527 6.65868 7.46725 5.94726 -122083 -171845 54021.3 185970 27144.7 19573.5 -7.42015 
3632 1 57.522 5.44208 7.46652 5.9488 -131468 -169481 -45199.5 185461 -17502.6 14779.6 -7.41416 
3633 1 58.2125 4.20453 7.46596 5.94672 -141619 -159482 35270.5 200012 26891.1 18541.9 -7.41891 
3634 1 57.482 2.98773 7.46577 5.94699 -150720 -155301 -25380.3 196340 -20977.6 16230.5 -7.41528 
3635 1 58.1717 1.74978 7.46504 5.94852 -159472 -146994 14710.4 208657 25698 17469 -7.41761 
3636 1 57.4416 0.532684 7.46543 5.94749 -167945 -140739 -4256.03 201697 -23597.8 17588.7 -7.41653 
3758 1 59.7097 9.10326 7.46591 5.95598 -92756.7 -200941 -68843.6 148350 -9867.17 14511 -7.4128 
3759 1 60.4016 7.86639 7.46534 5.95048 -104382 -187322 60820.7 167106 26623.5 23659.6 -7.42053 
3760 1 59.6704 6.65027 7.46461 5.95218 -114704 -185040 -53072.3 166596 -14228 16422.9 -7.41366 
3761 1 60.3612 5.41284 7.46386 5.94922 -126273 -172830 43786 183664 26689.7 22542 -7.41937 
3762 1 59.6301 4.19653 7.46362 5.94963 -136446 -168613 -34682.6 180078 -18167 18239.5 -7.41468 
3763 1 60.3199 2.9586 7.46272 5.95029 -147071 -158174 24463.1 195101 25784.5 21333.9 -7.41813 
3764 1 59.5891 1.74199 7.46304 5.94937 -157025 -151891 -14461.3 188291 -21345.9 19946.7 -7.41586 
3765 1 60.2782 0.50363 7.46201 5.95372 -165911 -143328 3803.32 201025 23930.5 20039.7 -7.41685 
3887 1 62.5511 9.07208 7.46285 5.95485 -86483.1 -204275 65708.8 145659 25971.4 27645.2 -7.42076 
3888 1 61.8194 7.85648 7.46214 5.95537 -96415.5 -202244 -59322.6 144990 -10402.7 17584.9 -7.41323 
3889 1 62.5105 6.61918 7.46114 5.95281 -109755 -187840 50773.3 164212 26337.2 26529.5 -7.41971 
3890 1 61.7788 5.40341 7.4609 5.95282 -120100 -183916 -42765.8 160678 -14743.3 19817.8 -7.41414 
3891 1 62.4688 4.16552 7.45975 5.95308 -132687 -171216 33148.7 178156 25696.9 25252.4 -7.41855 
3892 1 61.7374 2.94947 7.46006 5.95223 -143260 -165104 -23906.2 171500 -18470.4 21917.1 -7.41521 
3893 1 62.4265 1.71106 7.45881 5.95573 -154271 -154424 13648.9 186875 24077.2 23833.1 -7.41733 
3894 1 61.6956 0.494606 7.45972 5.95353 -164871 -146069 -3697.24 177073 -21325.9 23847.8 -7.4164 
4016 1 63.9691 9.06045 7.45911 5.95925 -78345.6 -220593 -63475.2 121225 -6037.91 18124.8 -7.4129 
4018 1 63.9283 6.6081 7.45754 5.956 -103024 -200657 -49131.8 138610 -10688.2 20819.6 -7.41367 
4020 1 63.8864 4.15481 7.45639 5.95491 -127952 -180179 -32106.6 151639 -14918.2 23351.4 -7.41463 
4022 1 63.8439 1.70054 7.45576 5.956 -152002 -159360 -13204.8 159761 -18386.6 25691.9 -7.41572 
4017 1 64.6605 7.82332 7.45778 5.95766 -93044.2 -204018 55721.3 142149 25889.3 30280.1 -7.41991 
4019 1 64.6185 5.37029 7.45608 5.95709 -117214 -185709 40240.3 158096 25481.1 29027.4 -7.41885 
4021 1 64.5755 2.91639 7.45484 5.95886 -140802 -167332 22426.2 169287 24061.4 27556.8 -7.41771 
4023 1 64.5321 0.461575 7.45415 5.96301 -162765 -148749 3243.16 175262 21667.8 25883.5 -7.41654 
4145 1 66.8112 9.02507 7.45383 5.96389 -77445.6 -220160 58148.9 118101 25415.5 33500.4 -7.41992 
4146 1 66.0785 7.81038 7.45358 5.96039 -85973.1 -217813 -53269.2 114477 -6021.7 21087 -7.41331 
4147 1 66.7688 6.57267 7.45169 5.96243 -101856 -200655 45191.2 135453 25195.6 32378.7 -7.419 
4148 1 66.0362 5.35777 7.452 5.95855 -111752 -196067 -38515.2 129172 -10674.6 24074.9 -7.41412 
4149 1 66.7254 4.11935 7.45005 5.96327 -126371 -180998 29564.5 148618 23931.5 30953.3 -7.41796 
4150 1 65.9931 2.90412 7.45099 5.95892 -137425 -173881 -21454.8 139446 -14728.4 26847.6 -7.41508 
4151 1 66.6812 1.66509 7.44902 5.96643 -150036 -161244 12070.7 156996 21669.6 29250.4 -7.41687 
4152 1 65.9495 0.449398 7.45063 5.9615 -161828 -151437 -3038.75 144920 -17938.2 29353 -7.41616 
4274 1 68.2293 9.01011 7.44912 5.96609 -70430.2 -234445 -54723.4 89106.6 -813.371 20486.2 -7.41308 
4275 1 68.9199 7.77251 7.44673 5.96919 -88298.1 -215062 47515.2 111038 24909.7 34969.8 -7.41896 
4276 1 68.1867 6.55816 7.44696 5.96349 -96089.7 -211905 -42595 104905 -5779.63 23918.8 -7.41372 
4277 1 68.876 5.31977 7.44451 5.96907 -112688 -194628 34488.1 125574 23749.3 33686.9 -7.41805 
4278 1 68.143 4.10514 7.44542 5.96307 -122303 -188844 -27862.4 116800 -10352.7 27112.6 -7.41453 
4279 1 68.8311 2.86606 7.443 5.97118 -136877 -174184 19225.7 135820 21569.4 32051.7 -7.41707 
4280 1 68.0987 1.65103 7.44463 5.96485 -148079 -165598 -11309.2 124352 -14209 30027.4 -7.41547 
4281 1 68.7858 0.41133 7.4423 5.97555 -159821 -153663 2638.16 141437 18434.3 30089 -7.41607 
4403 1 71.0714 8.96977 7.44144 5.97729 -77572.6 -227549 46888.9 85798.6 24676.2 36482.2 -7.41873 
4404 1 70.3378 7.75588 7.44148 5.96982 -82438.8 -226416 -43922.6 79845 -339.483 22770.5 -7.41345 
4405 1 71.0272 6.51753 7.43844 5.97622 -100847 -207019 36737.9 101103 23573.3 35402.6 -7.41796 
4406 1 70.2938 5.30346 7.43921 5.96859 -108212 -203103 -31894.9 92790.2 -5332.8 26322.8 -7.41408 
4407 1 70.9819 4.06434 7.43624 5.97727 -124438 -186395 24131.2 112665 21424.5 33916.6 -7.41711 
4408 1 70.2487 2.84993 7.4378 5.96953 -134152 -179552 -17720.7 101917 -9781.09 29589.9 -7.41486 
4409 1 70.9357 1.61014 7.43499 5.98045 -147535 -165873 9810.27 120086 18322.1 32055.8 -7.41622 
4410 1 70.2033 0.39527 7.43734 5.97263 -159136 -155895 -2280.24 106892 -13475.5 32518.9 -7.41575 
4532 1 72.4895 8.95096 7.43592 5.97746 -71790.3 -238373 -42271.8 55046.9 5471.08 20633.9 -7.41335 
4533 1 73.179 7.71266 7.43224 5.98458 -92401.5 -216892 36079.3 76348.2 23437.7 35828.4 -7.4177 
4534 1 72.4451 6.49904 7.43269 5.97545 -96189 -215408 -33186.7 68561.7 175.525 24420.2 -7.41378 
4535 1 73.1332 5.2599 7.42911 5.9846 -114435 -196732 26386.9 88657.7 21282.9 34519 -7.41698 
4536 1 72.3995 4.04604 7.43042 5.97555 -121217 -192159 -21767.4 78695.1 -4775.79 27916.7 -7.41437 
4537 1 73.0865 2.80618 7.42709 5.98658 -136436 -176767 14737.1 97288.6 18179.9 32822.3 -7.41621 
4538 1 72.3533 1.59195 7.42928 5.97771 -146026 -168964 -8731.47 85180 -9102.16 31101.8 -7.41508 
4539 1 73.0392 0.351445 7.42629 5.99051 -157552 -156991 1921.24 102026 14231.1 30774.8 -7.41545 
4661 1 75.331 8.9053 7.42636 5.99383 -88155.1 -223224 32554 52317.2 23326.9 34873.2 -7.41728 
4662 1 74.5969 7.692 7.42631 5.98351 -87684.2 -224687 -31626.2 45237.2 5946.8 21510.9 -7.41364 
4663 1 75.2851 6.45285 7.42212 5.99286 -107883 -204155 25874 65007.3 21159.2 33692.9 -7.41669 
4664 1 74.551 5.23942 7.42297 5.98279 -110957 -202408 -23168.9 56003.2 599.583 25054 -7.41402 
4665 1 75.2379 3.99949 7.41909 5.99372 -127852 -185408 17107.2 74377.5 18040.1 32153.3 -7.41606 
4666 1 74.5041 2.78581 7.42091 5.98403 -134434 -180294 -12876.3 63480.2 -4270.37 28312.8 -7.41454 
4667 1 75.1899 1.54521 7.41747 5.99633 -147416 -166981 6907.14 80326.3 14127.6 30308.5 -7.41541 
4668 1 74.4566 0.331124 7.42025 5.98718 -157186 -158284 -1501.58 67567.2 -8510.1 31286.4 -7.41516 
4790 1 76.749 8.88259 7.42059 5.99249 -83303.4 -230113 -27377.1 23733 11717.9 17877.7 -7.41367 
4791 1 77.4372 7.64342 7.41582 6.00169 -105424 -207923 22778.1 42746.4 21026.5 31508.5 -7.41629 
4792 1 76.7029 6.43029 7.41602 5.99098 -104171 -209384 -21934.7 34913.5 6076.98 21259.1 -7.41384 
4793 1 77.3897 5.1903 7.41163 6.00149 -122754 -190806 16934.5 52646.2 17898.9 30051.5 -7.41578 
4794 1 76.6555 3.97702 7.41283 5.99135 -125394 -188744 -14527.9 43073.7 764.001 24366.6 -7.41416 
4795 1 77.3412 2.73634 7.40899 6.00286 -139876 -174247 9486.76 59302.6 14038.1 28371.4 -7.41525 
4796 1 76.6074 1.52279 7.41123 5.99346 -146404 -168592 -5785.68 48153.6 -3997.12 27264 -7.41459 
4797 1 77.2922 0.281533 7.40803 6.00576 -156338 -158136 1093.7 62839.1 9556.55 26528.8 -7.41476 
4919 1 79.5893 8.83198 7.4107 6.00914 -106903 -207520 17531.5 22393 20843.5 28235.8 -7.41582 
4920 1 78.855 7.61898 7.41011 5.99972 -101337 -212537 -18354.6 16184 11385.5 16958.1 -7.41382 
4921 1 79.5418 6.37892 7.40529 6.00943 -121489 -192638 14527 32895.3 17730.8 26770.4 -7.41542 
4922 1 78.8074 5.16591 7.40569 5.99925 -119896 -193961 -13809.1 24953.3 5713.85 19706.2 -7.41393 
4923 1 79.493 3.92515 7.40151 6.0097 -135697 -178317 9795.91 40189.5 13936 25167 -7.415 
4924 1 78.7588 2.71199 7.40299 6.00044 -138362 -175994 -7749.08 30801.5 536.864 22284.1 -7.41417 
4925 1 79.4435 1.47065 7.39956 6.0113 -149511 -164745 3905.66 44530.6 9651.95 23530.7 -7.41461 
4926 1 78.7097 0.257214 7.40211 6.00306 -156271 -158495 -808.278 33742.9 -4070.24 24805.6 -7.41451 
5048 1 81.0072 8.80594 7.40568 6.00808 -102260 -211946 -12931.1 -93.7549 16322.9 12620.9 -7.41395 
5049 1 81.6939 7.56581 7.40052 6.01576 -123644 -190862 10391.3 15492.4 17534.8 22700.9 -7.41502 