ITEM: TIMESTEP
0
ITEM: NUMBER OF ATOMS
11096
ITEM: BOX BOUNDS pp pp pp
0.0000000000000000e+00 9.1467455599999994e+01
0.0000000000000000e+00 1.5842627999999999e+02
0.0000000000000000e+00 1.8399999999999999e+01
ITEM: ATOMS id type x y z c_csym c_2[1] c_2[2] c_2[3] c_2[4] c_2[5] c_2[6] c_3 
145 1 0.131893 9.82311 7.5 6.03193 -134805 -144870 -143472 278.553 26841.7 -828.542 -7.41131 
146 1 0.824328 8.58571 7.5 6.03194 -147115 -131560 -151704 -529.248 18081.9 -3267.68 -7.41087 
147 1 0.0989194 7.36734 7.5 6.03193 -134278 -142823 -150465 214.944 18993.5 -689.305 -7.41095 
148 1 0.791355 6.12993 7.5 6.03194 -143428 -132839 -154588 -528.897 12875 -2768.04 -7.41074 
149 1 0.0659462 4.91156 7.5 6.03193 -134437 -140763 -155010 145.595 11904.8 -510.994 -7.41072 
150 1 0.758382 3.67415 7.5 6.03194 -140314 -134322 -156755 -530.166 7738.57 -2254.4 -7.41064 
151 1 0.0329731 2.45578 7.5 6.03193 -135277 -138755 -157464 73.2801 5623.24 -282.327 -7.4106 
152 1 0.725409 1.21837 7.5 6.03193 -137820 -135975 -157974 -516.439 2582.39 -1771.17 -7.41058 
275 1 2.96758 9.78504 7.5 6.03194 -149074 -131483 -148261 -1238.89 20923.4 -10003.6 -7.41103 
276 1 2.24217 8.56667 7.5 6.03194 -134637 -144049 -147236 2515.87 22429.2 -4685.37 -7.41111 
277 1 2.93461 7.32926 7.5 6.03194 -145170 -132650 -151677 -1444.75 15689.9 -9033.23 -7.41088 
278 1 2.2092 6.11089 7.5 6.03194 -134458 -141980 -152826 2282.41 14936.8 -4690.33 -7.41083 
279 1 2.90164 4.87348 7.5 6.03194 -141787 -134027 -154476 -1665.76 10463.4 -8032.77 -7.41075 
280 1 2.17623 3.65511 7.5 6.03194 -134958 -139932 -156147 2018.67 8256.38 -4685.81 -7.41067 
281 1 2.86866 2.4177 7.5 6.03194 -139007 -135601 -156433 -1891.98 5255.76 -7085.06 -7.41065 
282 1 2.14325 1.19933 7.5 6.03192 -136117 -137907 -157572 1707.67 2331.3 -4692.72 -7.4106 
404 1 4.38543 9.766 7.5 6.03194 -135205 -145771 -143333 4942.77 25901 -8612.16 -7.4113 
405 1 5.07786 8.5286 7.5 6.03194 -147034 -133016 -146446 -2107.93 18951.1 -15847.7 -7.41114 
406 1 4.35245 7.31022 7.5 6.03194 -134711 -143710 -149832 4580.68 18046.8 -8832.79 -7.41097 
407 1 5.04489 6.07282 7.5 6.03194 -143442 -134275 -150084 -2542.46 13672.8 -14415.9 -7.41097 
408 1 4.31948 4.85445 7.5 6.03194 -134879 -141634 -153894 4149.57 10921.5 -9042.02 -7.41077 
409 1 5.01192 3.61704 7.5 6.03194 -140406 -135747 -152985 -2997.09 8368.65 -13009.1 -7.41083 
410 1 4.28651 2.39867 7.5 6.03194 -135712 -139606 -155868 3670.51 4581.07 -9291.97 -7.41068 
411 1 4.97894 1.16126 7.5 6.03192 -137967 -137363 -154899 -3424.75 2981.36 -11729.3 -7.41073 
533 1 7.22111 9.72793 7.5 6.03194 -148946 -133927 -138585 -2501.18 22491.3 -23104.6 -7.41154 
534 1 6.49571 8.50956 7.5 6.03194 -135225 -145904 -146263 6997.15 21198.9 -12948.1 -7.41114 
535 1 7.18814 7.27215 7.5 6.03194 -145221 -135058 -143225 -3135.28 17290.1 -21381.4 -7.41132 
536 1 6.46273 6.05378 7.5 6.03194 -135086 -143825 -150937 6434.59 13665.5 -13428.8 -7.41091 
537 1 7.15517 4.81637 7.5 6.03194 -141988 -136411 -147258 -3814.77 11933.8 -19600.6 -7.41112 
538 1 6.42976 3.598 7.5 6.03194 -135589 -141761 -153339 5782.83 6862.27 -13931.8 -7.41079 
539 1 7.1222 2.36059 7.5 6.03194 -139324 -137975 -150420 -4512.72 6470.01 -17899.1 -7.41095 
540 1 6.39679 1.14222 7.5 6.03192 -136720 -139722 -153826 5041.84 761.622 -14523.1 -7.41077 
662 1 8.63896 9.70889 7.5 6.03194 -135946 -148463 -142356 9462.29 24252.9 -16891.5 -7.41132 
664 1 8.60599 7.25311 7.5 6.03194 -135547 -146427 -147498 8820.8 16433.2 -17763.6 -7.41106 
666 1 8.57301 4.79734 7.5 6.03194 -135752 -144360 -150204 8033.82 9204.46 -18593.9 -7.41093 
668 1 8.54004 2.34156 7.5 6.03194 -136569 -142333 -150802 7141.54 2653.33 -19470.8 -7.41091 
663 1 9.33139 8.47148 7.5 6.03194 -147057 -136351 -133625 -3429.93 21121.7 -28721.3 -7.41181 
665 1 9.29842 6.01571 7.5 6.03194 -143698 -137575 -138926 -4320.54 15847.9 -26732.1 -7.41154 
667 1 9.26545 3.55993 7.5 6.03194 -140849 -139025 -143499 -5256.81 10363.3 -24716.9 -7.41131 
669 1 9.23248 1.10415 7.5 6.03192 -138547 -140630 -147049 -6170.83 4668.62 -22810.4 -7.41112 
791 1 11.4746 9.67082 7.5 6.03194 -148868 -138090 -121147 -3432.97 24884.4 -36059.8 -7.41246 
792 1 10.7492 8.45245 7.5 6.03194 -136198 -149303 -143811 11225 19071.5 -21811.4 -7.41122 
793 1 11.4417 7.21504 7.5 6.03194 -145474 -139189 -127770 -4504.38 19899.1 -34086.7 -7.41212 
794 1 10.7163 5.99667 7.5 6.03194 -136158 -147295 -146684 10359.5 11537.5 -23093.9 -7.41109 
795 1 11.4087 4.75926 7.5 6.03194 -142509 -140512 -133854 -5662.41 14535 -31939.2 -7.4118 
796 1 10.6833 3.54089 7.5 6.03194 -136687 -145278 -147276 9328.85 4578.67 -24338.4 -7.41107 
797 1 11.3757 2.30348 7.5 6.03194 -140048 -142052 -139080 -6856.2 8884.41 -29771.2 -7.41153 
798 1 10.6503 1.08511 7.5 6.03192 -137773 -143273 -145929 8151.68 -1779.18 -25625.2 -7.41116 
920 1 12.8925 9.65178 7.5 6.03194 -136958 -152251 -140142 13530 21360.9 -25239.3 -7.41139 
921 1 13.5849 8.41437 7.5 6.03194 -147236 -141158 -113735 -4380.92 23800.9 -41202.8 -7.41286 
922 1 12.8595 7.196 7.5 6.03194 -136740 -150389 -143025 12662.6 13704.4 -27116.6 -7.41125 
923 1 13.552 5.95859 7.5 6.03194 -144242 -142361 -121344 -5725.69 18761.8 -39150.3 -7.41246 
924 1 12.8265 4.74022 7.5 6.03194 -137041 -148454 -143484 11556.1 6457.09 -28847.5 -7.41124 
925 1 13.519 3.50282 7.5 6.03194 -141672 -143779 -128306 -7148.56 13301.8 -36910.2 -7.41209 
926 1 12.7936 2.28445 7.5 6.03194 -137864 -146526 -141831 10268.4 -253.905 -30516.3 -7.41135 
927 1 13.486 1.04704 7.5 6.03192 -139562 -145338 -134270 -8553.33 7481.24 -34617 -7.41176 
1049 1 15.7282 9.61371 7.5 6.03194 -148899 -143350 -96965.3 -3992.57 27243.7 -47554.7 -7.41375 
1050 1 15.0028 8.39534 7.5 6.03194 -137409 -153408 -139505 14813.3 15499.9 -30291.3 -7.4114 
1051 1 15.6952 7.15793 7.5 6.03194 -145972 -144448 -106007 -5469.97 22763.2 -45829.8 -7.41327 
1052 1 14.9698 5.93956 7.5 6.03194 -137555 -151655 -139695 13713 8136.53 -32628.2 -7.41141 
1053 1 15.6622 4.70215 7.5 6.03194 -143379 -145747 -114674 -7079.84 17692.2 -43739.1 -7.4128 
1054 1 14.9368 3.48378 7.5 6.03194 -138166 -149841 -137623 12356.9 1189.12 -34784.1 -7.41154 
1055 1 15.6293 2.24637 7.5 6.03194 -141181 -147231 -122584 -8742.98 12157.5 -41416.4 -7.41237 
1056 1 14.9039 1.028 7.5 6.03192 -139232 -147991 -133626 10782.4 -5259.72 -36819.3 -7.41177 
1178 1 17.146 9.59467 7.5 6.03194 -138060 -156082 -136424 16662 16722.1 -32282.7 -7.41154 
1179 1 17.8385 8.35726 7.5 6.03194 -147618 -146615 -88091.1 -4946.26 26252.8 -51445.5 -7.41422 
1180 1 17.1131 7.13889 7.5 6.03194 -138133 -154623 -136205 15661.9 9435.34 -35307 -7.41157 
1181 1 17.8055 5.90148 7.5 6.03194 -145094 -147816 -98326.2 -6682.08 21787.2 -49717.1 -7.41367 
1182 1 17.0801 4.68311 7.5 6.03194 -138615 -153025 -133604 14325.4 2408.99 -38041 -7.41172 
1183 1 17.7725 3.4457 7.5 6.03194 -142871 -149184 -108104 -8524.89 16724.7 -47576.1 -7.41313 
1184 1 17.0471 2.22733 7.5 6.03194 -139504 -151365 -128932 12723.6 -4195.56 -40532.4 -7.41199 
1185 1 17.7395 0.989926 7.5 6.03192 -140978 -150634 -117013 -10348.7 11166.3 -45131.7 -7.41264 
1307 1 19.9817 9.5566 7.5 6.03194 -149092 -148686 -68044 -4229.92 28989 -55547.3 -7.41529 
1308 1 19.2563 8.33823 7.5 6.03194 -138669 -157088 -133319 17250.5 10192.5 -36596.8 -7.4117 
1309 1 19.9487 7.10082 7.5 6.03194 -146737 -149813 -79606.8 -6015.44 25328.7 -54346.4 -7.41466 
1310 1 19.2233 5.88245 7.5 6.03194 -139106 -155818 -130090 16031.8 3254.13 -39950.4 -7.41188 
1311 1 19.9158 4.64504 7.5 6.03194 -144581 -151083 -91069.7 -7969.44 20931 -52578.1 -7.41404 
1312 1 19.1904 3.42667 7.5 6.03194 -139890 -154407 -124663 14469 -3369.09 -42959.4 -7.41219 
1313 1 19.8828 2.18926 7.5 6.03194 -142673 -152460 -101993 -9985.67 15934.6 -50334.9 -7.41344 
1314 1 19.1574 0.970889 7.5 6.03192 -140994 -152872 -117391 12614.4 -9552.01 -45643.9 -7.4126 
1436 1 21.3996 9.53756 7.5 6.03194 -139062 -158807 -131311 18337.7 10311.4 -36366 -7.41179 
1437 1 22.092 8.30015 7.5 6.03194 -148223 -151569 -59043.6 -5161.71 28112.7 -57255.5 -7.41577 
1438 1 21.3666 7.08178 7.5 6.03194 -139531 -157966 -127386 17328.1 3608.14 -40306.5 -7.41201 
1439 1 22.059 5.84437 7.5 6.03194 -146230 -152766 -71911.9 -7145.4 24548.5 -55996.6 -7.41506 
1440 1 21.3336 4.626 7.5 6.03194 -140299 -156905 -121149 15905.2 -2899.02 -43838.1 -7.41236 
1441 1 22.026 3.38859 7.5 6.03194 -144378 -154046 -84622.8 -9250.69 20277 -54124.1 -7.41437 
1442 1 21.3006 2.17022 7.5 6.03194 -141339 -155687 -112940 14143 -9029.25 -46959.7 -7.41281 
1443 1 21.9931 0.932815 7.5 6.03192 -142688 -155306 -96709.8 -11327.5 15409.8 -51712.2 -7.4137 
1565 1 24.2352 9.49948 7.5 6.03194 -149476 -152930 -37299.6 -4212.3 30016.6 -58249.3 -7.41694 
1566 1 23.5098 8.28111 7.5 6.03194 -139791 -159265 -125740 18086.1 3424.92 -39081.9 -7.41208 
1567 1 24.2023 7.04371 7.5 6.03194 -147735 -154084 -51217.3 -6140.52 27409.3 -57563.6 -7.41618 
1568 1 23.4769 5.82534 7.5 6.03194 -140619 -158644 -118684 16893.4 -2857.34 -43068.2 -7.41247 
1569 1 24.1693 4.58793 7.5 6.03194 -146033 -155290 -65398.9 -8249.66 23995.9 -56174.2 -7.4154 
1570 1 23.4439 3.36956 7.5 6.03194 -141670 -157791 -109529 15297.1 -8837.3 -46601.4 -7.41298 
1571 1 24.1363 2.13215 7.5 6.03194 -144400 -156497 -79359.8 -10416.3 19902.6 -54132.6 -7.41464 
1572 1 23.4109 0.913778 7.5 6.03192 -142894 -156708 -98671 13351.6 -14369.3 -49660.8 -7.41358 
1694 1 25.6531 9.48045 7.5 6.03194 -139812 -159601 -125307 18218.8 2743.59 -36432 -7.4121 
1695 1 26.3455 8.24304 7.5 6.03194 -149023 -154923 -29674.6 -5048.73 29424.5 -57195.9 -7.41735 
1696 1 25.6201 7.02467 7.5 6.03194 -140753 -159475 -117481 17322.4 -3243.95 -40734.4 -7.41253 
1697 1 26.3126 5.78726 7.5 6.03194 -147558 -156084 -44942.9 -7075.72 26957 -56332.5 -7.41651 
1698 1 25.5871 4.56889 7.5 6.03194 -141894 -159056 -107426 15978.9 -9006.83 -44586.2 -7.41308 
1699 1 26.2796 3.33148 7.5 6.03194 -146054 -157219 -60427.3 -9217.15 23733.9 -54753.2 -7.41566 
1700 1 25.5542 2.11311 7.5 6.03194 -143174 -158382 -95530.3 14255.6 -14359.8 -47948.2 -7.41373 
1701 1 26.2466 0.875704 7.5 6.03192 -144515 -158218 -75612.4 -11312.9 19850.4 -52504.2 -7.41483 
1823 1 28.4888 9.44237 7.5 6.03194 -150030 -155227 -8011.24 -3959.4 30583.4 -54982.4 -7.41853 
1824 1 27.7634 8.224 7.5 6.03194 -140633 -159350 -117644 17127.8 -3981.74 -37086.7 -7.41252 
1825 1 28.4558 6.9866 7.5 6.03194 -148877 -156364 -23945.2 -5825.09 29100 -54622.7 -7.41765 
1826 1 27.7304 5.76822 7.5 6.03194 -141914 -159404 -106801 16096.6 -9497.88 -41105.4 -7.41311 
1827 1 28.4228 4.53082 7.5 6.03194 -147590 -157455 -40545.1 -7856.74 26799.7 -53534 -7.41674 
1828 1 27.6974 3.31245 7.5 6.03194 -143311 -159149 -93963.5 14648.1 -14647.5 -44660.9 -7.41381 
1829 1 28.3899 2.07504 7.5 6.03194 -146174 -158434 -57291.7 -9928.16 23779.1 -51741.6 -7.41582 
1830 1 27.6645 0.856667 7.5 6.03192 -144731 -158568 -79593.2 12827.6 -19283 -47707.2 -7.4146 
1952 1 29.9066 9.42334 7.5 6.03194 -140232 -158329 -119144 16303.7 -4932.24 -32487.3 -7.41246 
1953 1 30.5991 8.18593 7.5 6.03194 -149930 -156131 -3104.19 -4587.19 30432.4 -51213.5 -7.41879 
1954 1 29.8737 6.96756 7.5 6.03194 -141668 -158854 -107694 15607.6 -10204.1 -36485.5 -7.41307 
1955 1 30.5661 5.73015 7.5 6.03194 -148934 -157198 -20384 -6433.2 29064.2 -50588.4 -7.41784 
1956 1 29.8407 4.51178 7.5 6.03194 -143232 -159038 -94081.3 14485.2 -15159.8 -40079.7 -7.41381 
1957 1 30.5331 3.27437 7.5 6.03194 -147710 -158140 -38265.1 -8369.91 26928.3 -49270.2 -7.41686 
1958 1 29.8077 2.056 7.5 6.03194 -144813 -158896 -78758.8 12988.1 -19617.9 -43215.1 -7.41464 
1959 1 30.5001 0.818593 7.5 6.03192 -146254 -158840 -56188.9 -10242.1 24088.9 -47290.7 -7.41588 
2081 1 32.7423 9.38526 7.5 6.03194 -150676 -155446 16927.5 -3434.97 31011.5 -46365.4 -7.4199 
2082 1 32.0169 8.16689 7.5 6.03194 -141138 -157529 -110017 14526.9 -10973.8 -31123.7 -7.41296 
2083 1 32.7093 6.92948 7.5 6.03194 -150024 -156502 -598.997 -5035.63 30548.8 -46139.2 -7.41893 
2084 1 31.9839 5.71111 7.5 6.03194 -142878 -158138 -95861.3 13744.3 -15769 -34580.8 -7.41372 
2085 1 32.6764 4.47371 7.5 6.03194 -149068 -157428 -19168.7 -6766.72 29282.7 -45267 -7.41791 
2086 1 31.951 3.25533 7.5 6.03194 -144651 -158397 -79795.2 12583.4 -20093.8 -37654 -7.41459 
2087 1 32.6434 2.01793 7.5 6.03194 -147796 -158153 -38234.7 -8514.7 27274.8 -43764.9 -7.41686 
2088 1 31.918 0.799556 7.5 6.03192 -146315 -158265 -62351.4 11072.3 -23807.5 -40293.9 -7.41554 
2210 1 34.1602 9.36623 7.5 6.03194 -140349 -155632 -113565 12921.9 -11641 -25418.8 -7.41279 
2211 1 34.8526 8.12882 7.5 6.03194 -150818 -155472 18214 -3738.06 31314.8 -40462.7 -7.41997 
2212 1 34.1272 6.91045 7.5 6.03194 -142239 -156619 -99153.2 12455.8 -16317.2 -28569.3 -7.41356 
2213 1 34.8196 5.67304 7.5 6.03194 -150185 -156397 -606.981 -5207.57 30875.5 -39979.9 -7.41893 
2214 1 34.0942 4.45467 7.5 6.03194 -144211 -157254 -82615.2 11635.9 -20568.1 -31420.5 -7.41445 
2215 1 34.7866 3.21726 7.5 6.03194 -149155 -157125 -20363.9 -6736.2 29666.8 -38926.3 -7.41785 
2216 1 34.0612 1.99889 7.5 6.03194 -146108 -157530 -64467.5 10495.1 -24216.7 -33924.4 -7.41544 
2217 1 34.7537 0.761482 7.5 6.03192 -147719 -157538 -40460.8 -8190.42 27719.2 -37330 -7.41675 
2340 1 36.2704 8.10978 7.5 6.03194 -141346 -154711 -103702 10696.4 -16646.2 -22416.5 -7.41334 
2342 1 36.2375 5.654 7.5 6.03194 -143487 -155676 -87011.5 10187.2 -20881.4 -24900.7 -7.41423 
2344 1 36.2045 3.19822 7.5 6.03194 -145603 -156285 -68458.7 9384.71 -24543.8 -27125.3 -7.41523 
2346 1 36.1715 0.742445 7.5 6.03192 -147514 -156478 -48641.5 8297.49 -27501 -29055 -7.41631 
2339 1 36.9958 9.32815 7.5 6.03194 -151297 -154248 35547 -2594.32 31445.1 -33838.4 -7.42093 
2341 1 36.9629 6.87237 7.5 6.03194 -151017 -155179 16879.6 -3766.39 31771.6 -33675.5 -7.4199 
2343 1 36.9299 4.41659 7.5 6.03194 -150290 -155925 -3130.5 -5023.94 31308.1 -33020.1 -7.4188 
2345 1 36.8969 1.96082 7.5 6.03194 -149090 -156412 -23914.1 -6282.13 30084.7 -31887.9 -7.41766 
2468 1 38.4137 9.30911 7.5 6.03194 -140269 -152664 -109187 8573.93 -16622.5 -16419.1 -7.41306 
2469 1 39.1061 8.07171 7.5 6.03194 -151542 -153924 32833 -2498.9 32053.6 -26600.8 -7.42078 
2470 1 38.3807 6.85334 7.5 6.03194 -142514 -153898 -92687 8317.44 -20884.3 -18421.5 -7.41394 
2471 1 39.0732 5.61593 7.5 6.03194 -151150 -154698 12973.3 -3452.11 32268.5 -26283.4 -7.41969 
2472 1 38.3477 4.39756 7.5 6.03194 -144818 -154794 -74069.4 7817.51 -24630.3 -20243.4 -7.41494 
2473 1 39.0402 3.16015 7.5 6.03194 -150233 -155232 -8062.43 -4436.17 31710 -25568.1 -7.41853 
2474 1 38.3148 1.94178 7.5 6.03194 -146984 -155327 -53902 7091.67 -27687 -21857 -7.41603 
2475 1 39.0072 0.704371 7.5 6.03192 -148779 -155413 -29648.8 -5352.55 30380.4 -24481.8 -7.41735 
2597 1 41.2494 9.27104 7.5 6.03194 -151766 -152772 46882.3 -1444.33 31813.6 -18964.6 -7.42156 
2598 1 40.524 8.05267 7.5 6.03194 -141364 -152153 -99290.3 6129.92 -20457.2 -12224.9 -7.41361 
2599 1 41.2164 6.81526 7.5 6.03194 -151712 -153581 27526.8 -2078.14 32633.5 -18921.3 -7.42049 
2600 1 40.491 5.59689 7.5 6.03194 -143788 -153284 -80968.8 5873.24 -24335 -13550.3 -7.41459 
2601 1 41.1834 4.35948 7.5 6.03194 -151116 -154173 6639.16 -2755.74 32670 -18566.8 -7.41935 
2602 1 40.458 3.14111 7.5 6.03194 -146159 -154071 -60804.8 5441.48 -27567.6 -14741.7 -7.41567 
2603 1 41.1505 1.9037 7.5 6.03194 -149944 -154480 -15195.8 -3429.23 31929.1 -17917.3 -7.41815 
2604 1 40.4251 0.685334 7.5 6.03192 -148262 -154442 -39442.9 4824.73 -30028.8 -15786.7 -7.41683 
2726 1 42.6672 9.252 7.5 6.03194 -140130 -150636 -106451 3734.23 -19519.1 -6470 -7.41324 
2727 1 43.3597 8.0146 7.5 6.03194 -151977 -152684 40181.4 -944.412 32500.8 -11103.5 -7.42119 
2728 1 42.6343 6.79622 7.5 6.03194 -142587 -151954 -88784.1 3648.15 -23548.1 -7234.37 -7.41418 
2729 1 43.3267 5.55882 7.5 6.03194 -151708 -153344 19793.7 -1300.48 33056.2 -11046.4 -7.42007 
2730 1 42.6013 4.34045 7.5 6.03194 -145095 -152950 -68995.6 3451.23 -27008.3 -7924.16 -7.41524 
2731 1 43.2937 3.10304 7.5 6.03194 -150843 -153747 -1894.84 -1668.82 32833.1 -10777 -7.41888 
2732 1 42.5683 1.88467 7.5 6.03194 -147434 -153593 -47684.4 3149.64 -29728.9 -8536.19 -7.41639 
2733 1 43.2607 0.647259 7.5 6.03192 -149369 -153782 -24241.6 -1993.3 31815 -10317.8 -7.41766 
2855 1 45.5029 9.21393 7.5 6.03194 -151978 -152073 50655.2 -76.3597 31979.8 -2979.78 -7.42177 
2856 1 44.7775 7.99556 7.5 6.03194 -141304 -150953 -97129.2 1241.13 -22195.1 -1414.88 -7.41374 
2857 1 45.4699 6.75815 7.5 6.03194 -152008 -152810 31061.6 -115.769 32975.3 -3146.6 -7.42069 
2858 1 44.7445 5.53978 7.5 6.03194 -143859 -152121 -78087.7 1209.77 -25905.4 -1546.74 -7.41475 
2859 1 45.437 4.30237 7.5 6.03194 -151461 -153317 9869.13 -162.115 33191.2 -3189.58 -7.41953 
2860 1 44.7116 3.084 7.5 6.03194 -146351 -152952 -57208.6 1138.09 -28939.4 -1655.78 -7.41588 
2861 1 45.404 1.84659 7.5 6.03194 -150299 -153530 -12331 -212.804 32619.3 -3121.77 -7.41831 
2862 1 44.6786 0.628222 7.5 6.03192 -148547 -153372 -35159.1 1000.4 -31176.6 -1754.86 -7.41707 
2984 1 46.9208 9.19489 7.5 6.03194 -140037 -150368 -105622 -1256.4 -20231.5 3828.84 -7.41328 
2985 1 47.6132 7.95748 7.5 6.03194 -152046 -152579 40158.5 770.303 32549.2 4993.14 -7.42119 
2986 1 46.8878 6.73911 7.5 6.03194 -142539 -151676 -87683.5 -1193.03 -24186.5 4297.13 -7.41424 
2987 1 47.5802 5.50171 7.5 6.03194 -151790 -153201 19756.3 1041.98 33120.3 4720.49 -7.42007 
2988 1 46.8548 4.28333 7.5 6.03194 -145093 -152663 -67620.7 -1099.93 -27560.4 4743.53 -7.41532 
2989 1 47.5472 3.04593 7.5 6.03194 -150935 -153561 -1950.16 1313.71 32912.6 4472.21 -7.41888 
2990 1 46.8218 1.82756 7.5 6.03194 -147474 -153298 -46041.6 -979.757 -30188.1 5147.14 -7.41648 
2991 1 47.5143 0.590148 7.5 6.03192 -149465 -153553 -24317.3 1595.94 31902.4 4233.81 -7.41766 
3113 1 49.7564 9.15682 7.5 6.03194 -151883 -152610 46853.9 1348.65 31914.5 13208.1 -7.42156 
3114 1 49.031 7.93845 7.5 6.03194 -141225 -151648 -97385.9 -3672.65 -21804.3 9532.38 -7.41372 
3115 1 49.7235 6.70104 7.5 6.03194 -151859 -153351 27475.8 1913.48 32755.5 12806.1 -7.42049 
3116 1 48.9981 5.48267 7.5 6.03194 -143742 -152765 -78513.9 -3480.74 -25518.9 10576.9 -7.41473 
3117 1 49.6905 4.24526 7.5 6.03194 -151289 -153865 6557.65 2505.53 32822.1 12335 -7.41934 
3118 1 48.9651 3.02689 7.5 6.03194 -146201 -153539 -57803.4 -3192 -28569 11533.6 -7.41584 
3119 1 49.6575 1.78948 7.5 6.03194 -150133 -154088 -15314.2 3082.31 32103.5 11787.1 -7.41815 
3120 1 48.9321 0.571111 7.5 6.03192 -148375 -153897 -35917.2 -2848.89 -30839.1 12365.9 -7.41703 
3242 1 51.1743 9.13778 7.5 6.03194 -140003 -152013 -106800 -6151.82 -18728.8 14077.1 -7.4132 
3243 1 51.8667 7.90037 7.5 6.03194 -151730 -153670 32791.6 2443.94 32244.9 20876.1 -7.42078 
3244 1 51.1413 6.682 7.5 6.03194 -142384 -153236 -89475.3 -5922.78 -22764.3 15757.8 -7.41413 
3245 1 51.8338 5.44459 7.5 6.03194 -151382 -154340 12897.1 3330.61 32493.8 20293.5 -7.41968 
3246 1 51.1083 4.22622 7.5 6.03194 -144822 -154121 -70028 -5527.27 -26246.2 17309.4 -7.41517 
3247 1 51.8008 2.98882 7.5 6.03194 -150499 -154758 -8184.69 4230.34 31970.9 19540 -7.41853 
3248 1 51.0754 1.77045 7.5 6.03194 -147107 -154643 -49050.9 -4979.63 -29016.9 18689.1 -7.41631 
3249 1 51.7678 0.533037 7.5 6.03192 -149064 -154815 -29826.1 5110.04 30658.4 18609.2 -7.41735 
3371 1 54.01 9.09971 7.5 6.03194 -151493 -154027 35532.6 2650.15 31738.6 28689 -7.42093 
3372 1 53.2846 7.88134 7.5 6.03194 -141098 -154010 -100086 -8346.67 -19263.8 20181.2 -7.41355 
3373 1 53.977 6.64393 7.5 6.03194 -151278 -154843 16835.3 3782.59 32083.5 28116.8 -7.4199 
3374 1 53.2516 5.42556 7.5 6.03194 -143417 -154979 -82284 -7903.66 -23167.1 22362.4 -7.4145 
3375 1 53.944 4.18815 7.5 6.03194 -150608 -155453 -3219.96 4978.27 31658.4 27277.1 -7.41879 
3376 1 53.2186 2.96978 7.5 6.03194 -145700 -155588 -62630.5 -7239.21 -26457.2 24328.1 -7.41556 
3377 1 53.9111 1.73237 7.5 6.03194 -149450 -155790 -24063.3 6154.62 30464 26165 -7.41765 
3378 1 53.1857 0.514 7.5 6.03192 -147744 -155776 -41757.6 -6413.73 -29021.7 26022 -7.41669 
3500 1 55.4278 9.08067 7.5 6.03194 -139955 -154994 -109921 -10673.4 -15003.4 23725.6 -7.413 
3501 1 56.1203 7.84326 7.5 6.03194 -151071 -155219 18216.9 3883.97 31741.3 35521.8 -7.41997 
3502 1 55.3949 6.62489 7.5 6.03194 -142062 -156012 -94126.3 -10236.8 -19300.4 26557.7 -7.41385 
3503 1 56.0873 5.38748 7.5 6.03194 -150521 -156005 -637.555 5322.77 31324.5 34719.7 -7.41893 
3504 1 55.3619 4.16911 7.5 6.03194 -144246 -156673 -76201.1 -9514.29 -23109.2 29135 -7.41481 
3505 1 56.0543 2.9317 7.5 6.03194 -149560 -156572 -20447.2 6794.7 30147.8 33551.3 -7.41784 
3506 1 55.3289 1.71333 7.5 6.03194 -146325 -156965 -56701.2 -8535 -26277.9 31396.7 -7.41587 
3507 1 56.0213 0.475926 7.5 6.03192 -148172 -156805 -40614.9 8230.39 28212.2 32015.8 -7.41674 
3629 1 58.2635 9.0426 7.5 6.03194 -150877 -155319 16977.4 3685.76 31591.6 42197.2 -7.4199 
3630 1 57.5381 7.82423 7.5 6.03194 -140827 -157111 -105100 -12439.5 -14641.3 29752 -7.41324 
3631 1 58.2305 6.58682 7.5 6.03194 -150334 -156248 -561.174 5293.73 31113.2 41544.6 -7.41893 
3632 1 57.5051 5.36845 7.5 6.03194 -142818 -157783 -89287.1 -11714.5 -18948.7 32944.8 -7.41409 
3633 1 58.1976 4.13104 7.5 6.03194 -149478 -157018 -19164.4 7003.35 29865.8 40441.1 -7.41791 
3634 1 57.4722 2.91267 7.5 6.03194 -144819 -158092 -71582.2 -10670.3 -22728.1 35786.7 -7.41505 
3635 1 58.1646 1.67526 7.5 6.03194 -148286 -157563 -38287.2 8701.98 27874.7 38883.1 -7.41686 
3636 1 57.4392 0.456889 7.5 6.03192 -146667 -157992 -52564.6 -9387.32 -25864.5 38208.6 -7.41608 
3758 1 59.6814 9.02356 7.5 6.03194 -139768 -158174 -114751 -14421.4 -9219.72 31821.7 -7.41271 
3759 1 60.3738 7.78615 7.5 6.03194 -150165 -156049 -3007.47 4952.13 31132.3 47421.3 -7.4188 
3760 1 59.6484 6.56778 7.5 6.03194 -141486 -158806 -101403 -13745.1 -13985.9 35600.6 -7.41342 
3761 1 60.3408 5.33037 7.5 6.03194 -149299 -156981 -20291.9 6819.28 29750.1 46481.9 -7.41785 
3762 1 59.6154 4.112 7.5 6.03194 -143319 -159084 -85889.8 -12695.3 -18359.8 39004.2 -7.41426 
3763 1 60.3078 2.87459 7.5 6.03194 -148191 -157759 -38202.9 8745.12 27623.4 45017 -7.41686 
3764 1 59.5824 1.65622 7.5 6.03194 -145130 -159012 -68713.9 -11319.2 -22189.2 41963.6 -7.4152 
3765 1 60.2749 0.418815 7.5 6.03192 -146830 -158265 -56183.6 10635.7 24781.9 43030.3 -7.41588 
3887 1 62.517 8.98548 7.5 6.03194 -150141 -155325 -7882.02 4382.65 31436.8 52057.5 -7.41853 
3888 1 61.7916 7.76711 7.5 6.03194 -140307 -159652 -112071 -15509.7 -8275.39 36989.9 -7.41283 
3889 1 62.4841 6.52971 7.5 6.03194 -149143 -156361 -23786.8 6314.25 29887.4 51342.8 -7.41766 
3890 1 61.7587 5.31134 7.5 6.03194 -141890 -159846 -99106.5 -14509.9 -13203.9 40895.4 -7.41354 
3891 1 62.4511 4.07393 7.5 6.03194 -148007 -157316 -40380.3 8380.78 27573.3 50055 -7.41675 
3892 1 61.7257 2.85556 7.5 6.03194 -143560 -159707 -84171.5 -13133.6 -17707.9 44349.6 -7.41435 
3893 1 62.4181 1.61815 7.5 6.03194 -146726 -158127 -57149.1 10453.8 24551 48195 -7.41583 
3894 1 61.6927 0.399778 7.5 6.03192 -145196 -159210 -67779.6 -11479.7 -21664.8 47284.6 -7.41524 
4016 1 63.9349 8.96645 7.5 6.03194 -139330 -160256 -120852 -16916 -1922.5 37078.6 -7.41235 
4018 1 63.9019 6.51067 7.5 6.03194 -140596 -160315 -110736 -16015.5 -7342.94 41380 -7.4129 
4020 1 63.8689 4.05489 7.5 6.03194 -142044 -160056 -98389.7 -14699.9 -12475.6 45239.4 -7.41357 
4022 1 63.836 1.59911 7.5 6.03194 -143584 -159510 -84253.5 -13032.5 -17163.4 48598.7 -7.41435 
4017 1 64.6273 7.72904 7.5 6.03194 -149137 -155122 -29488.2 5583.39 30305.9 54764.6 -7.41735 
4019 1 64.5944 5.27326 7.5 6.03194 -147853 -156190 -44710.5 7692.39 27786.7 53692.6 -7.41652 
4021 1 64.5614 2.81748 7.5 6.03194 -146522 -157197 -60173.9 9883.55 24551.8 52027.2 -7.41567 
4023 1 64.5284 0.361704 7.5 6.03192 -145135 -158032 -75368 12053.9 20658.2 49779.9 -7.41483 
4145 1 66.7706 8.92837 7.5 6.03194 -149396 -153297 -37132.2 4730.38 30974.3 56597.8 -7.41695 
4146 1 66.0452 7.71 7.5 6.03194 -139487 -160461 -120336 -17123.3 -913.034 40482.3 -7.41238 
4147 1 66.7376 6.47259 7.5 6.03194 -147852 -154405 -50967.2 6784.9 28265.1 55731.2 -7.41619 
4148 1 66.0122 5.25422 7.5 6.03194 -140645 -160038 -110859 -15921.2 -6603.81 44611 -7.41289 
4149 1 66.7046 4.01682 7.5 6.03194 -146356 -155531 -65083.2 8992.25 24819.9 54278.4 -7.41541 
4150 1 65.9792 2.79845 7.5 6.03194 -141994 -159351 -99306.1 -14334.7 -11963.4 48278.2 -7.41353 
4151 1 66.6717 1.56104 7.5 6.03194 -144915 -156621 -79003.9 11224.2 20720.7 52254.7 -7.41465 
4152 1 65.9463 0.342667 7.5 6.03192 -143452 -158396 -86123.8 -12475 -16863.1 51435.3 -7.41425 
4274 1 68.1884 8.90934 7.5 6.03194 -138603 -160290 -127557 -17762.6 5903.91 38341.3 -7.41198 
4275 1 68.8809 7.67193 7.5 6.03194 -148117 -152054 -58831 5767.99 28955.8 56106.7 -7.41577 
4276 1 68.1555 6.45356 7.5 6.03194 -139418 -159668 -121146 -16716.7 -256.702 42568.8 -7.41234 
4277 1 68.8479 5.21615 7.5 6.03194 -146349 -153221 -71594.5 7893.82 25330.9 54837.8 -7.41508 
4278 1 68.1225 3.99778 7.5 6.03194 -140508 -158801 -112425 -15267 -6204.87 46385 -7.41282 
4279 1 68.8149 2.76037 7.5 6.03194 -144726 -154436 -84216.6 10112.4 21052.3 53037.1 -7.41438 
4280 1 68.0895 1.542 7.5 6.03194 -141822 -157743 -101776 -13486.7 -11782.1 49764.2 -7.41341 
4281 1 68.7819 0.304593 7.5 6.03192 -143246 -155598 -96237.1 12330.3 16186.6 50731 -7.41372 
4403 1 71.0241 8.87126 7.5 6.03194 -148732 -149274 -67918.8 4738.91 29771.6 54890.4 -7.41529 
4404 1 70.2987 7.65289 7.5 6.03194 -138406 -158994 -128932 -17029.3 6364.73 39339.3 -7.41192 
4405 1 70.9911 6.41548 7.5 6.03194 -146608 -150416 -79348.3 6702.1 26015.2 53744.9 -7.41467 
4406 1 70.2657 5.19711 7.5 6.03194 -139183 -157927 -123201 -15758.5 -75.4377 43121.2 -7.41224 
4407 1 70.9582 3.95971 7.5 6.03194 -144703 -151673 -90682 8811.92 21604 52124.5 -7.41405 
4408 1 70.2328 2.74133 7.5 6.03194 -140271 -156692 -115293 -14143.4 -6230.37 46547.3 -7.41268 
4409 1 70.9252 1.50393 7.5 6.03194 -143043 -153007 -101488 10957.1 16624.9 50069.1 -7.41346 
4410 1 70.1998 0.285556 7.5 6.03192 -141619 -155304 -105598 -12296.1 -11979.8 49605.4 -7.41322 
4532 1 72.442 8.85223 7.5 6.03194 -137641 -158078 -134036 -16832.5 13047.6 35239.2 -7.41166 
4533 1 73.1344 7.61482 7.5 6.03194 -147210 -147299 -87943.3 5514.13 26784.4 51170.5 -7.41422 
4534 1 72.409 6.39645 7.5 6.03194 -138065 -156812 -131361 -15767.7 6212.99 38806.2 -7.41181 
4535 1 73.1014 5.15904 7.5 6.03194 -144946 -148530 -98021.2 7438.7 22293.7 49666.6 -7.41368 
4536 1 72.376 3.94067 7.5 6.03194 -138872 -155390 -126307 -14358.2 -414.172 42092.4 -7.4121 
4537 1 73.0684 2.70326 7.5 6.03194 -142995 -149906 -107641 9449.55 17262.6 47808.6 -7.41315 
4538 1 72.343 1.48489 7.5 6.03194 -140039 -153884 -119217 -12676.8 -6689.21 45120.4 -7.4125 
4539 1 73.0355 0.247482 7.5 6.03192 -141365 -151334 -116395 11476.8 11736.7 45642.2 -7.41267 
4661 1 75.2776 8.81415 7.5 6.03194 -148195 -144054 -96965.3 4399.34 27561.8 47371.1 -7.41375 
4662 1 74.5522 7.59578 7.5 6.03194 -137189 -155551 -136784 -15285 12455.1 33826.2 -7.41153 
4663 1 75.2447 6.35837 7.5 6.03194 -145523 -145216 -105836 6087.57 23037.7 45925.7 -7.41327 
4664 1 74.5193 5.14 7.5 6.03194 -137673 -153955 -134605 -14104.1 5451.37 36804.5 -7.41167 
4665 1 75.2117 3.90259 7.5 6.03194 -143213 -146563 -114319 7894.89 18008 44202.1 -7.41281 
4666 1 74.4863 2.68422 7.5 6.03194 -138588 -152286 -130187 -12653.6 -1236.32 39618.3 -7.41192 
4667 1 75.1787 1.44682 7.5 6.03194 -141304 -148073 -122034 9737.14 12535.2 42266.8 -7.41239 
4668 1 74.4533 0.228445 7.5 6.03192 -139906 -150566 -123887 -11034.5 -7522.01 42297.6 -7.41227 
4790 1 76.6955 8.79511 7.5 6.03194 -136579 -154237 -139505 -14333.9 18483.1 28568.9 -7.4114 
4791 1 77.3879 7.55771 7.5 6.03194 -146472 -141922 -113735 4822.76 23782.2 41213.6 -7.41286 
4792 1 76.6625 6.33934 7.5 6.03194 -136711 -152498 -140142 -13386.7 11177.4 31118.7 -7.41139 
4793 1 77.355 5.10193 7.5 6.03194 -143758 -143201 -121147 6383.57 18786.5 39580.4 -7.41246 
4794 1 76.6295 3.88356 7.5 6.03194 -137332 -150684 -138373 -12184.7 4166.67 33568.3 -7.4115 
4795 1 77.322 2.64615 7.5 6.03194 -141490 -144681 -127891 8010.11 13414.9 37815.8 -7.4121 
4796 1 76.5966 1.42778 7.5 6.03194 -138437 -148872 -134526 -10787.5 -2441.12 35986.8 -7.41172 
4797 1 77.289 0.19037 7.5 6.03192 -139682 -146281 -133611 9663.33 7659.6 35980 -7.41178 
4919 1 79.5312 8.75704 7.5 6.03194 -147789 -138813 -121344 3677.63 24524.3 35823.4 -7.41246 
4920 1 78.8058 7.53867 7.5 6.03194 -136011 -151119 -143025 -12240.9 16631.5 25426.7 -7.41125 
4921 1 79.4982 6.30126 7.5 6.03194 -144661 -140001 -127770 4974.18 19570.4 34276.5 -7.41212 
4922 1 78.7728 5.08289 7.5 6.03194 -136306 -149195 -143811 -11286.8 9353.51 27422.1 -7.41122 
4923 1 79.4652 3.84548 7.5 6.03194 -141997 -141410 -133625 6351.04 14312.6 32652.6 -7.41181 
4924 1 78.7398 2.62711 7.5 6.03194 -137139 -147270 -142356 -10151.1 2502.06 29449.4 -7.41132 
4925 1 79.4323 1.3897 7.5 6.03194 -139850 -143021 -138585 7754.03 8763.56 31030.5 -7.41154 
4926 1 78.7069 0.171333 7.5 6.03192 -138491 -145361 -139006 -8915.03 -3898.52 31570.4 -7.41151 
5048 1 80.949 8.738 7.5 6.03194 -135593 -149902 -143484 -10720.3 21754.1 20015.8 -7.41124 
5049 1 81.6415 7.5006 7.5 6.03194 -145916 -137106 -133854 3695.86 20392.7 28557.3 -7.4118 
5050 1 80.9161 6.28222 7.5 6.03194 -135539 -147914 -146684 -10001.9 14231.1 21538.7 -7.41109 
5051 1 81.6085 5.04482 7.5 6.03194 -142847 -138426 -138926 4811.85 15226.7 27090.7 -7.41154 
5052 1 80.8831 3.82645 7.5 6.03194 -136068 -145906 -147498 -9121.81 7167.09 23113.4 -7.41106 
5053 1 81.5755 2.58904 7.5 6.03194 -140314 -139966 -143225 5968.45 9871.8 25664.4 -7.41132 
5054 1 80.8501 1.37067 7.5 6.03194 -137177 -143951 -146263 -8123.29 613.959 24832.9 -7.41114 
5055 1 81.5425 0.133259 7.5 6.03192 -138334 -141648 -146446 7154.48 4248.97 24336.1 -7.41114 
5177 1 83.7847 8.69993 7.5 6.03194 -147491 -134610 -139080 2557.93 21340.4 22579.7 -7.41153 
5178 1 83.0593 7.48156 7.5 6.03194 -135051 -146913 -147276 -8384.54 18788.4 16134.5 -7.41107 
5179 1 83.7517 6.24415 7.5 6.03194 -144034 -135840 -143499 3418.04 16223.8 21333.3 -7.41131 
5180 1 83.0263 5.02578 7.5 6.03194 -135250 -144862 -150204 -7744.12 11500.5 17268.2 -7.41093 