(written by TR)

11104	atoms
2	atom types
0	91.4674556	xlo xhi
0	158.42628	ylo yhi
0	18.4	zlo zhi


Masses

1	12
2	12

Atoms

1 1 1 0 -0.00000003 158.42627843 7.50000000 0 0 0
2 1 1 0 0.69243564 157.18887058 7.50000000 0 0 0
3 1 1 0 0.65946252 154.73309193 7.50000000 0 0 0
4 1 1 0 0.62648939 152.27731328 7.50000000 0 0 0
5 1 1 0 0.59351626 149.82153463 7.50000000 0 0 0
6 1 1 0 0.56054314 147.36575598 7.50000000 0 0 0
7 1 1 0 0.52757001 144.90997733 7.50000000 0 0 0
8 1 1 0 0.49459688 142.45419869 7.50000000 0 0 0
9 1 1 0 0.46162376 139.99842004 7.50000000 0 0 0
10 1 1 0 0.42865063 137.54264139 7.50000000 0 0 0
11 1 1 0 0.39567750 135.08686274 7.50000000 0 0 0
12 1 1 0 0.36270438 132.63108409 7.50000000 0 0 0
13 1 1 0 0.32973125 130.17530544 7.50000000 0 0 0
14 1 1 0 0.29675812 127.71952679 7.50000000 0 0 0
15 1 1 0 0.26378500 125.26374814 7.50000000 0 0 0
16 1 1 0 0.23081187 122.80796949 7.50000000 0 0 0
17 1 1 0 0.19783874 120.35219084 7.50000000 0 0 0
18 1 1 0 0.16486562 117.89641220 7.50000000 0 0 0
19 1 1 0 0.13189249 115.44063355 7.50000000 0 0 0
20 1 1 0 0.09891936 112.98485490 7.50000000 0 0 0
21 1 1 0 0.06594624 110.52907625 7.50000000 0 0 0
22 1 1 0 0.03297311 108.07329760 7.50000000 0 0 0
23 1 1 0 -0.00000002 105.61751895 7.50000000 0 0 0
24 1 1 0 2.83568890 158.38820434 7.50000000 0 0 0
25 1 1 0 2.11028011 157.16983354 7.50000000 0 0 0
26 1 1 0 2.80271578 155.93242569 7.50000000 0 0 0
27 1 1 0 2.07730698 154.71405489 7.50000000 0 0 0
28 1 1 0 2.76974265 153.47664704 7.50000000 0 0 0
29 1 1 0 2.04433385 152.25827624 7.50000000 0 0 0
30 1 1 0 2.73676952 151.02086839 7.50000000 0 0 0
31 1 1 0 2.01136073 149.80249759 7.50000000 0 0 0
32 1 1 0 2.70379640 148.56508974 7.50000000 0 0 0
33 1 1 0 1.97838760 147.34671894 7.50000000 0 0 0
34 1 1 0 2.67082327 146.10931109 7.50000000 0 0 0
35 1 1 0 1.94541447 144.89094029 7.50000000 0 0 0
36 1 1 0 2.63785014 143.65353245 7.50000000 0 0 0
37 1 1 0 1.91244135 142.43516164 7.50000000 0 0 0
38 1 1 0 2.60487702 141.19775380 7.50000000 0 0 0
39 1 1 0 1.87946822 139.97938299 7.50000000 0 0 0
40 1 1 0 2.57190389 138.74197515 7.50000000 0 0 0
41 1 1 0 1.84649509 137.52360434 7.50000000 0 0 0
42 1 1 0 2.53893076 136.28619650 7.50000000 0 0 0
43 1 1 0 1.81352197 135.06782570 7.50000000 0 0 0
44 1 1 0 2.50595764 133.83041785 7.50000000 0 0 0
45 1 1 0 1.78054884 132.61204705 7.50000000 0 0 0
46 1 1 0 2.47298451 131.37463920 7.50000000 0 0 0
47 1 1 0 1.74757571 130.15626840 7.50000000 0 0 0
48 1 1 0 2.44001138 128.91886055 7.50000000 0 0 0
49 1 1 0 1.71460259 127.70048975 7.50000000 0 0 0
50 1 1 0 2.40703826 126.46308190 7.50000000 0 0 0
51 1 1 0 1.68162946 125.24471110 7.50000000 0 0 0
52 1 1 0 2.37406513 124.00730325 7.50000000 0 0 0
53 1 1 0 1.64865633 122.78893245 7.50000000 0 0 0
54 1 1 0 2.34109200 121.55152460 7.50000000 0 0 0
55 1 1 0 1.61568321 120.33315380 7.50000000 0 0 0
56 1 1 0 2.30811888 119.09574596 7.50000000 0 0 0
57 1 1 0 1.58271008 117.87737515 7.50000000 0 0 0
58 1 1 0 2.27514575 116.63996731 7.50000000 0 0 0
59 1 1 0 1.54973695 115.42159650 7.50000000 0 0 0
60 1 1 0 2.24217262 114.18418866 7.50000000 0 0 0
61 1 1 0 1.51676383 112.96581785 7.50000000 0 0 0
62 1 1 0 2.20919950 111.72841001 7.50000000 0 0 0
63 1 1 0 1.48379070 110.51003921 7.50000000 0 0 0
64 1 1 0 2.17622637 109.27263136 7.50000000 0 0 0
65 1 1 0 1.45081757 108.05426056 7.50000000 0 0 0
66 1 1 0 2.14325324 106.81685271 7.50000000 0 0 0
67 1 1 0 1.41784445 105.59848191 7.50000000 0 0 0
68 1 1 0 2.11028012 104.36107406 7.50000000 0 0 0
69 1 1 0 1.38487132 103.14270326 7.50000000 0 0 0
70 1 1 0 2.07730699 101.90529541 7.50000000 0 0 0
71 1 1 0 1.35189819 100.68692461 7.50000000 0 0 0
72 1 1 0 2.04433386 99.44951676 7.50000000 0 0 0
73 1 1 0 1.31892507 98.23114596 7.50000000 0 0 0
74 1 1 0 2.01136074 96.99373811 7.50000000 0 0 0
75 1 1 0 1.28595194 95.77536731 7.50000000 0 0 0
76 1 1 0 1.97838761 94.53795946 7.50000000 0 0 0
77 1 1 0 1.25297881 93.31958866 7.50000000 0 0 0
78 1 1 0 1.94541448 92.08218082 7.50000000 0 0 0
79 1 1 0 1.22000569 90.86381001 7.50000000 0 0 0
80 1 1 0 1.91244136 89.62640217 7.50000000 0 0 0
81 1 1 0 1.18703256 88.40803136 7.50000000 0 0 0
82 1 1 0 1.87946823 87.17062352 7.50000000 0 0 0
83 1 1 0 1.15405943 85.95225272 7.50000000 0 0 0
84 1 1 0 1.84649510 84.71484487 7.50000000 0 0 0
85 1 1 0 1.12108631 83.49647407 7.50000000 0 0 0
86 1 1 0 1.81352198 82.25906622 7.50000000 0 0 0
87 1 1 0 1.08811318 81.04069542 7.50000000 0 0 0
88 1 1 0 1.78054885 79.80328757 7.50000000 0 0 0
89 1 1 0 1.05514005 78.58491677 7.50000000 0 0 0
90 1 1 0 1.74757572 77.34750892 7.50000000 0 0 0
91 1 1 0 1.02216693 76.12913812 7.50000000 0 0 0
92 1 1 0 1.71460260 74.89173027 7.50000000 0 0 0
93 1 1 0 0.98919380 73.67335947 7.50000000 0 0 0
94 1 1 0 1.68162947 72.43595162 7.50000000 0 0 0
95 1 1 0 0.95622067 71.21758082 7.50000000 0 0 0
96 1 1 0 1.64865634 69.98017297 7.50000000 0 0 0
97 1 1 0 0.92324755 68.76180217 7.50000000 0 0 0
98 1 1 0 1.61568322 67.52439433 7.50000000 0 0 0
99 1 1 0 0.89027442 66.30602352 7.50000000 0 0 0
100 1 1 0 1.58271009 65.06861568 7.50000000 0 0 0
101 1 1 0 0.85730129 63.85024487 7.50000000 0 0 0
102 1 1 0 1.54973696 62.61283703 7.50000000 0 0 0
103 1 1 0 0.82432817 61.39446623 7.50000000 0 0 0
104 1 1 0 1.51676384 60.15705838 7.50000000 0 0 0
105 1 1 0 0.79135504 58.93868758 7.50000000 0 0 0
106 1 1 0 1.48379071 57.70127973 7.50000000 0 0 0
107 1 1 0 0.75838191 56.48290893 7.50000000 0 0 0
108 1 1 0 1.45081758 55.24550108 7.50000000 0 0 0
109 1 1 0 0.72540879 54.02713028 7.50000000 0 0 0
110 1 1 0 1.41784446 52.78972243 7.50000000 0 0 0
111 1 1 0 0.69243566 51.57135163 7.50000000 0 0 0
112 1 1 0 1.38487133 50.33394378 7.50000000 0 0 0
113 1 1 0 0.65946253 49.11557298 7.50000000 0 0 0
114 1 1 0 1.35189820 47.87816513 7.50000000 0 0 0
115 1 1 0 0.62648941 46.65979433 7.50000000 0 0 0
116 1 1 0 1.31892508 45.42238648 7.50000000 0 0 0
117 1 1 0 0.59351628 44.20401568 7.50000000 0 0 0
118 1 1 0 1.28595195 42.96660784 7.50000000 0 0 0
119 1 1 0 0.56054315 41.74823703 7.50000000 0 0 0
120 1 1 0 1.25297882 40.51082919 7.50000000 0 0 0
121 1 1 0 0.52757003 39.29245838 7.50000000 0 0 0
122 1 1 0 1.22000570 38.05505054 7.50000000 0 0 0
123 1 1 0 0.49459690 36.83667974 7.50000000 0 0 0
124 1 1 0 1.18703257 35.59927189 7.50000000 0 0 0
125 1 1 0 0.46162377 34.38090109 7.50000000 0 0 0
126 1 1 0 1.15405944 33.14349324 7.50000000 0 0 0
127 1 1 0 0.42865065 31.92512244 7.50000000 0 0 0
128 1 1 0 1.12108632 30.68771459 7.50000000 0 0 0
129 1 1 0 0.39567752 29.46934379 7.50000000 0 0 0
130 1 1 0 1.08811319 28.23193594 7.50000000 0 0 0
131 1 1 0 0.36270439 27.01356514 7.50000000 0 0 0
132 1 1 0 1.05514006 25.77615729 7.50000000 0 0 0
133 1 1 0 0.32973127 24.55778649 7.50000000 0 0 0
134 1 1 0 1.02216694 23.32037864 7.50000000 0 0 0
135 1 1 0 0.29675814 22.10200784 7.50000000 0 0 0
136 1 1 0 0.98919381 20.86459999 7.50000000 0 0 0
137 1 1 0 0.26378501 19.64622919 7.50000000 0 0 0
138 1 1 0 0.95622068 18.40882135 7.50000000 0 0 0
139 1 1 0 0.23081189 17.19045054 7.50000000 0 0 0
140 1 1 0 0.92324756 15.95304270 7.50000000 0 0 0
141 1 1 0 0.19783876 14.73467189 7.50000000 0 0 0
142 1 1 0 0.89027443 13.49726405 7.50000000 0 0 0
143 1 1 0 0.16486563 12.27889325 7.50000000 0 0 0
144 1 1 0 0.85730130 11.04148540 7.50000000 0 0 0
145 1 1 0 0.13189251 9.82311460 7.50000000 0 0 0
146 1 1 0 0.82432818 8.58570675 7.50000000 0 0 0
147 1 1 0 0.09891938 7.36733595 7.50000000 0 0 0
148 1 1 0 0.79135505 6.12992810 7.50000000 0 0 0
149 1 1 0 0.06594625 4.91155730 7.50000000 0 0 0
150 1 1 0 0.75838192 3.67414945 7.50000000 0 0 0
151 1 1 0 0.03297313 2.45577865 7.50000000 0 0 0
152 1 1 0 0.72540880 1.21837080 7.50000000 0 0 0
153 1 1 0 0.00000000 0.00000000 7.50000000 0 0 0
154 1 1 0 4.25353337 158.36916730 7.50000000 0 0 0
155 1 1 0 4.94596904 157.13175945 7.50000000 0 0 0
156 1 1 0 4.22056024 155.91338865 7.50000000 0 0 0
157 1 1 0 4.91299591 154.67598080 7.50000000 0 0 0
158 1 1 0 4.18758711 153.45761000 7.50000000 0 0 0
159 1 1 0 4.88002278 152.22020215 7.50000000 0 0 0
160 1 1 0 4.15461399 151.00183135 7.50000000 0 0 0
161 1 1 0 4.84704966 149.76442350 7.50000000 0 0 0
162 1 1 0 4.12164086 148.54605270 7.50000000 0 0 0
163 1 1 0 4.81407653 147.30864485 7.50000000 0 0 0
164 1 1 0 4.08866773 146.09027405 7.50000000 0 0 0
165 1 1 0 4.78110340 144.85286620 7.50000000 0 0 0
166 1 1 0 4.05569461 143.63449540 7.50000000 0 0 0
167 1 1 0 4.74813028 142.39708756 7.50000000 0 0 0
168 1 1 0 4.02272148 141.17871675 7.50000000 0 0 0
169 1 1 0 4.71515715 139.94130891 7.50000000 0 0 0
170 1 1 0 3.98974835 138.72293810 7.50000000 0 0 0
171 1 1 0 4.68218402 137.48553026 7.50000000 0 0 0
172 1 1 0 3.95677523 136.26715945 7.50000000 0 0 0
173 1 1 0 4.64921090 135.02975161 7.50000000 0 0 0
174 1 1 0 3.92380210 133.81138081 7.50000000 0 0 0
175 1 1 0 4.61623777 132.57397296 7.50000000 0 0 0
176 1 1 0 3.89082897 131.35560216 7.50000000 0 0 0
177 1 1 0 4.58326464 130.11819431 7.50000000 0 0 0
178 1 1 0 3.85785585 128.89982351 7.50000000 0 0 0
179 1 1 0 4.55029152 127.66241566 7.50000000 0 0 0
180 1 1 0 3.82488272 126.44404486 7.50000000 0 0 0
181 1 1 0 4.51731839 125.20663701 7.50000000 0 0 0
182 1 1 0 3.79190959 123.98826621 7.50000000 0 0 0
183 1 1 0 4.48434526 122.75085836 7.50000000 0 0 0
184 1 1 0 3.75893647 121.53248756 7.50000000 0 0 0
185 1 1 0 4.45137214 120.29507971 7.50000000 0 0 0
186 1 1 0 3.72596334 119.07670891 7.50000000 0 0 0
187 1 1 0 4.41839901 117.83930107 7.50000000 0 0 0
188 1 1 0 3.69299021 116.62093026 7.50000000 0 0 0
189 1 1 0 4.38542588 115.38352242 7.50000000 0 0 0
190 1 1 0 3.66001709 114.16515161 7.50000000 0 0 0
191 1 1 0 4.35245276 112.92774377 7.50000000 0 0 0
192 1 1 0 3.62704396 111.70937296 7.50000000 0 0 0
193 1 1 0 4.31947963 110.47196512 7.50000000 0 0 0
194 1 1 0 3.59407083 109.25359432 7.50000000 0 0 0
195 1 1 0 4.28650650 108.01618647 7.50000000 0 0 0
196 1 1 0 3.56109771 106.79781567 7.50000000 0 0 0
197 1 1 0 4.25353338 105.56040782 7.50000000 0 0 0
198 1 1 0 3.52812458 104.34203702 7.50000000 0 0 0
199 1 1 0 4.22056025 103.10462917 7.50000000 0 0 0
200 1 1 0 3.49515145 101.88625837 7.50000000 0 0 0
201 1 1 0 4.18758712 100.64885052 7.50000000 0 0 0
202 1 1 0 3.46217833 99.43047972 7.50000000 0 0 0
203 1 1 0 4.15461400 98.19307187 7.50000000 0 0 0
204 1 1 0 3.42920520 96.97470107 7.50000000 0 0 0
205 1 1 0 4.12164087 95.73729322 7.50000000 0 0 0
206 1 1 0 3.39623207 94.51892242 7.50000000 0 0 0
207 1 1 0 4.08866774 93.28151458 7.50000000 0 0 0
208 1 1 0 3.36325895 92.06314377 7.50000000 0 0 0
209 1 1 0 4.05569462 90.82573593 7.50000000 0 0 0
210 1 1 0 3.33028582 89.60736512 7.50000000 0 0 0
211 1 1 0 4.02272149 88.36995728 7.50000000 0 0 0
212 1 1 0 3.29731269 87.15158647 7.50000000 0 0 0
213 1 1 0 3.98974836 85.91417863 7.50000000 0 0 0
214 1 1 0 3.26433957 84.69580783 7.50000000 0 0 0
215 1 1 0 3.95677524 83.45839998 7.50000000 0 0 0
216 1 1 0 3.23136644 82.24002918 7.50000000 0 0 0
217 1 1 0 3.92380211 81.00262133 7.50000000 0 0 0
218 1 1 0 3.19839331 79.78425053 7.50000000 0 0 0
219 1 1 0 3.89082898 78.54684268 7.50000000 0 0 0
220 1 1 0 3.16542019 77.32847188 7.50000000 0 0 0
221 1 1 0 3.85785586 76.09106403 7.50000000 0 0 0
222 1 1 0 3.13244706 74.87269323 7.50000000 0 0 0
223 1 1 0 3.82488273 73.63528538 7.50000000 0 0 0
224 1 1 0 3.09947393 72.41691458 7.50000000 0 0 0
225 1 1 0 3.79190960 71.17950673 7.50000000 0 0 0
226 1 1 0 3.06650081 69.96113593 7.50000000 0 0 0
227 1 1 0 3.75893648 68.72372809 7.50000000 0 0 0
228 1 1 0 3.03352768 67.50535728 7.50000000 0 0 0
229 1 1 0 3.72596335 66.26794944 7.50000000 0 0 0
230 1 1 0 3.00055455 65.04957863 7.50000000 0 0 0
231 1 1 0 3.69299022 63.81217079 7.50000000 0 0 0
232 1 1 0 2.96758143 62.59379998 7.50000000 0 0 0
233 1 1 0 3.66001710 61.35639214 7.50000000 0 0 0
234 1 1 0 2.93460830 60.13802134 7.50000000 0 0 0
235 1 1 0 3.62704397 58.90061349 7.50000000 0 0 0
236 1 1 0 2.90163517 57.68224269 7.50000000 0 0 0
237 1 1 0 3.59407084 56.44483484 7.50000000 0 0 0
238 1 1 0 2.86866205 55.22646404 7.50000000 0 0 0
239 1 1 0 3.56109772 53.98905619 7.50000000 0 0 0
240 1 1 0 2.83568892 52.77068539 7.50000000 0 0 0
241 1 1 0 3.52812459 51.53327754 7.50000000 0 0 0
242 1 1 0 2.80271579 50.31490674 7.50000000 0 0 0
243 1 1 0 3.49515146 49.07749889 7.50000000 0 0 0
244 1 1 0 2.76974267 47.85912809 7.50000000 0 0 0
245 1 1 0 3.46217834 46.62172024 7.50000000 0 0 0
246 1 1 0 2.73676954 45.40334944 7.50000000 0 0 0
247 1 1 0 3.42920521 44.16594159 7.50000000 0 0 0
248 1 1 0 2.70379641 42.94757079 7.50000000 0 0 0
249 1 1 0 3.39623208 41.71016295 7.50000000 0 0 0
250 1 1 0 2.67082329 40.49179214 7.50000000 0 0 0
251 1 1 0 3.36325895 39.25438430 7.50000000 0 0 0
252 1 1 0 2.63785016 38.03601349 7.50000000 0 0 0
253 1 1 0 3.33028583 36.79860565 7.50000000 0 0 0
254 1 1 0 2.60487703 35.58023485 7.50000000 0 0 0
255 1 1 0 3.29731270 34.34282700 7.50000000 0 0 0
256 1 1 0 2.57190391 33.12445620 7.50000000 0 0 0
257 1 1 0 3.26433957 31.88704835 7.50000000 0 0 0
258 1 1 0 2.53893078 30.66867755 7.50000000 0 0 0
259 1 1 0 3.23136645 29.43126970 7.50000000 0 0 0
260 1 1 0 2.50595765 28.21289890 7.50000000 0 0 0
261 1 1 0 3.19839332 26.97549105 7.50000000 0 0 0
262 1 1 0 2.47298453 25.75712025 7.50000000 0 0 0
263 1 1 0 3.16542019 24.51971240 7.50000000 0 0 0
264 1 1 0 2.44001140 23.30134160 7.50000000 0 0 0
265 1 1 0 3.13244707 22.06393375 7.50000000 0 0 0
266 1 1 0 2.40703827 20.84556295 7.50000000 0 0 0
267 1 1 0 3.09947394 19.60815510 7.50000000 0 0 0
268 1 1 0 2.37406515 18.38978430 7.50000000 0 0 0
269 1 1 0 3.06650081 17.15237646 7.50000000 0 0 0
270 1 1 0 2.34109202 15.93400565 7.50000000 0 0 0
271 1 1 0 3.03352769 14.69659781 7.50000000 0 0 0
272 1 1 0 2.30811889 13.47822700 7.50000000 0 0 0
273 1 1 0 3.00055456 12.24081916 7.50000000 0 0 0
274 1 1 0 2.27514577 11.02244836 7.50000000 0 0 0
275 1 1 0 2.96758143 9.78504051 7.50000000 0 0 0
276 1 1 0 2.24217264 8.56666971 7.50000000 0 0 0
277 1 1 0 2.93460831 7.32926186 7.50000000 0 0 0
278 1 1 0 2.20919951 6.11089106 7.50000000 0 0 0
279 1 1 0 2.90163518 4.87348321 7.50000000 0 0 0
280 1 1 0 2.17622639 3.65511241 7.50000000 0 0 0
281 1 1 0 2.86866205 2.41770456 7.50000000 0 0 0
282 1 1 0 2.14325326 1.19933376 7.50000000 0 0 0
283 1 1 0 7.08922229 158.33109321 7.50000000 0 0 0
284 1 1 0 6.36381350 157.11272241 7.50000000 0 0 0
285 1 1 0 7.05624917 155.87531456 7.50000000 0 0 0
286 1 1 0 6.33084037 154.65694376 7.50000000 0 0 0
287 1 1 0 7.02327604 153.41953591 7.50000000 0 0 0
288 1 1 0 6.29786725 152.20116511 7.50000000 0 0 0
289 1 1 0 6.99030291 150.96375726 7.50000000 0 0 0
290 1 1 0 6.26489412 149.74538646 7.50000000 0 0 0
291 1 1 0 6.95732979 148.50797861 7.50000000 0 0 0
292 1 1 0 6.23192099 147.28960781 7.50000000 0 0 0
293 1 1 0 6.92435666 146.05219996 7.50000000 0 0 0
294 1 1 0 6.19894787 144.83382916 7.50000000 0 0 0
295 1 1 0 6.89138353 143.59642131 7.50000000 0 0 0
296 1 1 0 6.16597474 142.37805051 7.50000000 0 0 0
297 1 1 0 6.85841041 141.14064267 7.50000000 0 0 0
298 1 1 0 6.13300161 139.92227186 7.50000000 0 0 0
299 1 1 0 6.82543728 138.68486402 7.50000000 0 0 0
300 1 1 0 6.10002849 137.46649321 7.50000000 0 0 0
301 1 1 0 6.79246415 136.22908537 7.50000000 0 0 0
302 1 1 0 6.06705536 135.01071456 7.50000000 0 0 0
303 1 1 0 6.75949103 133.77330672 7.50000000 0 0 0
304 1 1 0 6.03408223 132.55493592 7.50000000 0 0 0
305 1 1 0 6.72651790 131.31752807 7.50000000 0 0 0
306 1 1 0 6.00110911 130.09915727 7.50000000 0 0 0
307 1 1 0 6.69354477 128.86174942 7.50000000 0 0 0
308 1 1 0 5.96813598 127.64337862 7.50000000 0 0 0
309 1 1 0 6.66057165 126.40597077 7.50000000 0 0 0
310 1 1 0 5.93516285 125.18759997 7.50000000 0 0 0
311 1 1 0 6.62759852 123.95019212 7.50000000 0 0 0
312 1 1 0 5.90218973 122.73182132 7.50000000 0 0 0
313 1 1 0 6.59462539 121.49441347 7.50000000 0 0 0
314 1 1 0 5.86921660 120.27604267 7.50000000 0 0 0
315 1 1 0 6.56165227 119.03863482 7.50000000 0 0 0
316 1 1 0 5.83624347 117.82026402 7.50000000 0 0 0
317 1 1 0 6.52867914 116.58285618 7.50000000 0 0 0
318 1 1 0 5.80327035 115.36448537 7.50000000 0 0 0
319 1 1 0 6.49570601 114.12707753 7.50000000 0 0 0
320 1 1 0 5.77029722 112.90870672 7.50000000 0 0 0
321 1 1 0 6.46273289 111.67129888 7.50000000 0 0 0
322 1 1 0 5.73732409 110.45292807 7.50000000 0 0 0
323 1 1 0 6.42975976 109.21552023 7.50000000 0 0 0
324 1 1 0 5.70435097 107.99714943 7.50000000 0 0 0
325 1 1 0 6.39678663 106.75974158 7.50000000 0 0 0
326 1 1 0 5.67137784 105.54137078 7.50000000 0 0 0
327 1 1 0 6.36381351 104.30396293 7.50000000 0 0 0
328 1 1 0 5.63840471 103.08559213 7.50000000 0 0 0
329 1 1 0 6.33084038 101.84818428 7.50000000 0 0 0
330 1 1 0 5.60543159 100.62981348 7.50000000 0 0 0
331 1 1 0 6.29786725 99.39240563 7.50000000 0 0 0
332 1 1 0 5.57245846 98.17403483 7.50000000 0 0 0
333 1 1 0 6.26489413 96.93662698 7.50000000 0 0 0
334 1 1 0 5.53948533 95.71825618 7.50000000 0 0 0
335 1 1 0 6.23192100 94.48084833 7.50000000 0 0 0
336 1 1 0 5.50651221 93.26247753 7.50000000 0 0 0
337 1 1 0 6.19894787 92.02506969 7.50000000 0 0 0
338 1 1 0 5.47353908 90.80669888 7.50000000 0 0 0
339 1 1 0 6.16597475 89.56929104 7.50000000 0 0 0
340 1 1 0 5.44056595 88.35092023 7.50000000 0 0 0
341 1 1 0 6.13300162 87.11351239 7.50000000 0 0 0
342 1 1 0 5.40759283 85.89514158 7.50000000 0 0 0
343 1 1 0 6.10002849 84.65773374 7.50000000 0 0 0
344 1 1 0 5.37461970 83.43936294 7.50000000 0 0 0
345 1 1 0 6.06705537 82.20195509 7.50000000 0 0 0
346 1 1 0 5.34164657 80.98358429 7.50000000 0 0 0
347 1 1 0 6.03408224 79.74617644 7.50000000 0 0 0
348 1 1 0 5.30867345 78.52780564 7.50000000 0 0 0
349 1 1 0 6.00110911 77.29039779 7.50000000 0 0 0
350 1 1 0 5.27570032 76.07202699 7.50000000 0 0 0
351 1 1 0 5.96813599 74.83461914 7.50000000 0 0 0
352 1 1 0 5.24272719 73.61624834 7.50000000 0 0 0
353 1 1 0 5.93516286 72.37884049 7.50000000 0 0 0
354 1 1 0 5.20975407 71.16046969 7.50000000 0 0 0
355 1 1 0 5.90218973 69.92306184 7.50000000 0 0 0
356 1 1 0 5.17678094 68.70469104 7.50000000 0 0 0
357 1 1 0 5.86921661 67.46728320 7.50000000 0 0 0
358 1 1 0 5.14380781 66.24891239 7.50000000 0 0 0
359 1 1 0 5.83624348 65.01150455 7.50000000 0 0 0
360 1 1 0 5.11083469 63.79313374 7.50000000 0 0 0
361 1 1 0 5.80327035 62.55572590 7.50000000 0 0 0
362 1 1 0 5.07786156 61.33735509 7.50000000 0 0 0
363 1 1 0 5.77029723 60.09994725 7.50000000 0 0 0
364 1 1 0 5.04488843 58.88157645 7.50000000 0 0 0
365 1 1 0 5.73732410 57.64416860 7.50000000 0 0 0
366 1 1 0 5.01191531 56.42579780 7.50000000 0 0 0
367 1 1 0 5.70435097 55.18838995 7.50000000 0 0 0
368 1 1 0 4.97894218 53.97001915 7.50000000 0 0 0
369 1 1 0 5.67137785 52.73261130 7.50000000 0 0 0
370 1 1 0 4.94596905 51.51424050 7.50000000 0 0 0
371 1 1 0 5.63840472 50.27683265 7.50000000 0 0 0
372 1 1 0 4.91299593 49.05846185 7.50000000 0 0 0
373 1 1 0 5.60543159 47.82105400 7.50000000 0 0 0
374 1 1 0 4.88002280 46.60268320 7.50000000 0 0 0
375 1 1 0 5.57245847 45.36527535 7.50000000 0 0 0
376 1 1 0 4.84704967 44.14690455 7.50000000 0 0 0
377 1 1 0 5.53948534 42.90949671 7.50000000 0 0 0
378 1 1 0 4.81407655 41.69112590 7.50000000 0 0 0
379 1 1 0 5.50651221 40.45371806 7.50000000 0 0 0
380 1 1 0 4.78110342 39.23534725 7.50000000 0 0 0
381 1 1 0 5.47353909 37.99793941 7.50000000 0 0 0
382 1 1 0 4.74813029 36.77956860 7.50000000 0 0 0
383 1 1 0 5.44056596 35.54216076 7.50000000 0 0 0
384 1 1 0 4.71515717 34.32378996 7.50000000 0 0 0
385 1 1 0 5.40759283 33.08638211 7.50000000 0 0 0
386 1 1 0 4.68218404 31.86801131 7.50000000 0 0 0
387 1 1 0 5.37461971 30.63060346 7.50000000 0 0 0
388 1 1 0 4.64921091 29.41223266 7.50000000 0 0 0
389 1 1 0 5.34164658 28.17482481 7.50000000 0 0 0
390 1 1 0 4.61623779 26.95645401 7.50000000 0 0 0
391 1 1 0 5.30867345 25.71904616 7.50000000 0 0 0
392 1 1 0 4.58326466 24.50067536 7.50000000 0 0 0
393 1 1 0 5.27570033 23.26326751 7.50000000 0 0 0
394 1 1 0 4.55029153 22.04489671 7.50000000 0 0 0
395 1 1 0 5.24272720 20.80748886 7.50000000 0 0 0
396 1 1 0 4.51731841 19.58911806 7.50000000 0 0 0
397 1 1 0 5.20975407 18.35171022 7.50000000 0 0 0
398 1 1 0 4.48434528 17.13333941 7.50000000 0 0 0
399 1 1 0 5.17678095 15.89593157 7.50000000 0 0 0
400 1 1 0 4.45137215 14.67756076 7.50000000 0 0 0
401 1 1 0 5.14380782 13.44015292 7.50000000 0 0 0
402 1 1 0 4.41839903 12.22178211 7.50000000 0 0 0
403 1 1 0 5.11083469 10.98437427 7.50000000 0 0 0
404 1 1 0 4.38542590 9.76600347 7.50000000 0 0 0
405 1 1 0 5.07786157 8.52859562 7.50000000 0 0 0
406 1 1 0 4.35245277 7.31022482 7.50000000 0 0 0
407 1 1 0 5.04488844 6.07281697 7.50000000 0 0 0
408 1 1 0 4.31947965 4.85444617 7.50000000 0 0 0
409 1 1 0 5.01191531 3.61703832 7.50000000 0 0 0
410 1 1 0 4.28650652 2.39866752 7.50000000 0 0 0
411 1 1 0 4.97894219 1.16125967 7.50000000 0 0 0
412 1 1 0 8.50706676 158.31205616 7.50000000 0 0 0
413 1 1 0 9.19950243 157.07464832 7.50000000 0 0 0
414 1 1 0 8.47409363 155.85627752 7.50000000 0 0 0
415 1 1 0 9.16652930 154.61886967 7.50000000 0 0 0
416 1 1 0 8.44112051 153.40049887 7.50000000 0 0 0
417 1 1 0 9.13355617 152.16309102 7.50000000 0 0 0
418 1 1 0 8.40814738 150.94472022 7.50000000 0 0 0
419 1 1 0 9.10058305 149.70731237 7.50000000 0 0 0
420 1 1 0 8.37517425 148.48894157 7.50000000 0 0 0
421 1 1 0 9.06760992 147.25153372 7.50000000 0 0 0
422 1 1 0 8.34220113 146.03316292 7.50000000 0 0 0
423 1 1 0 9.03463679 144.79575507 7.50000000 0 0 0
424 1 1 0 8.30922800 143.57738427 7.50000000 0 0 0
425 1 1 0 9.00166367 142.33997642 7.50000000 0 0 0
426 1 1 0 8.27625487 141.12160562 7.50000000 0 0 0
427 1 1 0 8.96869054 139.88419778 7.50000000 0 0 0
428 1 1 0 8.24328175 138.66582697 7.50000000 0 0 0
429 1 1 0 8.93571741 137.42841913 7.50000000 0 0 0
430 1 1 0 8.21030862 136.21004832 7.50000000 0 0 0
431 1 1 0 8.90274429 134.97264048 7.50000000 0 0 0
432 1 1 0 8.17733549 133.75426967 7.50000000 0 0 0
433 1 1 0 8.86977116 132.51686183 7.50000000 0 0 0
434 1 1 0 8.14436237 131.29849103 7.50000000 0 0 0
435 1 1 0 8.83679803 130.06108318 7.50000000 0 0 0
436 1 1 0 8.11138924 128.84271238 7.50000000 0 0 0
437 1 1 0 8.80382491 127.60530453 7.50000000 0 0 0
438 1 1 0 8.07841611 126.38693373 7.50000000 0 0 0
439 1 1 0 8.77085178 125.14952588 7.50000000 0 0 0
440 1 1 0 8.04544299 123.93115508 7.50000000 0 0 0
441 1 1 0 8.73787865 122.69374723 7.50000000 0 0 0
442 1 1 0 8.01246986 121.47537643 7.50000000 0 0 0
443 1 1 0 8.70490553 120.23796858 7.50000000 0 0 0
444 1 1 0 7.97949673 119.01959778 7.50000000 0 0 0
445 1 1 0 8.67193240 117.78218993 7.50000000 0 0 0
446 1 1 0 7.94652361 116.56381913 7.50000000 0 0 0
447 1 1 0 8.63895927 115.32641129 7.50000000 0 0 0
448 1 1 0 7.91355048 114.10804048 7.50000000 0 0 0
449 1 1 0 8.60598615 112.87063264 7.50000000 0 0 0
450 1 1 0 7.88057735 111.65226183 7.50000000 0 0 0
451 1 1 0 8.57301302 110.41485399 7.50000000 0 0 0
452 1 1 0 7.84760423 109.19648318 7.50000000 0 0 0
453 1 1 0 8.54003989 107.95907534 7.50000000 0 0 0
454 1 1 0 7.81463110 106.74070454 7.50000000 0 0 0
455 1 1 0 8.50706677 105.50329669 7.50000000 0 0 0
456 1 1 0 7.78165797 104.28492589 7.50000000 0 0 0
457 1 1 0 8.47409364 103.04751804 7.50000000 0 0 0
458 1 1 0 7.74868485 101.82914724 7.50000000 0 0 0
459 1 1 0 8.44112051 100.59173939 7.50000000 0 0 0
460 1 1 0 7.71571172 99.37336859 7.50000000 0 0 0
461 1 1 0 8.40814739 98.13596074 7.50000000 0 0 0
462 1 1 0 7.68273859 96.91758994 7.50000000 0 0 0
463 1 1 0 8.37517426 95.68018209 7.50000000 0 0 0
464 1 1 0 7.64976547 94.46181129 7.50000000 0 0 0
465 1 1 0 8.34220113 93.22440344 7.50000000 0 0 0
466 1 1 0 7.61679234 92.00603264 7.50000000 0 0 0
467 1 1 0 8.30922801 90.76862480 7.50000000 0 0 0
468 1 1 0 7.58381921 89.55025399 7.50000000 0 0 0
469 1 1 0 8.27625488 88.31284615 7.50000000 0 0 0
470 1 1 0 7.55084609 87.09447534 7.50000000 0 0 0
471 1 1 0 8.24328175 85.85706750 7.50000000 0 0 0
472 1 1 0 7.51787296 84.63869669 7.50000000 0 0 0
473 1 1 0 8.21030863 83.40128885 7.50000000 0 0 0
474 1 1 0 7.48489983 82.18291805 7.50000000 0 0 0
475 1 1 0 8.17733550 80.94551020 7.50000000 0 0 0
476 1 1 0 7.45192671 79.72713940 7.50000000 0 0 0
477 1 1 0 8.14436237 78.48973155 7.50000000 0 0 0
478 1 1 0 7.41895358 77.27136075 7.50000000 0 0 0
479 1 1 0 8.11138925 76.03395290 7.50000000 0 0 0
480 1 1 0 7.38598045 74.81558210 7.50000000 0 0 0
481 1 1 0 8.07841612 73.57817425 7.50000000 0 0 0
482 1 1 0 7.35300733 72.35980345 7.50000000 0 0 0
483 1 1 0 8.04544299 71.12239560 7.50000000 0 0 0
484 1 1 0 7.32003420 69.90402480 7.50000000 0 0 0
485 1 1 0 8.01246987 68.66661695 7.50000000 0 0 0
486 1 1 0 7.28706107 67.44824615 7.50000000 0 0 0
487 1 1 0 7.97949674 66.21083831 7.50000000 0 0 0
488 1 1 0 7.25408795 64.99246750 7.50000000 0 0 0
489 1 1 0 7.94652361 63.75505966 7.50000000 0 0 0
490 1 1 0 7.22111482 62.53668885 7.50000000 0 0 0
491 1 1 0 7.91355049 61.29928101 7.50000000 0 0 0
492 1 1 0 7.18814169 60.08091020 7.50000000 0 0 0
493 1 1 0 7.88057736 58.84350236 7.50000000 0 0 0
494 1 1 0 7.15516857 57.62513156 7.50000000 0 0 0
495 1 1 0 7.84760423 56.38772371 7.50000000 0 0 0
496 1 1 0 7.12219544 55.16935291 7.50000000 0 0 0
497 1 1 0 7.81463111 53.93194506 7.50000000 0 0 0
498 1 1 0 7.08922231 52.71357426 7.50000000 0 0 0
499 1 1 0 7.78165798 51.47616641 7.50000000 0 0 0
500 1 1 0 7.05624919 50.25779561 7.50000000 0 0 0
501 1 1 0 7.74868485 49.02038776 7.50000000 0 0 0
502 1 1 0 7.02327606 47.80201696 7.50000000 0 0 0
503 1 1 0 7.71571173 46.56460911 7.50000000 0 0 0
504 1 1 0 6.99030293 45.34623831 7.50000000 0 0 0
505 1 1 0 7.68273860 44.10883046 7.50000000 0 0 0
506 1 1 0 6.95732981 42.89045966 7.50000000 0 0 0
507 1 1 0 7.64976547 41.65305182 7.50000000 0 0 0
508 1 1 0 6.92435668 40.43468101 7.50000000 0 0 0
509 1 1 0 7.61679235 39.19727317 7.50000000 0 0 0
510 1 1 0 6.89138355 37.97890236 7.50000000 0 0 0
511 1 1 0 7.58381922 36.74149452 7.50000000 0 0 0
512 1 1 0 6.85841043 35.52312371 7.50000000 0 0 0
513 1 1 0 7.55084609 34.28571587 7.50000000 0 0 0
514 1 1 0 6.82543730 33.06734507 7.50000000 0 0 0
515 1 1 0 7.51787297 31.82993722 7.50000000 0 0 0
516 1 1 0 6.79246417 30.61156642 7.50000000 0 0 0
517 1 1 0 7.48489984 29.37415857 7.50000000 0 0 0
518 1 1 0 6.75949105 28.15578777 7.50000000 0 0 0
519 1 1 0 7.45192671 26.91837992 7.50000000 0 0 0
520 1 1 0 6.72651792 25.70000912 7.50000000 0 0 0
521 1 1 0 7.41895359 24.46260127 7.50000000 0 0 0
522 1 1 0 6.69354479 23.24423047 7.50000000 0 0 0
523 1 1 0 7.38598046 22.00682262 7.50000000 0 0 0
524 1 1 0 6.66057167 20.78845182 7.50000000 0 0 0
525 1 1 0 7.35300733 19.55104397 7.50000000 0 0 0
526 1 1 0 6.62759854 18.33267317 7.50000000 0 0 0
527 1 1 0 7.32003421 17.09526533 7.50000000 0 0 0
528 1 1 0 6.59462541 15.87689452 7.50000000 0 0 0
529 1 1 0 7.28706108 14.63948668 7.50000000 0 0 0
530 1 1 0 6.56165229 13.42111587 7.50000000 0 0 0
531 1 1 0 7.25408795 12.18370803 7.50000000 0 0 0
532 1 1 0 6.52867916 10.96533722 7.50000000 0 0 0
533 1 1 0 7.22111483 9.72792938 7.50000000 0 0 0
534 1 1 0 6.49570603 8.50955858 7.50000000 0 0 0
535 1 1 0 7.18814170 7.27215073 7.50000000 0 0 0
536 1 1 0 6.46273291 6.05377993 7.50000000 0 0 0
537 1 1 0 7.15516857 4.81637208 7.50000000 0 0 0
538 1 1 0 6.42975978 3.59800128 7.50000000 0 0 0
539 1 1 0 7.12219545 2.36059343 7.50000000 0 0 0
540 1 1 0 6.39678665 1.14222263 7.50000000 0 0 0
541 1 1 0 11.34275569 158.27398208 7.50000000 0 0 0
542 1 1 0 10.61734689 157.05561128 7.50000000 0 0 0
543 1 1 0 11.30978256 155.81820343 7.50000000 0 0 0
544 1 1 0 10.58437377 154.59983263 7.50000000 0 0 0
545 1 1 0 11.27680943 153.36242478 7.50000000 0 0 0
546 1 1 0 10.55140064 152.14405398 7.50000000 0 0 0
547 1 1 0 11.24383631 150.90664613 7.50000000 0 0 0
548 1 1 0 10.51842751 149.68827533 7.50000000 0 0 0
549 1 1 0 11.21086318 148.45086748 7.50000000 0 0 0
550 1 1 0 10.48545439 147.23249668 7.50000000 0 0 0
551 1 1 0 11.17789005 145.99508883 7.50000000 0 0 0
552 1 1 0 10.45248126 144.77671803 7.50000000 0 0 0
553 1 1 0 11.14491693 143.53931018 7.50000000 0 0 0
554 1 1 0 10.41950813 142.32093938 7.50000000 0 0 0
555 1 1 0 11.11194380 141.08353153 7.50000000 0 0 0
556 1 1 0 10.38653501 139.86516073 7.50000000 0 0 0
557 1 1 0 11.07897067 138.62775289 7.50000000 0 0 0
558 1 1 0 10.35356188 137.40938208 7.50000000 0 0 0
559 1 1 0 11.04599755 136.17197424 7.50000000 0 0 0
560 1 1 0 10.32058875 134.95360343 7.50000000 0 0 0
561 1 1 0 11.01302442 133.71619559 7.50000000 0 0 0
562 1 1 0 10.28761563 132.49782478 7.50000000 0 0 0
563 1 1 0 10.98005129 131.26041694 7.50000000 0 0 0
564 1 1 0 10.25464250 130.04204614 7.50000000 0 0 0
565 1 1 0 10.94707817 128.80463829 7.50000000 0 0 0
566 1 1 0 10.22166937 127.58626749 7.50000000 0 0 0
567 1 1 0 10.91410504 126.34885964 7.50000000 0 0 0
568 1 1 0 10.18869625 125.13048884 7.50000000 0 0 0
569 1 1 0 10.88113191 123.89308099 7.50000000 0 0 0
570 1 1 0 10.15572312 122.67471019 7.50000000 0 0 0
571 1 1 0 10.84815879 121.43730234 7.50000000 0 0 0
572 1 1 0 10.12274999 120.21893154 7.50000000 0 0 0
573 1 1 0 10.81518566 118.98152369 7.50000000 0 0 0
574 1 1 0 10.08977686 117.76315289 7.50000000 0 0 0
575 1 1 0 10.78221253 116.52574504 7.50000000 0 0 0
576 1 1 0 10.05680374 115.30737424 7.50000000 0 0 0
577 1 1 0 10.74923941 114.06996640 7.50000000 0 0 0
578 1 1 0 10.02383061 112.85159559 7.50000000 0 0 0
579 1 1 0 10.71626628 111.61418775 7.50000000 0 0 0
580 1 1 0 9.99085748 110.39581694 7.50000000 0 0 0
581 1 1 0 10.68329315 109.15840910 7.50000000 0 0 0
582 1 1 0 9.95788436 107.94003829 7.50000000 0 0 0
583 1 1 0 10.65032003 106.70263045 7.50000000 0 0 0
584 1 1 0 9.92491123 105.48425965 7.50000000 0 0 0
585 1 1 0 10.61734690 104.24685180 7.50000000 0 0 0
586 1 1 0 9.89193810 103.02848100 7.50000000 0 0 0
587 1 1 0 10.58437377 101.79107315 7.50000000 0 0 0
588 1 1 0 9.85896498 100.57270235 7.50000000 0 0 0
589 1 1 0 10.55140065 99.33529450 7.50000000 0 0 0
590 1 1 0 9.82599185 98.11692370 7.50000000 0 0 0
591 1 1 0 10.51842752 96.87951585 7.50000000 0 0 0
592 1 1 0 9.79301872 95.66114505 7.50000000 0 0 0
593 1 1 0 10.48545439 94.42373720 7.50000000 0 0 0
594 1 1 0 9.76004560 93.20536640 7.50000000 0 0 0