ITEM: TIMESTEP
0
ITEM: NUMBER OF ATOMS
11096
ITEM: BOX BOUNDS pp pp pp
0.0000000000000000e+00 9.1598251099999999e+01
0.0000000000000000e+00 1.5865282500000001e+02
0.0000000000000000e+00 1.8399999600000001e+01
ITEM: ATOMS id type x y z c_csym c_2[1] c_2[2] c_2[3] c_2[4] c_2[5] c_2[6] c_3 
1 1 0 0 7.5 6.04911 5175.53 5171.54 -158761 31.4262 -0.0701336 0.0957478 -7.40754 
2 1 2.14632 1.20105 7.5 6.04916 4030.97 6591.22 -157951 -2341.52 3861.38 -6865.78 -7.40758 
3 1 3.56619 1.18198 7.5 6.04918 6557.35 3950.43 -157066 4066.41 3181.55 -10508.8 -7.40764 
4 1 6.40593 1.14386 7.5 6.04918 4235.09 5530.69 -153166 -6753.52 5048.75 -19475.3 -7.40787 
5 1 7.82581 1.12479 7.5 6.04918 6442.86 3268.53 -151559 8500.01 775.739 -21409.6 -7.40797 
44 1 0.0330203 2.45929 7.5 6.04912 2287.71 7877.2 -158022 -111.907 7353.73 -71.1776 -7.40758 
45 1 1.45289 2.44023 7.5 6.04915 7853.72 2623.45 -157731 1780.34 7730.23 -4167.52 -7.40759 
46 1 2.17934 3.66034 7.5 6.04915 1047.6 9239.22 -156451 -2346.03 10734.2 -7257.22 -7.40767 
47 1 3.59921 3.64127 7.5 6.0492 8994.75 1227.61 -155671 4358.82 11046.4 -9666.51 -7.40772 
48 1 4.29264 2.4021 7.5 6.0492 2641.33 7416.79 -155429 -4567.64 7757.44 -13818.7 -7.40773 
49 1 5.71251 2.38303 7.5 6.0492 7765 2343 -154480 6580.29 5998.29 -15628.2 -7.40779 
50 1 6.43895 3.60315 7.5 6.0492 1209.21 7973.01 -151123 -6494.99 11495.6 -20508.4 -7.40799 
51 1 7.85883 3.58408 7.5 6.0492 8933.96 861.588 -151085 8934.1 8181.67 -19570.7 -7.408 
52 1 8.55225 2.3449 7.5 6.0492 2822.9 5841.51 -148093 -8582.39 9291.86 -25523.6 -7.40817 
130 1 0.0660406 4.91858 7.5 6.04912 -709.555 10600.4 -155982 -219.318 13788.8 -127.513 -7.40771 
131 1 1.48591 4.89952 7.5 6.04915 10081.4 -67.9841 -155257 1937.77 15688.6 -3852.73 -7.40774 
132 1 2.21236 6.11963 7.5 6.04915 -1952.49 11895.3 -153807 -2279.05 16523.7 -7516.51 -7.40783 
133 1 3.63223 6.10057 7.5 6.0492 11002.3 -1333.5 -152552 4557.53 18814.8 -8665.62 -7.40791 
134 1 4.32566 4.86139 7.5 6.0492 -377.37 10036.3 -153123 -4364.49 13962.5 -14410 -7.40787 
135 1 5.74553 4.84232 7.5 6.0492 10032.5 -135.704 -152637 6872.05 13687.8 -14135.5 -7.4079 
136 1 6.47198 6.06244 7.5 6.0492 -1833.51 10450.2 -148009 -6117.53 16885.7 -21200.1 -7.40818 
137 1 7.89185 6.04337 7.5 6.0492 10996.3 -1370.44 -148983 9223.14 15562.9 -17418.8 -7.40812 
138 1 8.58527 4.8042 7.5 6.0492 -250.851 8180.64 -145050 -8123.81 14924.9 -26649.3 -7.40836 
216 1 0.0990608 7.37787 7.5 6.04912 -3650.97 13221.2 -152958 -317.78 18994.4 -175.797 -7.40789 
217 1 1.51893 7.35881 7.5 6.04915 11822 -2650.73 -151008 2066.22 23342 -3479.73 -7.408 
218 1 2.24538 8.57892 7.5 6.04915 -4817.36 14423.7 -150358 -2181.96 20984.6 -7662.94 -7.40804 
219 1 3.66525 8.55986 7.5 6.0492 12495 -3769.23 -147675 4694.36 26125.4 -7529.24 -7.4082 
220 1 4.35868 7.32068 7.5 6.0492 -3348.95 12573.7 -149865 -4109.68 18961.4 -14769.2 -7.40807 
221 1 5.77855 7.30161 7.5 6.0492 11812.9 -2498.01 -149079 7075.26 21125.6 -12416.8 -7.40812 
222 1 6.505 8.52173 7.5 6.0492 -4746.11 12827.1 -144162 -5670.41 20995.6 -21586.2 -7.40841 
223 1 7.92487 8.50266 7.5 6.0492 12538.7 -3471.63 -145195 9399.91 22580.9 -15008.3 -7.40835 
224 1 8.61829 7.26349 7.5 6.0492 -3282.14 10473.7 -141162 -7574.21 19401.2 -27375.1 -7.40859 
302 1 0.132081 9.83716 7.5 6.04912 -6377.93 15681.4 -149306 -404.85 22789.4 -226.304 -7.40811 
303 1 1.55195 9.8181 7.5 6.04915 13025.8 -5093.11 -144997 2163.34 30368.2 -3052.39 -7.40836 
306 1 4.3917 9.77997 7.5 6.0492 -6110.76 14965.1 -146007 -3805.05 22583.1 -14931.5 -7.4083 
307 1 5.81157 9.7609 7.5 6.0492 13052.2 -4718.07 -143802 7188.98 28000.1 -10517.8 -7.40843 
310 1 8.65131 9.72278 7.5 6.0492 -6111.1 12660.3 -136776 -6936.76 22572.8 -27750.4 -7.40885 
6 1 10.6656 1.08666 7.5 6.04918 4453.65 3811.62 -144368 -10491.3 7480.43 -29266.9 -7.4084 
7 1 12.0854 1.0676 7.5 6.04918 6409.24 2081.88 -142788 12065 -3048 -29258.2 -7.40849 
8 1 14.9252 1.02947 7.5 6.04918 4705.97 1674 -132788 -13214.3 10950.2 -35407.7 -7.40909 
9 1 16.345 1.01041 7.5 6.04918 6465.63 501.888 -131877 14473.8 -7876.54 -33697.2 -7.40915 
53 1 9.97212 2.32584 7.5 6.0492 7721 1590.15 -147805 10688.2 2530.21 -24685 -7.40819 
54 1 10.6986 3.54595 7.5 6.0492 1364.04 5875.33 -141298 -10038.7 13223.6 -30891.4 -7.40858 
55 1 12.1184 3.52689 7.5 6.0492 8971 151.104 -143794 12584.9 3658.03 -26672.3 -7.40843 
56 1 12.8119 2.28771 7.5 6.0492 3022.26 3660.94 -137097 -11775.3 11883.3 -33810.3 -7.40883 
57 1 14.2317 2.26865 7.5 6.0492 7768.05 460.626 -138649 13732.1 -2245.36 -30519 -7.40874 
58 1 14.9582 3.48876 7.5 6.0492 1542.38 3242.21 -128289 -12655.2 15879.3 -37521.8 -7.40936 
59 1 16.3781 3.4697 7.5 6.0492 9090.15 -877.921 -134766 15027.3 -1954.09 -30662.2 -7.40898 
60 1 17.0715 2.23052 7.5 6.0492 3260.29 1098.89 -123812 -13874.7 15357.2 -38337 -7.40963 
139 1 10.0051 4.78513 7.5 6.0492 10053.4 -473.615 -147243 11073.9 9663.66 -22249.8 -7.40823 
140 1 10.7316 6.00524 7.5 6.0492 -1748.85 8013.89 -137296 -9430.88 17946.7 -32046.9 -7.40882 
141 1 12.1515 5.98618 7.5 6.0492 11100.6 -1590.13 -143308 12930.2 10447.8 -23701.3 -7.40846 
142 1 12.8449 4.747 7.5 6.0492 -127.063 5575.16 -132892 -11152 16749 -35444.8 -7.40909 
143 1 14.2648 4.72794 7.5 6.0492 10167.7 -1072.67 -139865 14166.7 4179.89 -27468.3 -7.40867 
144 1 14.9912 5.94805 7.5 6.0492 -1659.43 4921.97 -123024 -11917.2 19819.5 -39134.7 -7.40968 
145 1 16.4111 5.92899 7.5 6.0492 11273 -2064.13 -136311 15401.8 4170.17 -27247.7 -7.40888 
146 1 17.1045 4.68981 7.5 6.0492 28.022 2496.56 -118100 -13177.7 19418.6 -40391.9 -7.40998 
225 1 10.0382 7.24442 7.5 6.0492 11895.4 -2410.35 -145070 11330.9 16655 -19484.6 -7.40836 
226 1 10.7646 8.46453 7.5 6.0492 -4740.34 10097.5 -132692 -8715.98 21459.9 -32774.3 -7.4091 
227 1 12.1845 8.44547 7.5 6.0492 12699.1 -3199.72 -141237 13136.5 17016.4 -20413.4 -7.40859 
228 1 12.8779 7.20629 7.5 6.0492 -3245.66 7486.21 -127998 -10404.6 20513.4 -36599.5 -7.40938 
229 1 14.2978 7.18723 7.5 6.0492 12067.4 -2474.81 -139599 14457.4 10599.4 -24059.4 -7.40869 
230 1 15.0242 8.40734 7.5 6.0492 -4759.44 6591.71 -117320 -11041.2 22615.7 -40280.4 -7.41002 
231 1 16.4441 8.38828 7.5 6.0492 12909.3 -3123.18 -136383 15635.1 10226.5 -23518.8 -7.40888 
232 1 17.1375 7.1491 7.5 6.0492 -3197.06 3928.19 -111866 -12336.3 22419.9 -41970.3 -7.41035 
311 1 10.0712 9.70371 7.5 6.0492 13183.6 -4205.78 -141251 11459.4 23215.1 -16460 -7.40859 
314 1 12.9109 9.66558 7.5 6.0492 -6176.05 9339.66 -122752 -9532.96 23056.1 -37323 -7.4097 
315 1 14.3308 9.64652 7.5 6.0492 13396.1 -3743.21 -137776 14606.5 16751.2 -20367.9 -7.4088 
318 1 17.1705 9.60839 7.5 6.0492 -6259.98 5346.58 -105442 -11341.3 24264.4 -43107.2 -7.41074 
10 1 19.1848 0.972278 7.5 6.04918 4995.12 -769.751 -119747 -14720.9 15155 -38032.4 -7.40988 
11 1 20.6047 0.953213 7.5 6.04918 6598.13 -1491.9 -119943 15598.4 -13239.1 -35125.5 -7.40987 
12 1 23.4444 0.915085 7.5 6.04918 5299.46 -3560.49 -106388 -14944 19724.1 -37763.4 -7.41069 
13 1 24.8643 0.89602 7.5 6.04918 6770.68 -4002.33 -107908 15436.2 -18672 -34129.1 -7.41059 
61 1 18.4914 2.21145 7.5 6.0492 7892.2 -1036.41 -128087 15512.4 -7798.52 -33221.2 -7.40938 
62 1 19.2178 3.43157 7.5 6.0492 1765.33 248.769 -113524 -14129.2 19303.7 -40471.2 -7.41025 
63 1 20.6377 3.4125 7.5 6.0492 9254.6 -2317.23 -124950 16153 -8053.59 -31926.6 -7.40957 
64 1 21.3311 2.17333 7.5 6.0492 3537.85 -1785.72 -109553 -14736.9 19429 -39533.3 -7.41049 
65 1 22.751 2.15426 7.5 6.0492 8057.95 -3006.7 -117070 15981.7 -13604.4 -33347.9 -7.41004 
66 1 23.4774 3.37438 7.5 6.0492 2029.62 -3085.76 -98274.4 -14366.1 23202.5 -40306.4 -7.41118 
67 1 24.8973 3.35531 7.5 6.0492 9414.96 -4312.95 -115114 15977.8 -14113 -31009.3 -7.41016 
68 1 25.5907 2.11613 7.5 6.0492 3829.46 -5039.21 -95413.7 -14340.2 23729.2 -38019.1 -7.41135 
69 1 27.0106 2.09707 7.5 6.0492 8219.33 -5550.07 -106349 15189 -19201.3 -31364.5 -7.41069 
147 1 18.5244 4.67075 7.5 6.0492 10335.5 -2008.85 -131401 15964.7 -2094.18 -29885.8 -7.40918 
148 1 19.2508 5.89086 7.5 6.0492 -1531.63 1404.76 -106699 -13350.3 22478.4 -42448.6 -7.41067 
149 1 20.6707 5.87179 7.5 6.0492 11453.3 -2955.39 -128754 16544.5 -2561.77 -28399.2 -7.40934 
150 1 21.3641 4.63262 7.5 6.0492 233.146 -933.911 -102093 -14034.8 22759.7 -41839.6 -7.41094 
151 1 22.784 4.61355 7.5 6.0492 10502.7 -3444.74 -122632 16437.4 -8542.81 -30007 -7.40971 
152 1 23.5104 5.83367 7.5 6.0492 -1350.21 -2462.38 -89699 -13609.4 25703.5 -42458.2 -7.41169 
153 1 24.9303 5.8146 7.5 6.0492 11584.1 -4442.23 -121244 16382.1 -9169.35 -27621.1 -7.40979 
154 1 25.6237 4.57542 7.5 6.0492 479.591 -4707.44 -86096.3 -13675.8 26445.1 -40343.5 -7.41191 
155 1 27.0436 4.55636 7.5 6.0492 10620 -5499.61 -114156 15639.8 -14677.5 -28238.2 -7.41022 
233 1 18.5574 7.13004 7.5 6.0492 12264.7 -2855.64 -133364 16280.4 3736.14 -26221.2 -7.40906 
234 1 19.2838 8.35015 7.5 6.0492 -4758.93 2583.09 -99595.5 -12415.3 24549.8 -43984.2 -7.41109 
235 1 20.7037 8.33108 7.5 6.0492 13091.8 -3477.14 -131199 16811.2 2995.14 -24594.6 -7.40919 
236 1 21.3971 7.09191 7.5 6.0492 -3102.85 -25.6794 -94264.8 -13184.2 25047 -43723.3 -7.41142 
237 1 22.817 7.07284 7.5 6.0492 12418.6 -3766.77 -126966 16779.3 -3249.82 -26389.1 -7.40945 
238 1 23.5435 8.29296 7.5 6.0492 -4707.34 -1794.7 -80987 -12696.9 27111 -44225 -7.41222 
239 1 24.9633 8.27389 7.5 6.0492 13182.9 -4462.71 -126122 16686.3 -4063.05 -24000 -7.4095 
240 1 25.6568 7.03471 7.5 6.0492 -2952.51 -4307.23 -76537.8 -12875.9 28111.5 -42312.9 -7.41249 
241 1 27.0766 7.01565 7.5 6.0492 12480.6 -5337.17 -120848 16003.4 -9849.64 -24884.4 -7.40981 
319 1 18.5904 9.58933 7.5 6.0492 13605.6 -3582.24 -133864 16463.4 9455.14 -22291.6 -7.40903 
322 1 21.4302 9.5512 7.5 6.0492 -6317.17 901.406 -86399 -12165.7 26207.7 -45200.5 -7.41189 
323 1 22.85 9.53213 7.5 6.0492 13734.6 -3978.92 -129929 17008.7 2055.61 -22540.1 -7.40927 
326 1 25.6898 9.494 7.5 6.0492 -6316.74 -3866.78 -67072.3 -11913.5 28648.7 -43929 -7.41307 
327 1 27.1097 9.47494 7.5 6.0492 13738.9 -5064.92 -126262 16277.4 -4924.74 -21333 -7.40949 
14 1 27.704 0.857892 7.5 6.04918 5578.14 -6749.18 -93629.8 -13925.4 24260.2 -35130.5 -7.41146 
15 1 29.1239 0.838828 7.5 6.04918 6939.27 -7046.67 -96521.8 14065.6 -23750.9 -31015.2 -7.41128 
16 1 31.9636 0.800699 7.5 6.04918 5790.14 -10194.7 -82273.2 -11783.5 28379.7 -30295.3 -7.41214 
17 1 33.3835 0.781635 7.5 6.04918 7073.05 -10386.1 -86483.3 11615.1 -28099.8 -25749 -7.41189 
18 1 36.2232 0.743506 7.5 6.04918 5913.41 -13472.1 -73113.4 -8698.63 31741.6 -23212.8 -7.4127 
70 1 27.737 3.31718 7.5 6.0492 2305.86 -6768.11 -83602.2 -13388.2 27189.3 -37529.2 -7.41206 
71 1 29.1569 3.29812 7.5 6.0492 9529.53 -6894.77 -105860 14579.6 -19705.6 -28179.2 -7.41072 
72 1 29.8503 2.05894 7.5 6.0492 4093.78 -8621.34 -82311.6 -12764 27857.2 -34144.7 -7.41214 
73 1 31.2702 2.03988 7.5 6.0492 8340.74 -8575.13 -96555.5 13235.8 -24196.3 -27373.2 -7.41128 
74 1 31.9967 3.25999 7.5 6.0492 2552.62 -10630.9 -70466.5 -11314.5 30861.9 -32313.1 -7.41286 
75 1 33.4165 3.24093 7.5 6.0492 9584.15 -9832.15 -97733.4 12070.5 -24476.4 -23380.9 -7.41121 
76 1 34.11 2.00175 7.5 6.0492 4292.76 -12240.3 -71117.6 -10163.7 31438.6 -27940.7 -7.41282 
77 1 35.5298 1.98268 7.5 6.0492 8414.4 -11699.4 -88322.4 10265.4 -28249 -21262.4 -7.41178 
78 1 36.2563 3.2028 7.5 6.0492 2734.65 -14229.2 -59829.5 -8337.14 33872.1 -24659.6 -7.41351 
156 1 27.7701 5.77647 7.5 6.0492 -1128.56 -6631.91 -73227.2 -12695.2 29125.7 -39605.6 -7.41269 
157 1 29.1899 5.75741 7.5 6.0492 11629.6 -6558.89 -114235 14984 -15223.8 -25125.2 -7.41021 
158 1 29.8834 4.51823 7.5 6.0492 735.113 -8744.14 -71178.7 -12167.4 30068.5 -36234.4 -7.41282 
159 1 31.3032 4.49917 7.5 6.0492 10663.6 -8087 -106458 13659.3 -20118.5 -24648.6 -7.41068 
160 1 32.0297 5.71928 7.5 6.0492 -900.959 -10900.1 -58405 -10720.8 32334.3 -34067.2 -7.4136 
161 1 33.4495 5.70022 7.5 6.0492 11595.4 -9077.13 -108120 12439.5 -20383.8 -20840.5 -7.41058 
162 1 34.143 4.46104 7.5 6.0492 958.678 -12726 -58377.7 -9669.3 33243.1 -29575.1 -7.4136 
163 1 35.5628 4.44197 7.5 6.0492 10649.3 -10835.4 -100011 10617.6 -24538.4 -19118.7 -7.41107 
164 1 36.2893 5.66209 7.5 6.0492 -707.685 -14801 -46365.1 -7883.74 34982.3 -25902.6 -7.41433 
242 1 27.8031 8.23576 7.5 6.0492 -4597.61 -6437.48 -62831.4 -11865.2 29955.4 -41358.2 -7.41333 
243 1 29.2229 8.2167 7.5 6.0492 13157.3 -6109.36 -121459 15312.6 -10516.1 -21877.1 -7.40978 
244 1 29.9164 6.97752 7.5 6.0492 -2764 -8787.6 -59907.4 -11461.9 31212.7 -38031.1 -7.41351 
245 1 31.3362 6.95846 7.5 6.0492 12441.2 -7474.68 -115348 14020.4 -15691.1 -21738.5 -7.41014 
246 1 32.0627 8.17857 7.5 6.0492 -4448.74 -11094.7 -46415.8 -10021.5 32678.7 -35555.9 -7.41433 
247 1 33.4826 8.15951 7.5 6.0492 13040.3 -8188.33 -117446 12753.2 -16026.1 -18145.1 -7.41002 
248 1 34.176 6.92033 7.5 6.0492 -2571.5 -13116.8 -45581.8 -9099.75 33963.2 -30975.1 -7.41438 
249 1 35.5959 6.90126 7.5 6.0492 12340.8 -9822.04 -110775 10926.5 -20449.4 -16836.7 -7.41042 
250 1 36.3223 8.12138 7.5 6.0492 -4297.15 -15278.9 -33046.1 -7361.41 34947.2 -26944.5 -7.41515 
330 1 29.9494 9.43681 7.5 6.0492 -6253.79 -8772.43 -48835.9 -10618.5 31206 -39530.4 -7.41418 
331 1 31.3693 9.41775 7.5 6.0492 13626 -6737.36 -123050 14311.6 -11113.3 -18662.9 -7.40968 
334 1 34.209 9.37962 7.5 6.0492 -6149.98 -13429.9 -33071.6 -8428.72 33508.3 -32138.2 -7.41515 
335 1 35.6289 9.36055 7.5 6.0492 13455.3 -8656.03 -120432 11182.7 -16175.5 -14431.9 -7.40984 
19 1 37.6431 0.724442 7.5 6.04918 7166.95 -13498 -78524 8263.61 -31398 -18264.2 -7.41237 
20 1 40.4829 0.686314 7.5 6.04918 5953.72 -15957 -66933 -4909.01 34065.1 -14033 -7.41307 
21 1 41.9027 0.667249 7.5 6.04918 7235.66 -15728.8 -73364.6 4257.06 -33399.9 -8862.1 -7.41268 
22 1 44.7425 0.629121 7.5 6.04918 5934.4 -17063.9 -64360.3 -710.078 35143 -3405.15 -7.41323 
79 1 37.6761 3.18373 7.5 6.0492 9599.41 -12622.6 -91302 8611.34 -28110.3 -16535.9 -7.41159 
80 1 38.3696 1.94456 7.5 6.0492 4408.15 -15340.2 -62713.8 -6755.43 34163.6 -19434.6 -7.41333 
81 1 39.7894 1.92549 7.5 6.0492 8460.31 -14319.8 -82308.4 6481.79 -31068.8 -13097.8 -7.41214 
82 1 40.5159 3.1456 7.5 6.0492 2834.89 -16926.2 -52632.3 -4703.93 35959.4 -14785.1 -7.41394 
83 1 41.9358 3.12654 7.5 6.0492 9617.16 -14643.2 -87127.8 4445.26 -30338.4 -7919.34 -7.41185 
84 1 42.6292 1.88736 7.5 6.0492 4444.11 -17274.6 -57901.9 -2807.81 35801.4 -9039.44 -7.41362 
85 1 44.0491 1.8683 7.5 6.0492 8508.88 -15822.5 -79102.9 2171.44 -32442.9 -3430.61 -7.41233 
86 1 44.7755 3.08841 7.5 6.0492 2854.57 -18123.6 -49624.4 -700.883 36949.2 -3408.15 -7.41413 
165 1 37.7092 5.64302 7.5 6.0492 11528.2 -11519.7 -103295 8889.72 -24331.1 -14692.3 -7.41087 
166 1 38.4026 4.40385 7.5 6.0492 1116.77 -16083.8 -48741.6 -6407.18 35667.9 -20459.8 -7.41418 
167 1 39.8225 4.38478 7.5 6.0492 10624.9 -13172.5 -95303.8 6706.55 -27634 -11705.5 -7.41135 
168 1 40.5489 5.60489 7.5 6.0492 -581.367 -17688.2 -38204.5 -4434.75 36832.2 -15408.9 -7.41483 
169 1 41.9688 5.58583 7.5 6.0492 11494.7 -13308.5 -100155 4576.5 -26768.3 -6939.51 -7.41106 
170 1 42.6622 4.34665 7.5 6.0492 1192.5 -18161.4 -43212.9 -2649.34 37142.1 -9376.52 -7.41452 
171 1 44.0821 4.32759 7.5 6.0492 10643.7 -14526.6 -92779.9 2223.13 -29158.7 -2921.9 -7.4115 
172 1 44.8085 5.5477 7.5 6.0492 -539.365 -18963.4 -34787.8 -650.042 37740.7 -3376.41 -7.41503 
251 1 37.7422 8.10231 7.5 6.0492 12902 -10253 -114304 9128.38 -20260.7 -12748 -7.4102 
252 1 38.4356 6.86314 7.5 6.0492 -2415.62 -16711 -34776.2 -6017.93 36079 -21319.9 -7.41504 
253 1 39.8555 6.84407 7.5 6.0492 12251.1 -11848.2 -107441 6902.1 -23800.4 -10241.4 -7.41062 
254 1 40.5819 8.06418 7.5 6.0492 -4184.16 -18338 -23973.3 -4133.11 36552.1 -15912.9 -7.4157 
255 1 42.0018 8.04512 7.5 6.0492 12826.7 -11785.9 -112247 4682.15 -22888.5 -5934.87 -7.41033 
256 1 42.6952 6.80594 7.5 6.0492 -2328.2 -18915 -28569.7 -2479.86 37389.8 -9636.26 -7.41542 
257 1 44.1151 6.78688 7.5 6.0492 12244 -13038 -105629 2257.58 -25460.4 -2427.48 -7.41073 
258 1 44.8415 8.00699 7.5 6.0492 -4138.66 -19679.8 -20171.9 -600.304 37381 -3322.45 -7.41593 
338 1 38.4686 9.32243 7.5 6.0492 -6043.72 -17241.6 -21160.8 -5568.24 35298.2 -22017.7 -7.41587 
339 1 39.8885 9.30336 7.5 6.0492 13316.7 -10342.9 -118530 7060.89 -19758 -8717.93 -7.40995 
342 1 42.7282 9.26523 7.5 6.0492 -5974.28 -19556.6 -14315.2 -2290.31 36439.7 -9826.97 -7.41629 
343 1 44.1481 9.24617 7.5 6.0492 13294 -11351 -117457 2272.32 -21538 -1956.12 -7.41001 
23 1 46.1624 0.610056 7.5 6.04918 7295.29 -16541.7 -71556.6 -90.4796 -33963.7 1616.81 -7.41279 
24 1 49.0021 0.571928 7.5 6.04918 5878.33 -16498.2 -65681.7 3560.83 34857.5 7547.69 -7.41315 
25 1 50.422 0.552864 7.5 6.04918 7343.35 -15742.8 -73314.3 -4419.51 -33073.2 11975.2 -7.41268 
26 1 53.2617 0.514735 7.5 6.04918 5792.32 -14386.6 -70738.5 7560.05 33197.1 17573 -7.41284 
27 1 54.6816 0.495671 7.5 6.04918 7352.41 -13557.1 -78445.9 -8373.35 -30836.9 21074.4 -7.41237 
87 1 46.1954 3.06935 7.5 6.0492 9672.03 -15390.1 -85646.5 -90.6223 -30985 1682.95 -7.41194 
88 1 46.8888 1.83017 7.5 6.0492 4416.21 -17571.1 -57207 1369.85 36201.7 2298.2 -7.41366 
89 1 48.3087 1.81111 7.5 6.0492 8574.9 -15832.2 -79066.4 -2308.57 -32276.5 6709.78 -7.41233 
90 1 49.0351 3.03122 7.5 6.0492 2803.08 -17519.8 -51149.6 3362.27 36740.8 8286.08 -7.41403 
91 1 50.455 3.01215 7.5 6.0492 9766.34 -14679 -87034.7 -4599.42 -30018 11152.5 -7.41185 
92 1 51.1484 1.77298 7.5 6.0492 4337.71 -16138.4 -60706.5 5448.21 35299.3 13304.1 -7.41345 
93 1 52.5683 1.75391 7.5 6.0492 8641.65 -14365.1 -82213.5 -6574.99 -30617.4 16138.7 -7.41214 
94 1 53.2947 2.97403 7.5 6.0492 2690.2 -15248.3 -57026.8 7174.26 35309.4 18992.3 -7.41368 
95 1 54.7146 2.95496 7.5 6.0492 9862.99 -12721.5 -91153.7 -8689.23 -27562.3 19434.5 -7.4116 
173 1 46.2284 5.52864 7.5 6.0492 11546.3 -13982.2 -99011.2 -138.437 -27484.3 1693.87 -7.41113 
174 1 46.9218 4.28946 7.5 6.0492 1184.09 -18480.9 -42405.6 1312.77 37541.8 2664.87 -7.41457 
175 1 48.3417 4.2704 7.5 6.0492 10732 -14549.2 -92716.1 -2441.46 -28989.6 6278.51 -7.41151 
176 1 49.0681 5.49051 7.5 6.0492 -583.34 -18325 -36510.8 3184.93 37621.5 8961.33 -7.41493 
177 1 50.488 5.47144 7.5 6.0492 11689 -13374.3 -99999.5 -4815.83 -26432.1 10187.5 -7.41107 
178 1 51.1814 4.23227 7.5 6.0492 1098.88 -16953.3 -46413.7 5180.82 36803.2 14341.8 -7.41432 
179 1 52.6013 4.2132 7.5 6.0492 10870.2 -13255.3 -95136.1 -6862.4 -27175.4 14805.1 -7.41136 
180 1 53.3278 5.43332 7.5 6.0492 -702.245 -15907.9 -43170.3 6787.29 36435.4 20263.8 -7.41452 
181 1 54.7476 5.41425 7.5 6.0492 11876.8 -11673.2 -103041 -9026.44 -23755.1 17586.3 -7.41088 
259 1 46.2614 7.98793 7.5 6.0492 12878.7 -12381.3 -111449 -197.26 -23662.3 1640.57 -7.41038 
260 1 46.9548 6.74875 7.5 6.0492 -2324.92 -19253.6 -27659.5 1240.86 37796.9 3009.28 -7.41547 
261 1 48.3747 6.72969 7.5 6.0492 12355.3 -13079 -105527 -2579.77 -25278.7 5742.39 -7.41073 
262 1 49.1012 7.9498 7.5 6.0492 -4171.6 -19009.1 -22085.2 2975.33 37360.2 9558.01 -7.41581 
263 1 50.521 7.93073 7.5 6.0492 13066.4 -11891.4 -112006 -5028.65 -22521.1 9075.75 -7.41034 
264 1 51.2145 6.69156 7.5 6.0492 -2403.17 -17639.8 -32153.6 4872.42 37235.6 15262.9 -7.4152 
265 1 52.6343 6.67249 7.5 6.0492 12563.2 -11980.9 -107170 -7141.94 -23306.4 13291.4 -7.41063 
266 1 53.3608 7.89261 7.5 6.0492 -4271.12 -16460.2 -29488.3 6336.68 36435.1 21369.6 -7.41536 
267 1 54.7806 7.87354 7.5 6.0492 13337.2 -10477.3 -113905 -9343.75 -19627.2 15531 -7.41023 
346 1 46.9879 9.20804 7.5 6.0492 -5966.45 -19910.2 -13310 1151.15 36857.4 3319.06 -7.41635 
347 1 48.4077 9.18898 7.5 6.0492 13428 -11415.9 -117304 -2720.03 -21338.1 5097.63 -7.41002 
350 1 51.2475 9.15085 7.5 6.0492 -6022.82 -18218.3 -18265.2 4509.53 36484.3 16051.9 -7.41605 
351 1 52.6673 9.13178 7.5 6.0492 13694.4 -10539.2 -118121 -7405.79 -19211.8 11599.5 -7.40997 
28 1 57.5213 0.457542 7.5 6.04918 5672.11 -11231.8 -78975.5 10974.4 30267.5 25722.8 -7.41234 
29 1 58.9412 0.438478 7.5 6.04918 7287.81 -10526.3 -86427.7 -11641.8 -27465.3 28208.5 -7.41189 
30 1 61.7809 0.40035 7.5 6.04918 5513.1 -7699.67 -89613.4 13547.5 26287.1 31589.9 -7.4117 
31 1 63.2008 0.381285 7.5 6.04918 7126.15 -7277.19 -96568.7 -13980 -23239.8 33186.2 -7.41128 
96 1 55.408 1.71578 7.5 6.0492 4213.64 -13315 -67996.8 9109.51 33128.1 22803.5 -7.41301 
97 1 56.8279 1.69672 7.5 6.0492 8666.24 -11817.6 -88214.6 -10276.8 -27643.2 23938.8 -7.41178 
98 1 57.5543 2.91683 7.5 6.0492 2526.52 -11822.2 -66605.5 10442.7 32728.8 27715.1 -7.4131 
99 1 58.9742 2.89777 7.5 6.0492 9903.1 -10030.3 -97605.8 -12034.9 -23864.1 25890.6 -7.41121 
100 1 59.6676 1.65859 7.5 6.0492 4048.14 -9725.67 -78322.8 12072.6 29836 30087.6 -7.41238 
101 1 61.0875 1.63953 7.5 6.0492 8603.52 -8794.49 -96513.8 -13134.9 -23620.4 29703.9 -7.41128 
102 1 61.814 2.85964 7.5 6.0492 2330.7 -7922.42 -78962.7 12912 29194.3 34003.3 -7.41235 
103 1 63.2338 2.84058 7.5 6.0492 9836.58 -7201.19 -105863 -14402.5 -19230.7 30373.9 -7.41072 
104 1 63.9273 1.6014 7.5 6.0492 3855.12 -6024.9 -90788.4 14107.6 25686.6 34978.4 -7.41163 
182 1 55.4411 4.17507 7.5 6.0492 950.669 -13921.1 -54774 8662.8 34934.1 24436.9 -7.41382 
183 1 56.8609 4.15601 7.5 6.0492 10999 -11010.5 -99808.9 -10661.7 -23924.3 21822.7 -7.41108 
184 1 57.5874 5.37612 7.5 6.0492 -872.653 -12229.3 -54024.8 9883.64 34223.9 29495.6 -7.41386 
185 1 59.0072 5.35706 7.5 6.0492 12030.7 -9348.44 -107877 -12428.4 -19737.8 23319.2 -7.41059 
186 1 59.7007 4.11788 7.5 6.0492 761.506 -10019.6 -66611 11489.1 32051.5 32195.3 -7.4131 
187 1 61.1205 4.09882 7.5 6.0492 11047.7 -8379.64 -106333 -13558 -19538.7 26976 -7.41069 
188 1 61.847 5.31893 7.5 6.0492 -1058.9 -7975.52 -68011.8 12221.6 31158.8 36151.7 -7.41301 
189 1 63.2669 5.29987 7.5 6.0492 12074.5 -6955.26 -114151 -14797.7 -14716.6 27267.2 -7.41022 
190 1 63.9603 4.06069 7.5 6.0492 565.984 -5914.54 -80873 13424 28409.2 37388.9 -7.41223 
268 1 55.4741 6.63436 7.5 6.0492 -2542.83 -14417.1 -41531.9 8147.35 35687.2 25878.6 -7.41463 
269 1 56.8939 6.6153 7.5 6.0492 12795 -10069.5 -110436 -11021.7 -19783.5 19475.3 -7.41044 
270 1 57.6204 7.83541 7.5 6.0492 -4405.47 -12547.4 -41552.6 9228.21 34614.7 31043.8 -7.41463 
271 1 59.0403 7.81635 7.5 6.0492 13597.7 -8548.39 -117037 -12783.3 -15304.4 20503.5 -7.41004 
272 1 59.7337 6.57717 7.5 6.0492 -2708.39 -10219.3 -54802.4 10806.6 33237.1 34053.8 -7.41382 
273 1 61.1536 6.55811 7.5 6.0492 12958.7 -7855.92 -115092 -13933.8 -15051.2 23981.1 -7.41016 
274 1 61.88 7.77822 7.5 6.0492 -4528.99 -7955.24 -57078.5 11404 32044.2 38014 -7.41368 
275 1 63.2999 7.75916 7.5 6.0492 13750.8 -6608.65 -121230 -15131.2 -9922.36 23887.4 -7.40979 
276 1 63.9933 6.51998 7.5 6.0492 -2854.23 -5720.16 -70759.2 12614.3 30125.4 39496.3 -7.41285 
354 1 55.5071 9.09365 7.5 6.0492 -6118.32 -14821.8 -28606.4 7540.6 35275.9 27109.5 -7.41542 
355 1 56.927 9.07459 7.5 6.0492 14014.4 -8993.44 -119906 -11347.8 -15430.3 16905.6 -7.40987 
358 1 59.7667 9.03646 7.5 6.0492 -6210.46 -10346.3 -43229 9998.79 33284.3 35641.8 -7.41452 
359 1 61.1866 9.0174 7.5 6.0492 14281.2 -7223.2 -122603 -14256.1 -10374.9 20738.3 -7.40971 
362 1 64.0263 8.97927 7.5 6.0492 -6251.02 -5467.36 -60774.3 11653.1 30728.5 41281.2 -7.41345 
32 1 66.0406 0.343157 7.5 6.04918 5329.05 -4355.67 -101834 15082.2 21568.1 35191 -7.41096 
33 1 67.4604 0.324092 7.5 6.04918 6874.64 -4271.12 -108154 -15207.9 -18489.8 36069.7 -7.41058 
34 1 70.3002 0.285964 7.5 6.04918 5153.98 -1496.88 -114858 15435.4 16490 36583.1 -7.41017 
35 1 71.7201 0.2669 7.5 6.04918 6568.62 -1684.05 -120468 -15199.8 -13581.8 36763.8 -7.40984 
105 1 65.3471 1.58233 7.5 6.0492 8430.58 -5852.57 -106479 -14947.2 -18861.7 33437.9 -7.41068 
106 1 66.0736 2.80245 7.5 6.0492 2136.12 -4130.82 -93117.7 14373.8 25023.8 37834.2 -7.41149 
107 1 67.4935 2.78338 7.5 6.0492 9646.88 -4680.6 -115376 -15632 -13986.8 32973.9 -7.41014 
108 1 68.1869 1.54421 7.5 6.0492 3668.59 -2664.75 -104513 15038.6 21038.5 37551.5 -7.4108 
109 1 69.6068 1.52514 7.5 6.0492 8162.72 -3308.45 -117483 -15569.8 -13706.9 35185.3 -7.41002 
110 1 70.3332 2.74525 7.5 6.0492 1986.78 -760.066 -108132 14677.3 20620.3 39237.4 -7.41058 
111 1 71.7531 2.72619 7.5 6.0492 9357.52 -2632.13 -125584 -15612.1 -8475.22 33619.4 -7.40953 
112 1 72.4465 1.48701 7.5 6.0492 3531.73 197.151 -118645 14748.3 16303.9 37726.8 -7.40995 
191 1 65.3802 4.04162 7.5 6.0492 10967.2 -5895.74 -114248 -15368.5 -14344.7 30293.7 -7.41021 
192 1 66.1066 5.26174 7.5 6.0492 -1216.08 -3741.93 -83986.9 13585.7 27560.5 40153.7 -7.41204 
193 1 67.5265 5.24267 7.5 6.0492 11967.3 -4919.23 -121481 -15999.7 -9016.61 29530.7 -7.40978 
194 1 68.2199 4.0035 7.5 6.0492 408.263 -2072.55 -96515.8 14282.4 24382.2 40052 -7.41128 
195 1 69.6398 3.98443 7.5 6.0492 10751.4 -3863.1 -123084 -15971.5 -8666.05 31840.1 -7.40968 
196 1 70.3662 5.20454 7.5 6.0492 -1299.7 135.669 -100848 13824 23849.9 41498.5 -7.41102 
197 1 71.7861 5.18548 7.5 6.0492 11715.7 -3402.19 -129458 -15942.8 -2960.28 30064 -7.4093 
198 1 72.4795 3.9463 7.5 6.0492 330.222 1319.54 -112530 13950.3 20399.4 40089.3 -7.41031 
277 1 65.4132 6.50091 7.5 6.0492 12980.6 -5837.34 -120852 -15714.8 -9454.38 26843.7 -7.40981 
278 1 66.1396 7.72103 7.5 6.0492 -4594.24 -3289.2 -74757.5 12649.1 29038.1 42131.7 -7.4126 
279 1 67.5595 7.70196 7.5 6.0492 13732.9 -5059.66 -126277 -16278.7 -3814.75 25777.7 -7.40949 
280 1 68.2529 6.46279 7.5 6.0492 -2934.15 -1404.01 -88190.6 13382.9 26736.2 42186.8 -7.41179 
281 1 69.6728 6.44372 7.5 6.0492 12832.8 -4310.82 -127409 -16270.1 -3307.65 28136.9 -7.40942 
282 1 70.3992 7.66383 7.5 6.0492 -4565.66 1082.75 -93320 12816.2 26023.9 43357 -7.41148 
283 1 71.8191 7.64477 7.5 6.0492 13533.2 -4064.79 -131916 -16160.1 2708.09 26153.4 -7.40915 
284 1 72.5125 6.40559 7.5 6.0492 -2915.66 2507.26 -105928 13006.3 23506.6 42021.3 -7.41071 
363 1 65.4462 8.96021 7.5 6.0492 14401.8 -5680.9 -126117 -15984.9 -4415.75 23122.4 -7.4095 
366 1 68.2859 8.92208 7.5 6.0492 -6201.4 -691.561 -79860.8 12320.2 27988.7 43944.9 -7.41229 
367 1 69.7058 8.90301 7.5 6.0492 14328.5 -4656.43 -130301 -16467.9 2131 24130.8 -7.40925 
370 1 72.5456 8.86488 7.5 6.0492 -6046.73 3716.95 -99158.9 11906.5 25496.9 43525.1 -7.41112 
36 1 74.5598 0.228771 7.5 6.04918 5031.49 850.463 -127879 14521.7 11471.4 35512.8 -7.40939 
37 1 75.9797 0.209707 7.5 6.04918 6253.25 530.526 -132695 -13893.3 -8912.63 34794 -7.4091 
38 1 78.8194 0.171578 7.5 6.04918 4993.91 2768.71 -139936 12337.2 6942.14 31409.7 -7.40866 
39 1 80.2393 0.152514 7.5 6.04918 5962.64 2456.8 -143802 -11323.2 -4891.41 29507.9 -7.40843 
113 1 73.8664 1.46795 7.5 6.0492 7840.52 -1199.6 -128850 -14907.9 -8528.88 34675.5 -7.40933 
114 1 74.5928 2.68806 7.5 6.0492 1920.56 2133.09 -123052 13745 16404.8 37951.8 -7.40968 
115 1 76.0127 2.669 7.5 6.0492 9015.11 -983.678 -135817 -14275.1 -3088.46 31860.8 -7.40891 
116 1 76.7061 1.42982 7.5 6.0492 3480.53 2596.22 -132240 13195.4 11898.6 35062.6 -7.40913 
117 1 78.126 1.41076 7.5 6.0492 7511.07 585.163 -139740 -12933.7 -3745.99 31297.7 -7.40868 
118 1 78.8524 2.63087 7.5 6.0492 1956.34 4583.9 -136776 11598.2 12746.1 33423.8 -7.40885 
119 1 80.2723 2.6118 7.5 6.0492 8670.26 396.509 -145195 -11633.3 1707.14 27059.8 -7.40835 
120 1 80.9657 1.37263 7.5 6.0492 3526.42 4566.46 -144162 10445.3 8196.42 28975.8 -7.40841 
121 1 82.3856 1.35356 7.5 6.0492 7207.75 2108.74 -149079 -9732.55 190.479 24503.7 -7.40812 
199 1 73.8994 3.92724 7.5 6.0492 10433.9 -2308.87 -132315 -15280.9 -2856.02 31376.9 -7.40912 
200 1 74.6258 5.14735 7.5 6.0492 -1281.32 3561.86 -117493 12873.6 20445.2 39937 -7.41001 
201 1 76.0457 5.12829 7.5 6.0492 11365.4 -2319.68 -137560 -14562.4 3065.45 28469.8 -7.40881 
202 1 76.7391 3.88911 7.5 6.0492 355.604 4255.82 -127833 12406.9 16849.5 37079.6 -7.40939 
203 1 78.159 3.87005 7.5 6.0492 10069.4 -1091.81 -141251 -13257.7 2647.24 28334.9 -7.40859 
204 1 78.8855 5.09016 7.5 6.0492 -1160.52 6517.27 -132692 10782.7 17653.4 34972 -7.4091 
205 1 80.3053 5.07109 7.5 6.0492 10979.1 -1494.77 -145070 -11857.8 8546.66 24165.9 -7.40836 
206 1 80.9987 3.83192 7.5 6.0492 478.476 6713.26 -141162 9745.03 14006.9 30489.5 -7.40859 
207 1 82.4186 3.81285 7.5 6.0492 9711.63 -84.6605 -148983 -9967.23 7303.7 22187.3 -7.40812 
285 1 73.9324 6.38653 7.5 6.0492 12537.9 -3303.45 -134382 -15529.8 3051.54 27668.2 -7.409 
286 1 74.6589 7.60664 7.5 6.0492 -4431.87 5018.49 -111514 11859.2 23408.8 41470.1 -7.41037 
287 1 76.0787 7.58758 7.5 6.0492 13191.4 -3539.28 -137776 -14722.5 9263.46 24690.9 -7.4088 
288 1 76.7722 6.3484 7.5 6.0492 -2792.23 5955.84 -122752 11486.7 20794.6 38628.7 -7.4097 
289 1 78.192 6.32934 7.5 6.0492 12154 -2653.81 -141237 -13453.2 9170.35 24943.3 -7.40859 
290 1 78.9185 7.54945 7.5 6.0492 -4211.23 8442.56 -127998 9851.06 21439.4 36064.8 -7.40938 
291 1 80.3383 7.53039 7.5 6.0492 12779.2 -3268.92 -143308 -11961.3 15302 20898.7 -7.40846 
292 1 81.0318 6.29121 7.5 6.0492 -2587.43 8862.36 -137296 8942.63 18780.1 31565.7 -7.40882 
371 1 73.9654 8.84582 7.5 6.0492 14070.4 -4184.79 -134921 -15658 8936.1 23624.1 -7.40897 
374 1 76.8052 8.80769 7.5 6.0492 -5801.56 7643.07 -117321 10435.7 23576 39726 -7.41002 
375 1 78.225 8.78863 7.5 6.0492 13685.1 -4092.13 -139599 -13523.3 15536.4 21209 -7.40869 
378 1 81.0648 8.7505 7.5 6.0492 -5505.66 10953.2 -132892 8046.5 22321.6 32227.4 -7.40909 
40 1 83.079 0.114385 7.5 6.04918 5048.3 4264.68 -149865 8997.38 3309.73 23805.9 -7.40807 
41 1 84.4989 0.0953212 7.5 6.04918 5708.27 4046.51 -152552 -7657.03 -1902.81 20627.1 -7.40791 
42 1 87.3386 0.0571927 7.5 6.04918 5177.75 5207.11 -156451 4766.38 917.85 12924.8 -7.40767 
43 1 88.7585 0.0381284 7.5 6.04916 5485.01 5106.55 -157731 -3213.78 -255.789 8778.45 -7.4076 
122 1 83.112 2.57368 7.5 6.0492 2080.98 6535.51 -148009 8377.7 9916.98 25223.5 -7.40818 
123 1 84.5319 2.55461 7.5 6.0492 8357.66 1537.77 -152637 -7836.57 5397.8 18921.8 -7.4079 
124 1 85.2253 1.31543 7.5 6.0492 3653.01 6008.3 -153123 6694.06 5498.2 19296.9 -7.40787 
125 1 86.6452 1.29637 7.5 6.0492 6943.88 3281.06 -155672 -5543.61 2848.19 14399.8 -7.40772 
126 1 87.3717 2.51648 7.5 6.0492 2259.34 7786.88 -155429 4349.83 8088.65 13627.5 -7.40773 
127 1 88.7915 2.49742 7.5 6.04915 8095.45 2326.27 -157066 -3207.42 7510.13 8009.64 -7.40764 