ITEM: TIMESTEP
102
ITEM: NUMBER OF ATOMS
11096
ITEM: BOX BOUNDS pp pp pp
0.0000000000000000e+00 9.1598251099999999e+01
0.0000000000000000e+00 1.5865282500000001e+02
0.0000000000000000e+00 1.8399999600000001e+01
ITEM: ATOMS id type x y z c_csym c_2[1] c_2[2] c_2[3] c_2[4] c_2[5] c_2[6] c_3 
1 1 1.86362e-06 -3.79611e-07 7.34016 6.04818 -3840.02 -3900.79 -53.581 28.9732 -0.0417563 0.0606881 -7.41134 
2 1 2.15222 1.19009 7.34121 6.04638 -5918.28 -1673.92 -2.80069 -933.508 2151.78 -3983.98 -7.41138 
3 1 3.57189 1.16403 7.34258 6.04357 -4816.9 -2948.97 -136.973 5352.46 1573.52 -5832.58 -7.41141 
4 1 6.41101 1.1124 7.34713 6.04132 -7787.51 278.066 362.245 4089.02 3044.76 -11025.3 -7.41159 
5 1 7.83067 1.08745 7.35014 6.03931 -6539.99 -789.821 -472.711 18863.8 -462.08 -11486.1 -7.41161 
44 1 0.0454617 2.45895 7.34121 6.04522 -5806.34 -1954.06 -79.1773 -1405.13 4090.81 -100.515 -7.41138 
45 1 1.46513 2.4327 7.34156 6.04519 -3527.44 -4074.51 -39.1466 253.44 4384.68 -2348.4 -7.41139 
46 1 2.19743 3.6492 7.34326 6.04328 -10326.8 2704.37 -12.0429 -3647.74 5835.12 -4348.21 -7.41144 
47 1 3.61708 3.62316 7.34457 6.04169 -7012.49 -705.171 -240.211 2643.68 6116.91 -5206.65 -7.41147 
48 1 4.3042 2.38055 7.34425 6.04448 -10444 2563.93 290.358 -429.206 4323.98 -8050.43 -7.41149 
49 1 5.72384 2.35495 7.34649 6.04082 -7991.73 498.728 -538.983 10295.8 2899.6 -8398.29 -7.4115 
50 1 6.45573 3.57175 7.34897 6.04273 -16417.5 8901.82 1011.62 1436.47 6378.91 -11924.6 -7.41169 
51 1 7.87535 3.54681 7.35186 6.03771 -12702.9 5623.65 -1451.53 16086.1 3772.38 -10123.7 -7.4116 
52 1 8.56259 2.30429 7.35245 6.0392 -13815 6195.15 1253.26 8429.84 5518.95 -14425.3 -7.41182 
130 1 0.0904717 4.91796 7.34425 6.04215 -7629.47 137.747 -309.478 -5496.06 7437.38 -180.369 -7.41145 
131 1 1.51014 4.89172 7.34458 6.04331 -3329.67 -4214.14 209.108 -3818.83 8991.13 -2157.09 -7.4115 
132 1 2.24198 6.10848 7.34712 6.04065 -14475.7 6926.46 -334.592 -8855.18 8671.96 -4602.07 -7.41153 
133 1 3.66162 6.08247 7.34835 6.0392 -9160.4 1522.02 -9.65738 -2689.94 10597.9 -4476.68 -7.4116 
134 1 4.34894 4.83994 7.34713 6.04158 -16747.2 9140.55 403.408 -4408.76 7466.41 -8585.1 -7.41159 
135 1 5.76856 4.81435 7.34925 6.03819 -12108 4891.84 -866.893 6165 7337.5 -7287.85 -7.41156 
136 1 6.49983 6.03151 7.35245 6.03928 -24649 17193.3 1334.33 -3816.55 8897.87 -12565.9 -7.41181 
137 1 7.91942 6.00656 7.35516 6.03394 -18785.9 11913.9 -2089.13 10493.4 8034.25 -8575.13 -7.41166 
138 1 8.60668 4.76399 7.35493 6.03941 -23838.1 16353.8 2303.47 4392.25 8234.59 -15420.4 -7.41196 
216 1 0.134623 7.377 7.34895 6.03892 -9443.31 2119.84 -959.575 -11808 9856.95 -254.305 -7.41154 
217 1 1.5543 7.35082 7.34926 6.04152 -3376.16 -4194.56 881.962 -10075 13373.1 -1928.85 -7.41169 
218 1 2.2855 8.56791 7.35243 6.03843 -18154.6 11040.1 -1167.27 -16026.6 10564.8 -4773.34 -7.41163 
219 1 3.70515 8.54198 7.35355 6.03645 -11274.3 3764.48 727.749 -10045.6 14761.4 -3662.45 -7.41181 
220 1 4.39285 7.2996 7.35158 6.03908 -22848.5 15349.6 93.0938 -10686.1 9713.08 -8942.1 -7.4117 
221 1 5.81245 7.27404 7.35354 6.03456 -16333.7 9166.63 -762.358 -450.953 11614.4 -6039.42 -7.4117 
222 1 6.54294 8.49164 7.35725 6.03612 -32224 25121.1 1124.38 -11240.5 10523.9 -12990.9 -7.41194 
223 1 7.96251 8.46671 7.35972 6.0298 -24615.9 18021.1 -2188.99 2572.14 12081.8 -6885.35 -7.41179 
224 1 8.64997 7.22418 7.35879 6.03515 -33410.6 26074.4 2901.76 -2153.65 10100 -16140.5 -7.41212 
302 1 0.177582 9.83609 7.35489 6.03554 -10841.1 4186.18 -2199.1 -19842.2 11328.2 -334.438 -7.41164 
303 1 1.59727 9.81 7.35519 6.03971 -3508.72 -3929.95 2124.66 -18106.9 17328.7 -1659.85 -7.41196 
306 1 4.43558 9.75953 7.35723 6.03695 -28261.4 21367.6 -815.716 -18788.3 11049.7 -9161.02 -7.4118 
307 1 5.85518 9.73404 7.35898 6.03125 -20361.7 13470.7 -64.5844 -8988.49 15531.1 -4691.35 -7.41192 
310 1 8.69215 9.68483 7.3637 6.03127 -42090.9 35341.4 2859.19 -10686.2 11113.8 -16627.3 -7.41226 
6 1 10.6697 1.03785 7.35724 6.03385 -8894.55 1612.18 926.856 16307.5 4940.14 -16020.6 -7.41194 
7 1 12.0894 1.01471 7.36112 6.03528 -7411.78 999.511 -1012.99 37482.3 -3506.05 -15149.3 -7.41191 
8 1 14.9284 0.96793 7.36926 6.02566 -9490.9 2676.31 1537.12 33793.3 7601.04 -18773 -7.41236 
9 1 16.3481 0.947044 7.37332 6.02804 -8053.22 2188.12 -1648.82 58867.9 -7081.79 -16995.3 -7.41224 
53 1 9.98222 2.28017 7.35594 6.03745 -11164.5 4117.06 -1554.91 26660.9 99.1492 -12785.7 -7.41171 
54 1 10.7136 3.49738 7.35878 6.03729 -20699.8 13255.7 2770.55 13624.7 7796.37 -17385.4 -7.41212 
55 1 12.1332 3.47423 7.36252 6.03515 -16477.4 10484.8 -3339.11 34650.3 311.918 -13344.7 -7.41179 
56 1 12.8208 2.23196 7.36367 6.03143 -15609.5 8678.85 2554.26 23559 7598.26 -18466.9 -7.41226 
57 1 14.2404 2.20991 7.36765 6.0336 -12782.1 6843.29 -2913.58 46973.7 -3488.84 -15335.3 -7.41198 
58 1 14.9713 3.42759 7.37049 6.0294 -23116.8 15876.9 4918.93 31075.8 10018.9 -20454.9 -7.41264 
59 1 16.3909 3.40666 7.3744 6.03243 -18597.5 13324.7 -5584.72 56024 -3650.43 -15015.2 -7.412 
60 1 17.079 2.16476 7.37579 6.02319 -16524.4 9796.06 3964.95 42915.4 10327.8 -20341.8 -7.41274 
139 1 10.0263 4.73986 7.35825 6.03459 -18717.1 12199.4 -3014.87 22382.5 4204.87 -11061.8 -7.41168 
140 1 10.7569 5.9575 7.36169 6.03555 -31925.5 24633.2 4262.7 8159.43 9862.04 -18449.1 -7.41231 
141 1 12.1765 5.9343 7.36521 6.0309 -25257.5 19807.1 -5304.46 28790.7 4272.78 -11350.8 -7.41173 
142 1 12.864 4.69189 7.3657 6.03451 -28299.9 21162.5 4988.52 19330.5 9842.84 -19867.6 -7.41249 
143 1 14.2835 4.66978 7.36949 6.03297 -22658 17228.5 -5871.8 42516.6 253.941 -13324.5 -7.41183 
144 1 15.0136 5.88793 7.37286 6.03124 -36111.4 28792.8 7931.26 25298.8 11645.8 -21877.9 -7.41292 
145 1 16.4331 5.86689 7.37654 6.03 -28817.4 24294.9 -9141.45 49844.3 18.9815 -12884 -7.41182 
146 1 17.1211 4.62481 7.37742 6.02637 -30282.8 23204.9 8024.67 38502.6 12180.2 -21995.7 -7.41307 
225 1 10.0695 7.20002 7.36186 6.02974 -26159.5 20099.5 -4013.68 15326.9 8270.07 -9163.84 -7.41173 
226 1 10.7993 8.41817 7.36573 6.03077 -42344 35467.2 5178.25 289.012 11080.7 -19242.4 -7.4125 
227 1 12.2188 8.3949 7.36897 6.02582 -33677.6 28826.4 -6682.44 20316 8150.27 -9207.72 -7.41176 
228 1 12.9064 7.15245 7.36887 6.03163 -40292.7 33173.1 6936.82 12434.8 11260.4 -20990.5 -7.41272 
229 1 14.3259 7.13024 7.37241 6.02745 -32267.2 27387.1 -8333.78 35049.3 4075.98 -11156.5 -7.41175 
230 1 15.055 8.34892 7.37615 6.02777 -48216.9 41237 10325 16882 12433.8 -23049.9 -7.41319 
231 1 16.4745 8.32774 7.37957 6.02441 -38623.6 35119.5 -12065.2 40882.4 3712.14 -10621.8 -7.41172 
232 1 17.1624 7.08555 7.38 6.02766 -43546.2 36190.3 11577.7 31124.1 13194.5 -23425.3 -7.4134 
311 1 10.1117 9.66066 7.36648 6.02531 -33204.1 27754.8 -4363.9 6063.98 12098.2 -7139.52 -7.41185 
314 1 12.9477 9.6136 7.37293 6.02647 -51177.8 44697.8 8185.69 3304.12 11857.2 -21854.6 -7.41293 
315 1 14.3672 9.59128 7.37617 6.02224 -41274.3 37395.1 -10080.8 25116 7782.49 -8862.65 -7.41175 
318 1 17.2028 9.54696 7.38331 6.02424 -55722.4 48850 14380.9 21320.4 13373.4 -24623.7 -7.4137 
10 1 19.1872 0.903514 7.38132 6.01737 -9028.19 3354.79 2106.01 54594.6 10690.9 -19681.8 -7.41277 
11 1 20.6069 0.885065 7.38509 6.01946 -7551.1 3244.8 -2249 81165.8 -10737.2 -17411.5 -7.41255 
12 1 23.4462 0.844916 7.39225 6.00958 -8875.56 3651.44 2577.68 77090 13832 -19098.8 -7.41313 
13 1 24.8658 0.8289 7.39548 6.01097 -7603.4 3534.43 -2723.06 102865 -14110.7 -16597 -7.41284 
61 1 18.4986 2.14507 7.37967 6.0259 -13399.6 8527.94 -4377.24 69019.8 -7338.64 -16386.3 -7.41224 
62 1 19.2289 3.36323 7.3823 6.02108 -23315.4 16855.3 7151.53 51819.2 12778.6 -21479.8 -7.41316 
63 1 20.6485 3.34471 7.38591 6.0241 -18532.8 14742.2 -7848.81 78328.5 -7612.67 -15451.8 -7.4122 
64 1 21.3373 2.10326 7.3873 6.01503 -15932.1 10240 5315.75 64798.1 13353.1 -20473 -7.41318 
65 1 22.7569 2.08601 7.39074 6.0173 -12897.4 9081.68 -5731.94 91218.9 -11031.8 -16218.3 -7.41249 
66 1 23.4868 3.30464 7.39304 6.01308 -22758.3 16319 9213.01 74250.7 15685.9 -20816.2 -7.41362 
67 1 24.9064 3.28854 7.39609 6.01553 -18053.1 14375 -9857.88 100041 -11226.7 -14800.9 -7.41238 
68 1 25.5958 2.04755 7.39734 6.00748 -15495.2 9594.68 6462.55 87492.1 16292.4 -19126.5 -7.41355 
69 1 27.0154 2.03267 7.40015 6.009 -12465.3 8769.35 -6829.81 112172 -14269.1 -14926.4 -7.4127 
147 1 18.5406 4.60502 7.38112 6.03109 -24114 19908.5 -8993.73 64419.5 -3906.67 -14329.1 -7.41197 
148 1 19.2701 5.82365 7.38422 6.02344 -37068.8 30027.2 11826 45716.2 14056.4 -23088.7 -7.41355 
149 1 20.6897 5.80499 7.38762 6.02863 -29271.7 26099.9 -13065.4 71928.4 -4191.4 -13379.3 -7.4119 
150 1 21.3782 4.56333 7.38863 6.01821 -29763.1 23341.8 11028.8 60214.3 14918.1 -22175 -7.41362 
151 1 22.7978 4.54596 7.39188 6.02261 -23457.7 20305.8 -11970.9 86528.9 -7849.96 -14275.8 -7.41211 
152 1 23.5269 5.76503 7.39463 6.01545 -36086.5 28775 15490.7 67847.4 16710.8 -22404.2 -7.41412 
153 1 24.9464 5.74875 7.39748 6.02082 -28174.6 25194.4 -16621.6 93491.3 -8017.67 -12918.1 -7.41197 
154 1 25.6357 4.50758 7.39843 6.0105 -28417.6 21484 13677.2 82740.5 17654 -20691 -7.41409 
155 1 27.0552 4.49255 7.40106 6.01416 -21982.8 19004.4 -14494.4 107397 -11296.4 -13216.4 -7.41222 
233 1 18.5819 7.0656 7.38346 6.02745 -34690.2 31113.6 -13090.7 56610.3 -312.099 -12146.9 -7.41177 
234 1 19.3105 8.28476 7.38692 6.02439 -49982.4 42888.8 15858.9 36730 14469.2 -24499.9 -7.41392 
235 1 20.73 8.26588 7.39008 6.02532 -39641.3 37366 -17625.7 62442.7 -680.777 -11198.6 -7.41168 
236 1 21.4185 7.0241 7.39075 6.02085 -43189.1 36098.5 16235.2 52364.2 15618.2 -23716 -7.41406 
237 1 22.838 7.00652 7.39379 6.02643 -33954.4 31481.6 -17690.3 78393.7 -4459.94 -12234.7 -7.41179 
238 1 23.5662 8.22611 7.39689 6.01868 -48617.9 41009.6 21128.9 58286.6 16836.2 -23849.7 -7.41459 
239 1 24.9857 8.20955 7.39952 6.02435 -37879 36039.5 -22734.6 83620.4 -4686.47 -10945.2 -7.41164 
240 1 25.6749 6.96826 7.40023 6.01312 -40902 33193.6 20403.4 74476.6 18129 -22145.7 -7.41463 
241 1 27.0944 6.95299 7.40265 6.01887 -31366.2 29252.4 -21658.7 98968.8 -8096.06 -11427.4 -7.4118 
319 1 18.6223 9.5268 7.3865 6.02191 -44769 42259.9 -16421.5 46055.7 3251.78 -9852.08 -7.41165 
322 1 21.4578 9.48555 7.39349 6.02158 -55638.9 48613.2 20667.5 41791.3 15442.7 -25075.5 -7.41446 
323 1 22.8773 9.4677 7.39629 6.02378 -43958.4 42687.1 -22622.9 67305.3 -1052.93 -10095.4 -7.41155 
326 1 25.7132 9.42958 7.40256 6.01692 -52524.5 44757.4 26362.6 63265 17689 -23469.4 -7.41513 
327 1 27.1327 9.41398 7.40476 6.02291 -40354.3 39647.9 -28048.8 87429.1 -4855.91 -9554.12 -7.41146 
14 1 27.7054 0.792017 7.40142 6.00269 -8669.32 3555.33 2901.33 99562.6 16694.6 -17200.6 -7.41342 
15 1 29.125 0.778267 7.40397 6.00319 -7417.78 3705.06 -3026.04 122650 -16939.8 -14637 -7.41306 
16 1 31.9647 0.744316 7.40852 5.99683 -8274.4 3534.1 3050.4 120281 19049.8 -14174.7 -7.41362 
17 1 33.3843 0.732512 7.41036 5.99665 -7184.06 3655.93 -3149.05 139010 -19088.8 -11684.2 -7.41323 
18 1 36.2243 0.700957 7.41353 5.99212 -7977.54 3364.06 3031.51 137466 20789.8 -10310.5 -7.41374 
70 1 27.7449 3.2517 7.40206 6.0058 -21124.5 14723.6 10902.3 96680.3 18379.3 -18687.8 -7.414 
71 1 29.1645 3.23786 7.40443 6.00747 -16384.6 13162.2 -11434.4 119786 -14253.7 -13110.5 -7.41252 
72 1 29.8546 1.99732 7.40544 6.001 -14241 8665.41 7307.29 109310 18849.2 -16488.9 -7.41384 
73 1 31.2742 1.98456 7.40755 6.00157 -11293.1 7987.97 -7597.24 130417 -16857.7 -12596 -7.41286 
74 1 32.0034 3.20394 7.40907 5.99897 -18726.4 12560.6 12110.5 117321 20610.1 -15341 -7.41427 
75 1 33.423 3.19203 7.41074 6.00048 -14124.8 11114.6 -12506.4 136132 -16567 -10498.5 -7.41262 
76 1 34.1137 1.9519 7.41146 5.99513 -12888.2 7370.81 7815.06 128450 20849 -12826.1 -7.41403 
77 1 35.5333 1.94087 7.41288 5.99562 -10058 6725.01 -8024.1 144550 -18725.5 -9416.82 -7.41297 
78 1 36.2623 3.1605 7.41404 5.99353 -15847.7 9889.69 12826.7 134391 22264 -11113.2 -7.41445 
156 1 27.784 5.712 7.40342 6.0081 -33069.6 25685.9 18568.5 89979.7 19227 -20088.4 -7.41459 
157 1 29.2035 5.69795 7.4056 6.01316 -25017 22687.1 -19494.8 113047 -11234.1 -11517.1 -7.41203 
158 1 29.8935 4.45726 7.40638 6.0037 -25450.5 18735.6 15751.4 104356 20066 -17788.5 -7.41446 
159 1 31.3131 4.44434 7.40831 6.00639 -19063.3 16541.7 -16387.5 125542 -14065.3 -11205.2 -7.4123 
160 1 32.0416 5.66407 7.41028 6.00195 -28647.6 21500.8 20860.5 110358 21337.8 -16451.4 -7.41493 
161 1 33.4612 5.65194 7.41176 6.00578 -20680.4 18665.6 -21541.4 129154 -13713.6 -9265.46 -7.41207 
162 1 34.1518 4.41171 7.41231 5.99734 -21763.1 15154.8 17164.9 123327 21966.2 -13791.5 -7.41471 
163 1 35.5714 4.40051 7.41355 5.99994 -15489.9 13066.2 -17609.3 139543 -16082 -8399.63 -7.41236 
164 1 36.2999 5.62042 7.41517 5.9963 -23139 16314.5 22333.9 127199 22917.3 -11883.2 -7.41516 
242 1 27.8223 8.1729 7.40537 6.01133 -44303.7 36507.3 25619.3 79928 19151.8 -21392.1 -7.41515 
243 1 29.2418 8.15854 7.40734 6.01742 -33260.1 32283.1 -26931.9 102823 -8079.78 -9850.51 -7.4116 
244 1 29.9318 6.91776 7.40795 6.00631 -36179.8 28695.2 23736.2 95739.8 20388.6 -19016.2 -7.41508 
245 1 31.3513 6.90457 7.40968 6.01188 -26621.7 25147 -24708.8 116829 -11041.1 -9754.12 -7.41181 
246 1 32.0791 8.12472 7.41202 6.00519 -37880.2 30301 29030.5 99813.1 21135.2 -17501 -7.41558 
247 1 33.4986 8.11224 7.4133 6.01098 -26853.1 26330.3 -29991.4 118580 -10724.2 -7978.94 -7.41158 
248 1 34.1893 6.87196 7.41375 6.00089 -30186.4 22789.6 26086.4 114367 22194 -14713.6 -7.4154 
249 1 35.6089 6.86047 7.4148 6.00564 -20641 19467.6 -26756.9 130585 -13210.3 -7343.25 -7.41182 
250 1 36.3367 8.08074 7.41678 6.00056 -29763.9 22679.4 31296.5 116276 22644.8 -12619.7 -7.41586 
330 1 29.9692 9.37883 7.41 6.01014 -46109.8 38564.6 30983.2 83958.9 19772.9 -20156.5 -7.41567 
331 1 31.3887 9.36526 7.41152 6.01649 -33729.1 33990.1 -32290.3 104832 -7968.81 -8236.36 -7.41139 
334 1 34.226 9.33268 7.4156 6.00475 -37856.1 30367.1 34310.4 102070 21476.6 -15583.5 -7.41606 
335 1 35.6455 9.32078 7.41647 6.01073 -25368.9 26177.3 -35208.1 118165 -10290 -6241.97 -7.41134 
19 1 37.6439 0.690644 7.4147 5.99189 -6923.02 3495.01 -3106.05 150674 -20535.5 -7989.22 -7.41335 
20 1 40.4839 0.660789 7.41659 5.98934 -7343.02 3253.57 2879.33 149752 21902.7 -5935.9 -7.4138 
21 1 41.9035 0.651422 7.41716 5.98913 -6445.49 3041.41 -2930.46 156784 -21321 -3825.61 -7.41342 
22 1 44.7437 0.622475 7.41787 5.98832 -6471.07 2807.19 2631.32 156430 22418.1 -1333.6 -7.41382 
79 1 37.6819 3.15008 7.41505 5.99515 -11267.3 8563.55 -13089.1 147684 -18140.2 -7183.06 -7.41269 
80 1 38.373 1.91026 7.41547 5.99086 -10885 5906.78 8014.41 143258 22237.8 -8478.22 -7.41414 
81 1 39.7926 1.90046 7.41625 5.99152 -8104.1 5256.16 -8147.22 153451 -19886.4 -5647.37 -7.41305 
82 1 40.5215 3.12023 7.4171 5.98995 -12204.3 7018.65 13114.2 146533 23328.2 -6360.5 -7.41454 
83 1 41.9411 3.11076 7.4175 5.99172 -7786.33 5470.39 -13253.1 153668 -19008.4 -3415.27 -7.41274 
84 1 42.6326 1.87116 7.41763 5.98861 -8813.62 4166.85 7962.06 152725 23031.3 -3766.64 -7.41419 
85 1 44.0522 1.86201 7.41783 5.98945 -6068.59 3336.28 -8024.1 156602 -20389.6 -1538.87 -7.41309 
86 1 44.7812 3.08181 7.4184 5.98836 -8125.81 3774.32 13048.9 153059 23832 -1378.34 -7.41457 
165 1 37.7194 5.60977 7.41599 5.99988 -15178.6 13722.1 -22772.5 140488 -15419.8 -6350.35 -7.4121 
166 1 38.4106 4.36991 7.41629 5.99254 -17014.2 11104.1 17954.1 137952 23294.2 -9080.35 -7.41487 
167 1 39.8302 4.35993 7.41689 5.99521 -10774.8 9018.59 -18216.9 148269 -17351.9 -5030.1 -7.41241 
168 1 40.5587 5.57992 7.4182 5.99209 -16546 10708.3 23075.8 139143 23944.8 -6770.43 -7.41529 
169 1 41.9783 5.5702 7.41842 5.99534 -8720.61 7911.76 -23290.5 146291 -16377.2 -2999.57 -7.41212 
170 1 42.6699 4.33064 7.41845 5.9896 -11821.1 6553.06 18213 147277 24062.6 -3997.06 -7.41494 
171 1 44.0895 4.32131 7.41848 5.99187 -5614.67 4361.36 -18309.3 151229 -17917.1 -1330.85 -7.41244 
172 1 44.8182 5.54124 7.4195 5.98984 -9326.84 4632.35 23199.1 145479 24444.9 -1423.16 -7.41533 
251 1 37.7563 8.06972 7.41742 6.00576 -18691 18981.7 -31907.2 129616 -12567.1 -5487.33 -7.41156 
252 1 38.4476 6.82988 7.41764 5.99575 -22672.9 16080.7 27491.8 128707 23471.9 -9660.93 -7.4156 
253 1 39.8672 6.8196 7.41807 6 -13161.9 12858.6 -27875.8 139058 -14595.1 -4395.98 -7.41183 
254 1 40.5951 8.03985 7.41975 5.99574 -20355.6 14304 32519.6 127931 23644.1 -7167.16 -7.41603 
255 1 42.0148 8.02976 7.4198 6.00027 -9356.66 10546.4 -32805.8 135153 -13618.1 -2578.06 -7.41156 
256 1 42.7066 6.79028 7.41978 5.99218 -14321.8 8743.57 28076.5 137806 24225.2 -4222.32 -7.4157 
257 1 44.1263 6.78065 7.41964 5.99578 -4800.95 5500.17 -28198.4 141842 -15226.8 -1129.29 -7.41184 
258 1 44.8545 8.00076 7.42103 5.99291 -9950.17 5448.86 32843.1 134096 24147.5 -1469.84 -7.41608 
338 1 38.4838 9.29017 7.4194 6.00045 -27566.1 21044.6 36368.9 116021 22707.5 -10215.2 -7.41631 
339 1 39.9034 9.27946 7.41965 6.00587 -15083.6 16981.2 -36875.8 126332 -11792 -3742.31 -7.41131 
342 1 42.7425 9.2501 7.42148 5.99634 -16171.4 10896.6 37303.5 124865 23451.7 -4440.38 -7.41643 
343 1 44.1622 9.24003 7.42117 6.001 -3607.14 6868.11 -37451.5 128889 -12492.7 -934.796 -7.41131 
23 1 46.1633 0.613464 7.41787 5.98837 -5545.62 2524.06 -2659.33 156979 -21492.9 568.732 -7.41346 
24 1 49.0036 0.584583 7.41745 5.98825 -5730.24 2056.38 2323.02 157139 22358.8 3273.59 -7.41379 
25 1 50.4232 0.575318 7.4169 5.98908 -4877.87 1490.56 -2328.34 151250 -21069.4 4990.46 -7.41345 
26 1 53.2635 0.545667 7.41531 5.9903 -4691.11 1162.62 1982.4 151963 21713.6 7682.72 -7.41371 
27 1 54.6831 0.535552 7.41415 5.99119 -3950.73 285.214 -1961.55 139826 -20033 9224.6 -7.41342 
87 1 46.2008 3.07269 7.41824 5.98966 -3685.48 2061.38 -13072.6 153715 -19215.8 577.514 -7.41277 
88 1 46.8924 1.8332 7.41807 5.98795 -6183.33 2313.34 7712.84 156355 23261.4 1054.57 -7.41418 
89 1 48.312 1.82411 7.41772 5.98873 -3607.69 1027.37 -7706.65 153751 -20269.8 2694.79 -7.41311 
90 1 49.0411 3.0438 7.41802 5.98818 -4139.93 219.357 12687.8 153668 23799.5 3606.74 -7.41453 
91 1 50.4608 3.03443 7.4173 5.98965 237.784 -1779.09 -12597.4 147895 -18780.2 4594.01 -7.41278 
92 1 51.1524 1.79494 7.41682 5.98859 -3695.45 52.0514 7299.59 154061 22936.6 5778.92 -7.41412 
93 1 52.5721 1.78529 7.41589 5.99009 -1120.63 -1456.29 -7222.03 145068 -19526.6 6851.41 -7.4131 
94 1 53.3014 3.00476 7.41591 5.98957 -111.999 -3446.65 12050.4 148441 23221.1 8388.41 -7.41443 
95 1 54.7211 2.99455 7.4146 5.99173 4200.52 -5749.76 -11836 136430 -17685.8 8420.98 -7.41276 
173 1 46.2378 5.53188 7.41917 5.99249 -1481.8 1694.51 -23206.2 146211 -16623.4 570.616 -7.41214 
174 1 46.9297 4.29249 7.41891 5.98871 -6012.39 1800.86 18027.5 150787 24302.5 1196.48 -7.41493 
175 1 48.3494 4.28322 7.41839 5.99043 70.9249 -786.185 -17964.8 148258 -17809.1 2489.21 -7.41246 
176 1 49.0783 5.50296 7.41914 5.98969 -2112.22 -1757.11 22781.1 146006 24441 3926.52 -7.41529 
177 1 50.498 5.49335 7.41826 5.99176 5705.2 -5006.01 -22583.2 140304 -16173.9 4160.18 -7.41215 
178 1 51.19 4.25403 7.4177 5.98899 -333.986 -3225.24 17439.5 148433 24023.5 6289.76 -7.41486 
179 1 52.6097 4.24421 7.41661 5.99114 5713.55 -6141.35 -17212 139534 -17028 6228.51 -7.41246 
180 1 53.339 5.46366 7.41707 5.99043 4829.69 -8153.87 21835.7 140779 23926.1 9066.83 -7.41517 
181 1 54.7587 5.45321 7.4156 5.9932 12563.8 -11806 -21416.3 128879 -15014.9 7557.29 -7.41216 
259 1 46.2742 7.99102 7.42054 5.99673 1052.79 1463.84 -32829.1 134904 -13905.5 544.163 -7.41157 
260 1 46.9665 6.75179 7.42025 5.99067 -5381.99 1169.11 27957.5 141204 24480 1329.93 -7.4157 
261 1 48.3861 6.74221 7.41957 5.99363 4044.84 -2507.81 -27829.7 138763 -15131.9 2253.79 -7.41186 
262 1 49.1148 7.96207 7.42068 5.9921 300.265 -3805.01 32365.1 134590 24174.3 4230.91 -7.41604 
263 1 50.5345 7.95209 7.41965 5.9953 11308.9 -8094.8 -32054.3 128994 -13441.5 3681.18 -7.4116 
264 1 51.227 6.713 7.41906 5.99093 3382.47 -6667.34 27184.1 138847 24246.3 6779.01 -7.41561 
265 1 52.6467 6.70287 7.41782 5.99365 12779.3 -10735.5 -26798.2 130024 -14309.8 5551.73 -7.41188 
266 1 53.3758 7.92236 7.41864 5.99276 10137.9 -12979.8 31092.4 129448 23721.3 9715.13 -7.41589 
267 1 54.7957 7.91155 7.41704 5.99606 21084.8 -17746.9 -30463.2 117730 -12214 6622.93 -7.41163 
346 1 47.0024 9.21112 7.42194 5.99417 -4202.86 407.081 37257.2 128149 23724.9 1455.54 -7.41644 
347 1 48.4221 9.2011 7.4211 5.99816 8307.62 -3989.5 -37063.2 125772 -12411.1 1984.23 -7.41133 
350 1 51.2632 9.17184 7.42076 5.99416 7601.61 -10188.4 36285.6 125828 23536.9 7245.28 -7.41633 
351 1 52.683 9.16128 7.41938 5.99749 20080.6 -15099.2 -35739.4 117143 -11546.1 4814.03 -7.41136 
28 1 57.5233 0.504323 7.41129 5.99445 -3788.02 97.1905 1629.86 141162 20438 11659.3 -7.41358 
29 1 58.943 0.492805 7.40948 5.99534 -3076.14 -817.165 -1579.28 123399 -18353.3 13004.3 -7.41332 
30 1 61.7831 0.459286 7.40523 6.00046 -2905.14 -857.354 1280.95 125517 18484.4 14922.7 -7.41339 
31 1 63.2028 0.44589 7.40272 6.00071 -2337.95 -1836.58 -1200.87 103156 -16033.3 16017 -7.41317 
96 1 55.4126 1.75494 7.41378 5.9914 -1371.43 -2304.01 6737.16 145986 22027.7 10189.6 -7.414 
97 1 56.8322 1.74415 7.41222 5.99296 1114.24 -3993.53 -6580.33 130999 -18133 10695.5 -7.41305 
98 1 57.5619 2.96331 7.41192 5.99311 3395.97 -7009.64 11124.4 137696 22054.4 12722.7 -7.41426 
99 1 58.9816 2.9517 7.40995 5.99534 7670.42 -9461 -10772.8 120060 -15906.4 11800.6 -7.41271 
100 1 59.6728 1.71185 7.40876 5.99623 814.265 -4451.73 6022.64 132702 20482.8 14020.1 -7.41382 
101 1 61.0925 1.69942 7.40652 5.9976 3234.13 -6253.82 -5779.98 112522 -16071.1 13939.9 -7.41296 
102 1 61.8226 2.91817 7.40586 5.99862 6360.91 -10063.6 9886.65 122208 20252.9 16308.1 -7.41401 
103 1 63.2423 2.90468 7.4032 5.99993 10457 -12753.8 -9396.11 100014 -13451.1 14443.7 -7.41263 
104 1 63.933 1.66453 7.40162 6.00282 2242.21 -6353.93 5154.19 115167 18274.8 16967.8 -7.41356 
182 1 55.4506 4.21384 7.41469 5.99115 4829.32 -8209.52 16440.5 140425 23199.6 11060.1 -7.41471 
183 1 56.8704 4.20289 7.41298 5.99399 10825.6 -11392 -16031.3 125562 -15550.4 9655.82 -7.41245 
184 1 57.6001 5.42196 7.41311 5.99335 10953.6 -14212 20318.6 130209 22863.1 13743.1 -7.41495 
185 1 59.0199 5.41012 7.41101 5.99674 18652.4 -18130.1 -19656 112722 -13126.2 10513.6 -7.41216 
186 1 59.7116 4.17059 7.4097 5.99542 9337.86 -12714.3 14991.2 127276 21782.6 15225.5 -7.41448 
187 1 61.1314 4.158 7.40732 5.99779 15266.5 -16086.8 -14387 107273 -13364.6 12499.8 -7.41241 
188 1 61.8616 5.3766 7.40711 5.99836 15828 -19402.6 18172.9 115042 21211.7 17631.5 -7.41463 
189 1 63.2814 5.36291 7.40434 6.00056 23338.1 -23649.8 -17263.8 93034.9 -10525.4 12763 -7.41214 
190 1 63.9728 4.12311 7.40259 6.00157 12457.6 -16468.4 13062 110012 19749.2 18454.7 -7.41414 
268 1 55.4882 6.67248 7.41609 5.99246 11326 -14345.6 25728.9 130953 23503.7 11893.7 -7.41543 
269 1 56.908 6.66124 7.41425 5.99581 20693.5 -18739.6 -25059.9 116220 -12741.5 8538.09 -7.4119 
270 1 57.6376 7.88027 7.41474 5.99509 18771.7 -21592.6 28955.7 119137 22759.2 14714.9 -7.41563 
271 1 59.0575 7.86809 7.41253 5.99896 29659 -26718.7 -27979 101915 -10210 9131.9 -7.41167 
272 1 59.7499 6.62893 7.41117 5.99617 18148.5 -21208.1 23519.4 118115 22211.6 16375.6 -7.41513 
273 1 61.1698 6.61606 7.40868 5.99936 27375.2 -25931.5 -22547.8 98309.8 -10423.5 10958.2 -7.41191 
274 1 61.9 7.83459 7.40883 5.9996 25536.3 -28931.2 25870.6 104396 21259.4 18882.6 -7.41524 
275 1 63.3199 7.82057 7.40598 6.00254 36176.5 -34500 -24543 82743.2 -7458.71 10965.8 -7.41171 
276 1 64.012 6.5812 7.40415 6.00186 22903.4 -26796.4 20504.8 101273 20356 19862.5 -7.41472 
354 1 55.5249 9.13085 7.41784 5.99519 18195.1 -20542.2 34346.3 118167 22873.7 12686.1 -7.41611 
355 1 56.9448 9.11919 7.41588 5.99899 30599 -25914.2 -33416.2 103631 -9883.19 7334.04 -7.41142 
358 1 59.7874 9.08688 7.41299 5.99836 27159.9 -29726.1 31340.6 105727 21707.1 17460.5 -7.41576 
359 1 61.2073 9.07362 7.41042 6.0022 39344.7 -35638.6 -30003.4 86233.1 -7429.51 9308.18 -7.41148 
362 1 64.0504 9.03881 7.40613 6.00359 33432.1 -37169.6 27209.5 89439.9 20038.4 21174.3 -7.41527 
32 1 66.0428 0.409513 7.39705 6.00792 -2438.51 -1756.12 947.578 106256 15860.6 17196 -7.41313 
33 1 67.4625 0.393891 7.39385 6.0072 -1940.2 -2602.55 -842.42 80879.1 -13160.9 17980.4 -7.41294 
34 1 70.3024 0.354288 7.3869 6.01624 -2020.49 -2380.76 649.463 84854.9 12686 18287.9 -7.41281 
35 1 71.7221 0.336251 7.38314 6.01471 -1748.69 -3287.87 -516.608 58315.6 -9938.21 18717 -7.41265 
105 1 65.3527 1.65002 7.39869 6.00309 4527.95 -8189.34 -4832.03 91116.1 -13382.2 16290.3 -7.41281 
106 1 66.0833 2.86831 7.39767 6.0057 8226.79 -12513.5 8338.96 103172 17827.4 18832.7 -7.41367 
107 1 67.503 2.85261 7.39435 6.00597 12236.6 -15173.7 -7728.93 77990.7 -10410.7 16105 -7.41248 
108 1 68.1931 1.61207 7.3924 6.01064 3404.26 -7694.87 4154.47 94744.4 15463.2 18770.3 -7.41322 
109 1 69.6129 1.59523 7.38885 6.00997 5588.25 -9466.35 -3767.62 68627.4 -10209.8 17535 -7.41259 
110 1 70.344 2.81302 7.38751 6.01385 9289.34 -13882.4 6550.39 82029.2 14911.3 20059.5 -7.41324 
111 1 71.7637 2.79491 7.38367 6.01322 12908.8 -16816.3 -5855.97 55742.1 -6977.15 16652.2 -7.41229 
112 1 72.4532 1.55394 7.3814 6.01919 3275.63 -8601.09 3088.43 72888.1 12249.6 19265.7 -7.41281 
191 1 65.3925 4.10847 7.39955 6.00279 18233.2 -20001.8 -12274.7 86184.9 -10519.6 14495.8 -7.41233 
192 1 66.1233 5.32657 7.39899 6.00507 19094.4 -23395.6 15395.5 96391 18990 20382 -7.41421 
193 1 67.5432 5.31068 7.3956 6.00618 26435.5 -27791 -14276.3 71438.5 -7311.88 14093.8 -7.41208 
194 1 68.234 4.07054 7.39341 6.0091 14654 -18992.1 10695.2 89930.9 17168 20441.5 -7.41371 
195 1 69.6538 4.05357 7.38978 6.00932 20229 -22580.1 -9766.94 64056.6 -7159.76 15470.9 -7.4122 
196 1 70.3852 5.27117 7.38897 6.01304 20735.6 -25486.2 12110.1 75688.3 16347.5 21705.2 -7.41368 
197 1 71.805 5.25289 7.3851 6.01315 27535.8 -30306.8 -10854.8 49733.8 -3674.32 14411.6 -7.41199 
198 1 72.4952 4.01235 7.38251 6.01758 14577 -20169.3 8041.13 68457.4 14263.2 20971.8 -7.4132 
277 1 65.4319 6.56631 7.40103 6.00388 31926.7 -31843.9 -19250.3 77730.8 -7416.2 12576.4 -7.41191 
278 1 66.1627 7.7843 7.40087 6.00593 30027.4 -34430.9 21838.7 86305.4 19252.6 21828.3 -7.41473 
279 1 67.5827 7.76811 7.39745 6.00774 40380.5 -40246.5 -20215.7 61832.5 -4071.15 11945 -7.41174 
280 1 68.2743 6.52845 7.39512 6.00911 25950.6 -30466 16754.7 81676.4 18018.1 22000.4 -7.4142 
281 1 69.6942 6.51126 7.39147 6.01006 34663 -35678.9 -15288.3 56214.4 -3870.35 13253.9 -7.41188 
282 1 70.4256 7.72873 7.3911 6.01368 32129.4 -37167.6 17048.9 66242.2 16904.2 23205.6 -7.4141 
283 1 71.8456 7.71021 7.38728 6.01441 41787.1 -43496.3 -15246.5 40877 -241.564 12009 -7.41176 
284 1 72.5367 6.47017 7.38447 6.01747 25863.1 -31794.9 12513.4 60740.7 15441.7 22517.4 -7.41358 
363 1 65.4704 9.02355 7.40297 6.00624 45293.1 -43523.6 -25494.5 66357.3 -4259.08 10530.6 -7.41156 
366 1 68.3138 8.98581 7.39735 6.01052 37242.3 -41888 22060.8 70549.3 17964.2 23423.8 -7.41465 
367 1 69.7338 8.9683 7.39372 6.01203 48623.3 -48544.2 -20071.3 45709.2 -534.561 10894.5 -7.41163 
370 1 72.5772 8.92741 7.38709 6.01874 37063.1 -43301.1 16243.7 50412.2 15742.6 23878.4 -7.41394 
36 1 74.5618 0.293267 7.37525 6.02491 -2593.74 -3221.19 408.166 62657.9 9217.61 18090.8 -7.41244 
37 1 75.9815 0.272778 7.37116 6.02292 -2479.45 -3995.46 -244.465 37202.8 -6664.56 18088.1 -7.41229 
38 1 78.8211 0.226498 7.36297 6.03325 -2750.32 -3659.38 229.907 41059.6 5812.09 16418.1 -7.41205 
39 1 80.2407 0.203712 7.35898 6.03127 -2757.33 -4129.7 -64.8586 19104.9 -3702.71 15796 -7.41193 
113 1 73.8729 1.53465 7.3774 6.0178 5114.85 -10481.7 -2654.75 46704.3 -6795.88 17561.6 -7.41232 
114 1 74.6045 2.75197 7.37589 6.02258 8409.55 -14524.9 4661.73 60124.7 11790.6 19833.7 -7.41276 
115 1 76.0243 2.73142 7.37176 6.02135 11734.9 -17363 -3934.14 34910.8 -3421.08 15998.8 -7.41205 
116 1 76.7131 1.49 7.36929 6.02786 2485.14 -8967.31 2047.94 50904.1 8960.49 18313.5 -7.41238 
117 1 78.1328 1.46831 7.36517 6.02614 4218.31 -10429.9 -1604.19 27004.4 -3461.96 16201.2 -7.41201 
118 1 78.8649 2.6852 7.3637 6.03128 6844.12 -13472.6 2859.33 38876.3 8842.41 17938.5 -7.41226 
119 1 80.2846 2.66237 7.35972 6.0298 9723.42 -16133.2 -2188.98 17172.8 -78.3958 13905.8 -7.41179 
120 1 80.9728 1.42052 7.35725 6.03612 986.319 -8140.58 1124.21 30425.4 5988.45 15609.6 -7.41194 
121 1 82.3925 1.3967 7.35354 6.03454 2357.64 -9551.72 -762.325 11254.1 -576.826 13078.2 -7.4117 
199 1 73.915 3.99295 7.37848 6.01695 19650.3 -24035.9 -7037.98 42583.5 -3510.96 15357.5 -7.41204 
200 1 74.6468 5.21007 7.37757 6.02177 19504 -25850.4 8581.17 54291.2 13596 21394.2 -7.41309 
201 1 76.0667 5.18939 7.37349 6.02116 25821.1 -30567.1 -7297.83 29496.7 135.504 13680.2 -7.41187 
202 1 76.7562 3.9484 7.37057 6.02643 12990.2 -19622.7 5345.78 46880.7 11389.1 19864.9 -7.41265 
203 1 78.176 3.92664 7.36648 6.02532 17682.2 -23216.9 -4363.65 23359.3 133.953 14047.2 -7.41185 
204 1 78.9083 5.14336 7.36573 6.03075 16446 -23143.4 5178.29 33554 11123.5 19217.3 -7.4125 
205 1 80.3281 5.12045 7.36186 6.02972 22006.8 -27884.1 -4013.54 12344.3 3800.2 11744.2 -7.41173 
206 1 81.0169 3.879 7.35879 6.03515 9431.57 -16640.1 2902.21 26844.7 8927.78 16817.2 -7.41212 
207 1 82.4367 3.85513 7.35516 6.03392 13413.9 -20157 -2089.06 8013.93 3408.93 11245.5 -7.41166 
285 1 73.9565 6.45058 7.38049 6.01748 33848.9 -37459.8 -10951.9 35443.7 -6.04339 12962.5 -7.41184 
286 1 74.6884 7.66759 7.38011 6.02239 30425.1 -37020.4 11897.3 45521 14541.9 22755.4 -7.41342 
287 1 76.1084 7.64672 7.37617 6.02227 39319.8 -43420.8 -10080.6 21517.4 3784.19 11171.1 -7.41175 
288 1 76.7988 6.40624 7.37293 6.02644 23329.8 -30241.2 8185.12 39854.8 12998.6 21195.7 -7.41294 
289 1 78.2186 6.38434 7.36897 6.0258 30684.7 -35666.2 -6682.46 16910.3 3898.92 11662.3 -7.41176 
290 1 78.9509 7.601 7.36887 6.03159 25669.6 -32574.2 6936.66 25546.5 12547.7 20247.3 -7.41273 
291 1 80.3708 7.57797 7.36521 6.03091 33510.8 -39007.4 -5304.5 5155.21 7693.57 9375.52 -7.41174 
292 1 81.0605 6.337 7.36169 6.03555 17610.4 -24912 4262.81 20470.5 11046.2 17765.1 -7.41231 
371 1 73.9972 8.90757 7.38324 6.01922 47524.1 -50366.2 -14148.5 25882.4 3518.77 10409.4 -7.4117 