(written by TR)

11096	atoms
1	atom types
0	91.5982511	xlo xhi
0	158.652825	ylo yhi
0	18.3999996	zlo zhi


Masses

1	12

Atoms

1 1 1 0 0.00000000 0.00000000 7.50000000 0 0 0
2 1 1 0 2.14631827 1.20104876 7.50000000 0 0 0
3 1 1 0 3.56619019 1.18198450 7.50000000 0 0 0
4 1 1 0 6.40593453 1.14385596 7.50000000 0 0 0
5 1 1 0 7.82580645 1.12479169 7.50000000 0 0 0
6 1 1 0 10.66555079 1.08666316 7.50000000 0 0 0
7 1 1 0 12.08542271 1.06759889 7.50000000 0 0 0
8 1 1 0 14.92516705 1.02947035 7.50000000 0 0 0
9 1 1 0 16.34503897 1.01040609 7.50000000 0 0 0
10 1 1 0 19.18478331 0.97227755 7.50000000 0 0 0
11 1 1 0 20.60465523 0.95321328 7.50000000 0 0 0
12 1 1 0 23.44439957 0.91508475 7.50000000 0 0 0
13 1 1 0 24.86427149 0.89602048 7.50000000 0 0 0
14 1 1 0 27.70401583 0.85789194 7.50000000 0 0 0
15 1 1 0 29.12388775 0.83882768 7.50000000 0 0 0
16 1 1 0 31.96363209 0.80069914 7.50000000 0 0 0
17 1 1 0 33.38350401 0.78163487 7.50000000 0 0 0
18 1 1 0 36.22324835 0.74350633 7.50000000 0 0 0
19 1 1 0 37.64312027 0.72444207 7.50000000 0 0 0
20 1 1 0 40.48286461 0.68631353 7.50000000 0 0 0
21 1 1 0 41.90273653 0.66724926 7.50000000 0 0 0
22 1 1 0 44.74248087 0.62912073 7.50000000 0 0 0
23 1 1 0 46.16235279 0.61005646 7.50000000 0 0 0
24 1 1 0 49.00209713 0.57192792 7.50000000 0 0 0
25 1 1 0 50.42196906 0.55286366 7.50000000 0 0 0
26 1 1 0 53.26171340 0.51473512 7.50000000 0 0 0
27 1 1 0 54.68158532 0.49567085 7.50000000 0 0 0
28 1 1 0 57.52132966 0.45754231 7.50000000 0 0 0
29 1 1 0 58.94120158 0.43847805 7.50000000 0 0 0
30 1 1 0 61.78094592 0.40034951 7.50000000 0 0 0
31 1 1 0 63.20081784 0.38128524 7.50000000 0 0 0
32 1 1 0 66.04056218 0.34315671 7.50000000 0 0 0
33 1 1 0 67.46043410 0.32409244 7.50000000 0 0 0
34 1 1 0 70.30017844 0.28596390 7.50000000 0 0 0
35 1 1 0 71.72005036 0.26689964 7.50000000 0 0 0
36 1 1 0 74.55979470 0.22877110 7.50000000 0 0 0
37 1 1 0 75.97966662 0.20970683 7.50000000 0 0 0
38 1 1 0 78.81941096 0.17157830 7.50000000 0 0 0
39 1 1 0 80.23928288 0.15251403 7.50000000 0 0 0
40 1 1 0 83.07902722 0.11438549 7.50000000 0 0 0
41 1 1 0 84.49889914 0.09532123 7.50000000 0 0 0
42 1 1 0 87.33864348 0.05719269 7.50000000 0 0 0
43 1 1 0 88.75851540 0.03812842 7.50000000 0 0 0
44 1 1 0 0.03302028 2.45929033 7.50000000 0 0 0
45 1 1 0 1.45289230 2.44022607 7.50000000 0 0 0
46 1 1 0 2.17933855 3.66033910 7.50000000 0 0 0
47 1 1 0 3.59921047 3.64127483 7.50000000 0 0 0
48 1 1 0 4.29263654 2.40209753 7.50000000 0 0 0
49 1 1 0 5.71250856 2.38303326 7.50000000 0 0 0
50 1 1 0 6.43895481 3.60314629 7.50000000 0 0 0
51 1 1 0 7.85882673 3.58408203 7.50000000 0 0 0
52 1 1 0 8.55225280 2.34490472 7.50000000 0 0 0
53 1 1 0 9.97212482 2.32584046 7.50000000 0 0 0
54 1 1 0 10.69857107 3.54595349 7.50000000 0 0 0
55 1 1 0 12.11844299 3.52688922 7.50000000 0 0 0
56 1 1 0 12.81186906 2.28771192 7.50000000 0 0 0
57 1 1 0 14.23174108 2.26864765 7.50000000 0 0 0
58 1 1 0 14.95818733 3.48876069 7.50000000 0 0 0
59 1 1 0 16.37805925 3.46969642 7.50000000 0 0 0
60 1 1 0 17.07148532 2.23051912 7.50000000 0 0 0
61 1 1 0 18.49135734 2.21145485 7.50000000 0 0 0
62 1 1 0 19.21780359 3.43156788 7.50000000 0 0 0
63 1 1 0 20.63767551 3.41250362 7.50000000 0 0 0
64 1 1 0 21.33110158 2.17332631 7.50000000 0 0 0
65 1 1 0 22.75097360 2.15426205 7.50000000 0 0 0
66 1 1 0 23.47741985 3.37437508 7.50000000 0 0 0
67 1 1 0 24.89729177 3.35531081 7.50000000 0 0 0
68 1 1 0 25.59071784 2.11613351 7.50000000 0 0 0
69 1 1 0 27.01058986 2.09706924 7.50000000 0 0 0
70 1 1 0 27.73703611 3.31718227 7.50000000 0 0 0
71 1 1 0 29.15690803 3.29811801 7.50000000 0 0 0
72 1 1 0 29.85033410 2.05894071 7.50000000 0 0 0
73 1 1 0 31.27020612 2.03987644 7.50000000 0 0 0
74 1 1 0 31.99665237 3.25998947 7.50000000 0 0 0
75 1 1 0 33.41652429 3.24092520 7.50000000 0 0 0
76 1 1 0 34.10995036 2.00174790 7.50000000 0 0 0
77 1 1 0 35.52982238 1.98268363 7.50000000 0 0 0
78 1 1 0 36.25626863 3.20279667 7.50000000 0 0 0
79 1 1 0 37.67614055 3.18373240 7.50000000 0 0 0
80 1 1 0 38.36956662 1.94455510 7.50000000 0 0 0
81 1 1 0 39.78943864 1.92549083 7.50000000 0 0 0
82 1 1 0 40.51588489 3.14560386 7.50000000 0 0 0
83 1 1 0 41.93575681 3.12653960 7.50000000 0 0 0
84 1 1 0 42.62918288 1.88736229 7.50000000 0 0 0
85 1 1 0 44.04905490 1.86829803 7.50000000 0 0 0
86 1 1 0 44.77550115 3.08841106 7.50000000 0 0 0
87 1 1 0 46.19537307 3.06934679 7.50000000 0 0 0
88 1 1 0 46.88879914 1.83016949 7.50000000 0 0 0
89 1 1 0 48.30867116 1.81110522 7.50000000 0 0 0
90 1 1 0 49.03511741 3.03121825 7.50000000 0 0 0
91 1 1 0 50.45498933 3.01215399 7.50000000 0 0 0
92 1 1 0 51.14841540 1.77297669 7.50000000 0 0 0
93 1 1 0 52.56828742 1.75391242 7.50000000 0 0 0
94 1 1 0 53.29473367 2.97402545 7.50000000 0 0 0
95 1 1 0 54.71460559 2.95496118 7.50000000 0 0 0
96 1 1 0 55.40803166 1.71578388 7.50000000 0 0 0
97 1 1 0 56.82790368 1.69671962 7.50000000 0 0 0
98 1 1 0 57.55434993 2.91683265 7.50000000 0 0 0
99 1 1 0 58.97422185 2.89776838 7.50000000 0 0 0
100 1 1 0 59.66764792 1.65859108 7.50000000 0 0 0
101 1 1 0 61.08751995 1.63952681 7.50000000 0 0 0
102 1 1 0 61.81396619 2.85963984 7.50000000 0 0 0
103 1 1 0 63.23383811 2.84057558 7.50000000 0 0 0
104 1 1 0 63.92726419 1.60139827 7.50000000 0 0 0
105 1 1 0 65.34713621 1.58233401 7.50000000 0 0 0
106 1 1 0 66.07358245 2.80244704 7.50000000 0 0 0
107 1 1 0 67.49345437 2.78338277 7.50000000 0 0 0
108 1 1 0 68.18688045 1.54420547 7.50000000 0 0 0
109 1 1 0 69.60675247 1.52514120 7.50000000 0 0 0
110 1 1 0 70.33319871 2.74525424 7.50000000 0 0 0
111 1 1 0 71.75307064 2.72618997 7.50000000 0 0 0
112 1 1 0 72.44649671 1.48701267 7.50000000 0 0 0
113 1 1 0 73.86636873 1.46794840 7.50000000 0 0 0
114 1 1 0 74.59281498 2.68806143 7.50000000 0 0 0
115 1 1 0 76.01268690 2.66899717 7.50000000 0 0 0
116 1 1 0 76.70611297 1.42981986 7.50000000 0 0 0
117 1 1 0 78.12598499 1.41075560 7.50000000 0 0 0
118 1 1 0 78.85243124 2.63086863 7.50000000 0 0 0
119 1 1 0 80.27230316 2.61180436 7.50000000 0 0 0
120 1 1 0 80.96572923 1.37262706 7.50000000 0 0 0
121 1 1 0 82.38560125 1.35356279 7.50000000 0 0 0
122 1 1 0 83.11204750 2.57367582 7.50000000 0 0 0
123 1 1 0 84.53191942 2.55461156 7.50000000 0 0 0
124 1 1 0 85.22534549 1.31543426 7.50000000 0 0 0
125 1 1 0 86.64521751 1.29636999 7.50000000 0 0 0
126 1 1 0 87.37166376 2.51648302 7.50000000 0 0 0
127 1 1 0 88.79153568 2.49741875 7.50000000 0 0 0
128 1 1 0 89.48496175 1.25824145 7.50000000 0 0 0
129 1 1 0 90.90483377 1.23917718 7.50000000 0 0 0
130 1 1 0 0.06604055 4.91858066 7.50000000 0 0 0
131 1 1 0 1.48591257 4.89951640 7.50000000 0 0 0
132 1 1 0 2.21235882 6.11962943 7.50000000 0 0 0
133 1 1 0 3.63223074 6.10056516 7.50000000 0 0 0
134 1 1 0 4.32565681 4.86138786 7.50000000 0 0 0
135 1 1 0 5.74552884 4.84232359 7.50000000 0 0 0
136 1 1 0 6.47197508 6.06243663 7.50000000 0 0 0
137 1 1 0 7.89184700 6.04337236 7.50000000 0 0 0
138 1 1 0 8.58527308 4.80419506 7.50000000 0 0 0
139 1 1 0 10.00514510 4.78513079 7.50000000 0 0 0
140 1 1 0 10.73159134 6.00524382 7.50000000 0 0 0
141 1 1 0 12.15146326 5.98617956 7.50000000 0 0 0
142 1 1 0 12.84488934 4.74700225 7.50000000 0 0 0
143 1 1 0 14.26476136 4.72793799 7.50000000 0 0 0
144 1 1 0 14.99120760 5.94805102 7.50000000 0 0 0
145 1 1 0 16.41107953 5.92898675 7.50000000 0 0 0
146 1 1 0 17.10450560 4.68980945 7.50000000 0 0 0
147 1 1 0 18.52437762 4.67074518 7.50000000 0 0 0
148 1 1 0 19.25082387 5.89085821 7.50000000 0 0 0
149 1 1 0 20.67069579 5.87179395 7.50000000 0 0 0
150 1 1 0 21.36412186 4.63261665 7.50000000 0 0 0
151 1 1 0 22.78399388 4.61355238 7.50000000 0 0 0
152 1 1 0 23.51044013 5.83366541 7.50000000 0 0 0
153 1 1 0 24.93031205 5.81460114 7.50000000 0 0 0
154 1 1 0 25.62373812 4.57542384 7.50000000 0 0 0
155 1 1 0 27.04361014 4.55635957 7.50000000 0 0 0
156 1 1 0 27.77005639 5.77647261 7.50000000 0 0 0
157 1 1 0 29.18992831 5.75740834 7.50000000 0 0 0
158 1 1 0 29.88335438 4.51823104 7.50000000 0 0 0
159 1 1 0 31.30322640 4.49916677 7.50000000 0 0 0
160 1 1 0 32.02967265 5.71927980 7.50000000 0 0 0
161 1 1 0 33.44954457 5.70021554 7.50000000 0 0 0
162 1 1 0 34.14297064 4.46103823 7.50000000 0 0 0
163 1 1 0 35.56284266 4.44197397 7.50000000 0 0 0
164 1 1 0 36.28928891 5.66208700 7.50000000 0 0 0
165 1 1 0 37.70916083 5.64302273 7.50000000 0 0 0
166 1 1 0 38.40258690 4.40384543 7.50000000 0 0 0
167 1 1 0 39.82245892 4.38478116 7.50000000 0 0 0
168 1 1 0 40.54890517 5.60489419 7.50000000 0 0 0
169 1 1 0 41.96877709 5.58582993 7.50000000 0 0 0
170 1 1 0 42.66220316 4.34665263 7.50000000 0 0 0
171 1 1 0 44.08207518 4.32758836 7.50000000 0 0 0
172 1 1 0 44.80852143 5.54770139 7.50000000 0 0 0
173 1 1 0 46.22839335 5.52863713 7.50000000 0 0 0
174 1 1 0 46.92181942 4.28945982 7.50000000 0 0 0
175 1 1 0 48.34169144 4.27039556 7.50000000 0 0 0
176 1 1 0 49.06813769 5.49050859 7.50000000 0 0 0
177 1 1 0 50.48800961 5.47144432 7.50000000 0 0 0
178 1 1 0 51.18143568 4.23226702 7.50000000 0 0 0
179 1 1 0 52.60130770 4.21320275 7.50000000 0 0 0
180 1 1 0 53.32775395 5.43331578 7.50000000 0 0 0
181 1 1 0 54.74762587 5.41425152 7.50000000 0 0 0
182 1 1 0 55.44105194 4.17507421 7.50000000 0 0 0
183 1 1 0 56.86092396 4.15600995 7.50000000 0 0 0
184 1 1 0 57.58737021 5.37612298 7.50000000 0 0 0
185 1 1 0 59.00724213 5.35705871 7.50000000 0 0 0
186 1 1 0 59.70066820 4.11788141 7.50000000 0 0 0
187 1 1 0 61.12054022 4.09881714 7.50000000 0 0 0
188 1 1 0 61.84698647 5.31893018 7.50000000 0 0 0
189 1 1 0 63.26685839 5.29986591 7.50000000 0 0 0
190 1 1 0 63.96028446 4.06068861 7.50000000 0 0 0
191 1 1 0 65.38015648 4.04162434 7.50000000 0 0 0
192 1 1 0 66.10660273 5.26173737 7.50000000 0 0 0
193 1 1 0 67.52647465 5.24267311 7.50000000 0 0 0
194 1 1 0 68.21990072 4.00349580 7.50000000 0 0 0
195 1 1 0 69.63977274 3.98443154 7.50000000 0 0 0
196 1 1 0 70.36621899 5.20454457 7.50000000 0 0 0
197 1 1 0 71.78609091 5.18548030 7.50000000 0 0 0
198 1 1 0 72.47951698 3.94630300 7.50000000 0 0 0
199 1 1 0 73.89938900 3.92723873 7.50000000 0 0 0
200 1 1 0 74.62583525 5.14735176 7.50000000 0 0 0
201 1 1 0 76.04570717 5.12828750 7.50000000 0 0 0
202 1 1 0 76.73913324 3.88911020 7.50000000 0 0 0
203 1 1 0 78.15900526 3.87004593 7.50000000 0 0 0
204 1 1 0 78.88545151 5.09015896 7.50000000 0 0 0
205 1 1 0 80.30532343 5.07109469 7.50000000 0 0 0
206 1 1 0 80.99874950 3.83191739 7.50000000 0 0 0
207 1 1 0 82.41862153 3.81285312 7.50000000 0 0 0
208 1 1 0 83.14506777 5.03296616 7.50000000 0 0 0
209 1 1 0 84.56493969 5.01390189 7.50000000 0 0 0
210 1 1 0 85.25836577 3.77472459 7.50000000 0 0 0
211 1 1 0 86.67823779 3.75566032 7.50000000 0 0 0
212 1 1 0 87.40468403 4.97577335 7.50000000 0 0 0
213 1 1 0 88.82455595 4.95670909 7.50000000 0 0 0
214 1 1 0 89.51798203 3.71753178 7.50000000 0 0 0
215 1 1 0 90.93785405 3.69846752 7.50000000 0 0 0
216 1 1 0 0.09906083 7.37787100 7.50000000 0 0 0
217 1 1 0 1.51893285 7.35880673 7.50000000 0 0 0
218 1 1 0 2.24537910 8.57891976 7.50000000 0 0 0
219 1 1 0 3.66525102 8.55985550 7.50000000 0 0 0
220 1 1 0 4.35867709 7.32067819 7.50000000 0 0 0
221 1 1 0 5.77854911 7.30161393 7.50000000 0 0 0
222 1 1 0 6.50499536 8.52172696 7.50000000 0 0 0
223 1 1 0 7.92486728 8.50266269 7.50000000 0 0 0
224 1 1 0 8.61829335 7.26348539 7.50000000 0 0 0
225 1 1 0 10.03816537 7.24442112 7.50000000 0 0 0
226 1 1 0 10.76461162 8.46453415 7.50000000 0 0 0
227 1 1 0 12.18448354 8.44546989 7.50000000 0 0 0
228 1 1 0 12.87790961 7.20629259 7.50000000 0 0 0
229 1 1 0 14.29778163 7.18722832 7.50000000 0 0 0
230 1 1 0 15.02422788 8.40734135 7.50000000 0 0 0
231 1 1 0 16.44409980 8.38827708 7.50000000 0 0 0
232 1 1 0 17.13752587 7.14909978 7.50000000 0 0 0
233 1 1 0 18.55739789 7.13003552 7.50000000 0 0 0
234 1 1 0 19.28384414 8.35014855 7.50000000 0 0 0
235 1 1 0 20.70371606 8.33108428 7.50000000 0 0 0
236 1 1 0 21.39714213 7.09190698 7.50000000 0 0 0
237 1 1 0 22.81701415 7.07284271 7.50000000 0 0 0
238 1 1 0 23.54346040 8.29295574 7.50000000 0 0 0
239 1 1 0 24.96333232 8.27389148 7.50000000 0 0 0
240 1 1 0 25.65675839 7.03471417 7.50000000 0 0 0
241 1 1 0 27.07663042 7.01564991 7.50000000 0 0 0
242 1 1 0 27.80307666 8.23576294 7.50000000 0 0 0
243 1 1 0 29.22294858 8.21669867 7.50000000 0 0 0
244 1 1 0 29.91637466 6.97752137 7.50000000 0 0 0
245 1 1 0 31.33624668 6.95845710 7.50000000 0 0 0
246 1 1 0 32.06269292 8.17857013 7.50000000 0 0 0
247 1 1 0 33.48256484 8.15950587 7.50000000 0 0 0
248 1 1 0 34.17599092 6.92032857 7.50000000 0 0 0
249 1 1 0 35.59586294 6.90126430 7.50000000 0 0 0
250 1 1 0 36.32230918 8.12137733 7.50000000 0 0 0
251 1 1 0 37.74218111 8.10231307 7.50000000 0 0 0
252 1 1 0 38.43560718 6.86313576 7.50000000 0 0 0
253 1 1 0 39.85547920 6.84407150 7.50000000 0 0 0
254 1 1 0 40.58192545 8.06418453 7.50000000 0 0 0
255 1 1 0 42.00179737 8.04512026 7.50000000 0 0 0
256 1 1 0 42.69522344 6.80594296 7.50000000 0 0 0
257 1 1 0 44.11509546 6.78687869 7.50000000 0 0 0
258 1 1 0 44.84154171 8.00699172 7.50000000 0 0 0
259 1 1 0 46.26141363 7.98792746 7.50000000 0 0 0
260 1 1 0 46.95483970 6.74875016 7.50000000 0 0 0
261 1 1 0 48.37471172 6.72968589 7.50000000 0 0 0
262 1 1 0 49.10115797 7.94979892 7.50000000 0 0 0
263 1 1 0 50.52102989 7.93073465 7.50000000 0 0 0
264 1 1 0 51.21445596 6.69155735 7.50000000 0 0 0
265 1 1 0 52.63432798 6.67249308 7.50000000 0 0 0
266 1 1 0 53.36077423 7.89260612 7.50000000 0 0 0
267 1 1 0 54.78064615 7.87354185 7.50000000 0 0 0
268 1 1 0 55.47407222 6.63436455 7.50000000 0 0 0
269 1 1 0 56.89394424 6.61530028 7.50000000 0 0 0
270 1 1 0 57.62039049 7.83541331 7.50000000 0 0 0
271 1 1 0 59.04026241 7.81634905 7.50000000 0 0 0
272 1 1 0 59.73368848 6.57717174 7.50000000 0 0 0
273 1 1 0 61.15356050 6.55810748 7.50000000 0 0 0
274 1 1 0 61.88000675 7.77822051 7.50000000 0 0 0
275 1 1 0 63.29987867 7.75915624 7.50000000 0 0 0
276 1 1 0 63.99330474 6.51997894 7.50000000 0 0 0
277 1 1 0 65.41317676 6.50091467 7.50000000 0 0 0
278 1 1 0 66.13962301 7.72102770 7.50000000 0 0 0
279 1 1 0 67.55949493 7.70196344 7.50000000 0 0 0
280 1 1 0 68.25292100 6.46278614 7.50000000 0 0 0
281 1 1 0 69.67279302 6.44372187 7.50000000 0 0 0
282 1 1 0 70.39923927 7.66383490 7.50000000 0 0 0
283 1 1 0 71.81911119 7.64477063 7.50000000 0 0 0
284 1 1 0 72.51253726 6.40559333 7.50000000 0 0 0
285 1 1 0 73.93240928 6.38652907 7.50000000 0 0 0
286 1 1 0 74.65885553 7.60664210 7.50000000 0 0 0
287 1 1 0 76.07872745 7.58757783 7.50000000 0 0 0
288 1 1 0 76.77215352 6.34840053 7.50000000 0 0 0
289 1 1 0 78.19202554 6.32933626 7.50000000 0 0 0
290 1 1 0 78.91847179 7.54944929 7.50000000 0 0 0
291 1 1 0 80.33834371 7.53038503 7.50000000 0 0 0
292 1 1 0 81.03176978 6.29120772 7.50000000 0 0 0
293 1 1 0 82.45164180 6.27214346 7.50000000 0 0 0
294 1 1 0 83.17808805 7.49225649 7.50000000 0 0 0
295 1 1 0 84.59795997 7.47319222 7.50000000 0 0 0
296 1 1 0 85.29138604 6.23401492 7.50000000 0 0 0
297 1 1 0 86.71125806 6.21495065 7.50000000 0 0 0
298 1 1 0 87.43770431 7.43506368 7.50000000 0 0 0
299 1 1 0 88.85757623 7.41599942 7.50000000 0 0 0
300 1 1 0 89.55100230 6.17682212 7.50000000 0 0 0
301 1 1 0 90.97087432 6.15775785 7.50000000 0 0 0
302 1 1 0 0.13208111 9.83716133 7.50000000 0 0 0
303 1 1 0 1.55195313 9.81809706 7.50000000 0 0 0
304 1 1 0 2.27839938 11.03821009 7.50000000 0 0 0
305 1 1 0 3.69827130 11.01914583 7.50000000 0 0 0
306 1 1 0 4.39169737 9.77996853 7.50000000 0 0 0
307 1 1 0 5.81156939 9.76090426 7.50000000 0 0 0
308 1 1 0 6.53801564 10.98101729 7.50000000 0 0 0
309 1 1 0 7.95788756 10.96195302 7.50000000 0 0 0
310 1 1 0 8.65131363 9.72277572 7.50000000 0 0 0
311 1 1 0 10.07118565 9.70371146 7.50000000 0 0 0
312 1 1 0 10.79763190 10.92382449 7.50000000 0 0 0
313 1 1 0 12.21750382 10.90476022 7.50000000 0 0 0
314 1 1 0 12.91092989 9.66558292 7.50000000 0 0 0
315 1 1 0 14.33080191 9.64651865 7.50000000 0 0 0
316 1 1 0 15.05724816 10.86663168 7.50000000 0 0 0
317 1 1 0 16.47712008 10.84756742 7.50000000 0 0 0
318 1 1 0 17.17054615 9.60839011 7.50000000 0 0 0
319 1 1 0 18.59041817 9.58932585 7.50000000 0 0 0
320 1 1 0 19.31686442 10.80943888 7.50000000 0 0 0
321 1 1 0 20.73673634 10.79037461 7.50000000 0 0 0
322 1 1 0 21.43016241 9.55119731 7.50000000 0 0 0
323 1 1 0 22.85003443 9.53213304 7.50000000 0 0 0
324 1 1 0 23.57648068 10.75224608 7.50000000 0 0 0
325 1 1 0 24.99635260 10.73318181 7.50000000 0 0 0
326 1 1 0 25.68977867 9.49400451 7.50000000 0 0 0
327 1 1 0 27.10965069 9.47494024 7.50000000 0 0 0
328 1 1 0 27.83609694 10.69505327 7.50000000 0 0 0
329 1 1 0 29.25596886 10.67598901 7.50000000 0 0 0
330 1 1 0 29.94939493 9.43681170 7.50000000 0 0 0
331 1 1 0 31.36926695 9.41774744 7.50000000 0 0 0
332 1 1 0 32.09571320 10.63786047 7.50000000 0 0 0
333 1 1 0 33.51558512 10.61879620 7.50000000 0 0 0
334 1 1 0 34.20901119 9.37961890 7.50000000 0 0 0
335 1 1 0 35.62888321 9.36055463 7.50000000 0 0 0
336 1 1 0 36.35532946 10.58066766 7.50000000 0 0 0
337 1 1 0 37.77520138 10.56160340 7.50000000 0 0 0
338 1 1 0 38.46862745 9.32242610 7.50000000 0 0 0
339 1 1 0 39.88849947 9.30336183 7.50000000 0 0 0
340 1 1 0 40.61494572 10.52347486 7.50000000 0 0 0
341 1 1 0 42.03481764 10.50441059 7.50000000 0 0 0
342 1 1 0 42.72824371 9.26523329 7.50000000 0 0 0
343 1 1 0 44.14811573 9.24616902 7.50000000 0 0 0
344 1 1 0 44.87456198 10.46628206 7.50000000 0 0 0
345 1 1 0 46.29443390 10.44721779 7.50000000 0 0 0
346 1 1 0 46.98785997 9.20804049 7.50000000 0 0 0
347 1 1 0 48.40773200 9.18897622 7.50000000 0 0 0
348 1 1 0 49.13417824 10.40908925 7.50000000 0 0 0
349 1 1 0 50.55405016 10.39002499 7.50000000 0 0 0
350 1 1 0 51.24747624 9.15084768 7.50000000 0 0 0
351 1 1 0 52.66734826 9.13178342 7.50000000 0 0 0
352 1 1 0 53.39379450 10.35189645 7.50000000 0 0 0
353 1 1 0 54.81366642 10.33283218 7.50000000 0 0 0
354 1 1 0 55.50709250 9.09365488 7.50000000 0 0 0
355 1 1 0 56.92696452 9.07459061 7.50000000 0 0 0
356 1 1 0 57.65341076 10.29470364 7.50000000 0 0 0
357 1 1 0 59.07328268 10.27563938 7.50000000 0 0 0
358 1 1 0 59.76670876 9.03646208 7.50000000 0 0 0
359 1 1 0 61.18658078 9.01739781 7.50000000 0 0 0
360 1 1 0 61.91302703 10.23751084 7.50000000 0 0 0
361 1 1 0 63.33289895 10.21844657 7.50000000 0 0 0
362 1 1 0 64.02632502 8.97926927 7.50000000 0 0 0
363 1 1 0 65.44619704 8.96020501 7.50000000 0 0 0
364 1 1 0 66.17264329 10.18031804 7.50000000 0 0 0
365 1 1 0 67.59251521 10.16125377 7.50000000 0 0 0
366 1 1 0 68.28594128 8.92207647 7.50000000 0 0 0
367 1 1 0 69.70581330 8.90301220 7.50000000 0 0 0
368 1 1 0 70.43225955 10.12312523 7.50000000 0 0 0
369 1 1 0 71.85213147 10.10406097 7.50000000 0 0 0
370 1 1 0 72.54555754 8.86488366 7.50000000 0 0 0
371 1 1 0 73.96542956 8.84581940 7.50000000 0 0 0
372 1 1 0 74.69187581 10.06593243 7.50000000 0 0 0
373 1 1 0 76.11174773 10.04686816 7.50000000 0 0 0
374 1 1 0 76.80517380 8.80769086 7.50000000 0 0 0
375 1 1 0 78.22504582 8.78862659 7.50000000 0 0 0
376 1 1 0 78.95149207 10.00873963 7.50000000 0 0 0
377 1 1 0 80.37136399 9.98967536 7.50000000 0 0 0
378 1 1 0 81.06479006 8.75049806 7.50000000 0 0 0
379 1 1 0 82.48466208 8.73143379 7.50000000 0 0 0
380 1 1 0 83.21110833 9.95154682 7.50000000 0 0 0
381 1 1 0 84.63098025 9.93248256 7.50000000 0 0 0
382 1 1 0 85.32440632 8.69330525 7.50000000 0 0 0
383 1 1 0 86.74427834 8.67424099 7.50000000 0 0 0
384 1 1 0 87.47072459 9.89435402 7.50000000 0 0 0
385 1 1 0 88.89059651 9.87528975 7.50000000 0 0 0
386 1 1 0 89.58402258 8.63611245 7.50000000 0 0 0
387 1 1 0 91.00389460 8.61704818 7.50000000 0 0 0
388 1 1 0 0.16510139 12.29645166 7.50000000 0 0 0
389 1 1 0 1.58497341 12.27738740 7.50000000 0 0 0
390 1 1 0 2.31141965 13.49750043 7.50000000 0 0 0
391 1 1 0 3.73129157 13.47843616 7.50000000 0 0 0
392 1 1 0 4.42471765 12.23925886 7.50000000 0 0 0
393 1 1 0 5.84458967 12.22019459 7.50000000 0 0 0
394 1 1 0 6.57103592 13.44030762 7.50000000 0 0 0
395 1 1 0 7.99090784 13.42124336 7.50000000 0 0 0
396 1 1 0 8.68433391 12.18206605 7.50000000 0 0 0
397 1 1 0 10.10420593 12.16300179 7.50000000 0 0 0
398 1 1 0 10.83065218 13.38311482 7.50000000 0 0 0
399 1 1 0 12.25052410 13.36405055 7.50000000 0 0 0
400 1 1 0 12.94395017 12.12487325 7.50000000 0 0 0
401 1 1 0 14.36382219 12.10580898 7.50000000 0 0 0
402 1 1 0 15.09026844 13.32592202 7.50000000 0 0 0
403 1 1 0 16.51014036 13.30685775 7.50000000 0 0 0
404 1 1 0 17.20356643 12.06768045 7.50000000 0 0 0
405 1 1 0 18.62343845 12.04861618 7.50000000 0 0 0
406 1 1 0 19.34988470 13.26872921 7.50000000 0 0 0
407 1 1 0 20.76975662 13.24966495 7.50000000 0 0 0
408 1 1 0 21.46318269 12.01048764 7.50000000 0 0 0
409 1 1 0 22.88305471 11.99142338 7.50000000 0 0 0
410 1 1 0 23.60950096 13.21153641 7.50000000 0 0 0
411 1 1 0 25.02937288 13.19247214 7.50000000 0 0 0
412 1 1 0 25.72279895 11.95329484 7.50000000 0 0 0
413 1 1 0 27.14267097 11.93423057 7.50000000 0 0 0
414 1 1 0 27.86911722 13.15434360 7.50000000 0 0 0
415 1 1 0 29.28898914 13.13527934 7.50000000 0 0 0
416 1 1 0 29.98241521 11.89610204 7.50000000 0 0 0
417 1 1 0 31.40228723 11.87703777 7.50000000 0 0 0
418 1 1 0 32.12873348 13.09715080 7.50000000 0 0 0
419 1 1 0 33.54860540 13.07808653 7.50000000 0 0 0
420 1 1 0 34.24203147 11.83890923 7.50000000 0 0 0
421 1 1 0 35.66190349 11.81984496 7.50000000 0 0 0
422 1 1 0 36.38834974 13.03995800 7.50000000 0 0 0
423 1 1 0 37.80822166 13.02089373 7.50000000 0 0 0
424 1 1 0 38.50164773 11.78171643 7.50000000 0 0 0
425 1 1 0 39.92151975 11.76265216 7.50000000 0 0 0
426 1 1 0 40.64796600 12.98276519 7.50000000 0 0 0
427 1 1 0 42.06783792 12.96370093 7.50000000 0 0 0
428 1 1 0 42.76126399 11.72452362 7.50000000 0 0 0
429 1 1 0 44.18113601 11.70545936 7.50000000 0 0 0
430 1 1 0 44.90758226 12.92557239 7.50000000 0 0 0
431 1 1 0 46.32745418 12.90650812 7.50000000 0 0 0
432 1 1 0 47.02088025 11.66733082 7.50000000 0 0 0
433 1 1 0 48.44075227 11.64826655 7.50000000 0 0 0
434 1 1 0 49.16719852 12.86837958 7.50000000 0 0 0
435 1 1 0 50.58707044 12.84931532 7.50000000 0 0 0
436 1 1 0 51.28049651 11.61013802 7.50000000 0 0 0
437 1 1 0 52.70036853 11.59107375 7.50000000 0 0 0
438 1 1 0 53.42681478 12.81118678 7.50000000 0 0 0
439 1 1 0 54.84668670 12.79212251 7.50000000 0 0 0
440 1 1 0 55.54011277 11.55294521 7.50000000 0 0 0
441 1 1 0 56.95998479 11.53388095 7.50000000 0 0 0
442 1 1 0 57.68643104 12.75399398 7.50000000 0 0 0
443 1 1 0 59.10630296 12.73492971 7.50000000 0 0 0
444 1 1 0 59.79972903 11.49575241 7.50000000 0 0 0
445 1 1 0 61.21960105 11.47668814 7.50000000 0 0 0
446 1 1 0 61.94604730 12.69680117 7.50000000 0 0 0
447 1 1 0 63.36591922 12.67773691 7.50000000 0 0 0
448 1 1 0 64.05934529 11.43855960 7.50000000 0 0 0
449 1 1 0 65.47921731 11.41949534 7.50000000 0 0 0
450 1 1 0 66.20566356 12.63960837 7.50000000 0 0 0
451 1 1 0 67.62553548 12.62054410 7.50000000 0 0 0
452 1 1 0 68.31896155 11.38136680 7.50000000 0 0 0
453 1 1 0 69.73883357 11.36230253 7.50000000 0 0 0
454 1 1 0 70.46527982 12.58241557 7.50000000 0 0 0
455 1 1 0 71.88515174 12.56335130 7.50000000 0 0 0
456 1 1 0 72.57857782 11.32417400 7.50000000 0 0 0
457 1 1 0 73.99844984 11.30510973 7.50000000 0 0 0
458 1 1 0 74.72489608 12.52522276 7.50000000 0 0 0
459 1 1 0 76.14476800 12.50615850 7.50000000 0 0 0
460 1 1 0 76.83819408 11.26698119 7.50000000 0 0 0
461 1 1 0 78.25806610 11.24791693 7.50000000 0 0 0
462 1 1 0 78.98451234 12.46802996 7.50000000 0 0 0
463 1 1 0 80.40438426 12.44896569 7.50000000 0 0 0
464 1 1 0 81.09781034 11.20978839 7.50000000 0 0 0
465 1 1 0 82.51768236 11.19072412 7.50000000 0 0 0
466 1 1 0 83.24412861 12.41083715 7.50000000 0 0 0
467 1 1 0 84.66400053 12.39177289 7.50000000 0 0 0
468 1 1 0 85.35742660 11.15259559 7.50000000 0 0 0
469 1 1 0 86.77729862 11.13353132 7.50000000 0 0 0
470 1 1 0 87.50374487 12.35364435 7.50000000 0 0 0
471 1 1 0 88.92361679 12.33458008 7.50000000 0 0 0
472 1 1 0 89.61704286 11.09540278 7.50000000 0 0 0
473 1 1 0 91.03691488 11.07633851 7.50000000 0 0 0
474 1 1 0 0.19812166 14.75574199 7.50000000 0 0 0
475 1 1 0 1.61799368 14.73667773 7.50000000 0 0 0
476 1 1 0 2.34443993 15.95679076 7.50000000 0 0 0
477 1 1 0 3.76431185 15.93772649 7.50000000 0 0 0
478 1 1 0 4.45773792 14.69854919 7.50000000 0 0 0
479 1 1 0 5.87760994 14.67948492 7.50000000 0 0 0
480 1 1 0 6.60405619 15.89959796 7.50000000 0 0 0
481 1 1 0 8.02392811 15.88053369 7.50000000 0 0 0
482 1 1 0 8.71735418 14.64135639 7.50000000 0 0 0
483 1 1 0 10.13722620 14.62229212 7.50000000 0 0 0
484 1 1 0 10.86367245 15.84240515 7.50000000 0 0 0
485 1 1 0 12.28354437 15.82334089 7.50000000 0 0 0
486 1 1 0 12.97697044 14.58416358 7.50000000 0 0 0
487 1 1 0 14.39684246 14.56509932 7.50000000 0 0 0
488 1 1 0 15.12328871 15.78521235 7.50000000 0 0 0
489 1 1 0 16.54316063 15.76614808 7.50000000 0 0 0
490 1 1 0 17.23658671 14.52697078 7.50000000 0 0 0
491 1 1 0 18.65645873 14.50790651 7.50000000 0 0 0
492 1 1 0 19.38290497 15.72801954 7.50000000 0 0 0
493 1 1 0 20.80277689 15.70895528 7.50000000 0 0 0
494 1 1 0 21.49620297 14.46977798 7.50000000 0 0 0
495 1 1 0 22.91607499 14.45071371 7.50000000 0 0 0
496 1 1 0 23.64252123 15.67082674 7.50000000 0 0 0
497 1 1 0 25.06239315 15.65176247 7.50000000 0 0 0
498 1 1 0 25.75581923 14.41258517 7.50000000 0 0 0
499 1 1 0 27.17569125 14.39352090 7.50000000 0 0 0
500 1 1 0 27.90213750 15.61363394 7.50000000 0 0 0
501 1 1 0 29.32200942 15.59456967 7.50000000 0 0 0
502 1 1 0 30.01543549 14.35539237 7.50000000 0 0 0
503 1 1 0 31.43530751 14.33632810 7.50000000 0 0 0
504 1 1 0 32.16175376 15.55644113 7.50000000 0 0 0
505 1 1 0 33.58162568 15.53737687 7.50000000 0 0 0
506 1 1 0 34.27505175 14.29819956 7.50000000 0 0 0
507 1 1 0 35.69492377 14.27913530 7.50000000 0 0 0
508 1 1 0 36.42137002 15.49924833 7.50000000 0 0 0
509 1 1 0 37.84124194 15.48018406 7.50000000 0 0 0
510 1 1 0 38.53466801 14.24100676 7.50000000 0 0 0
511 1 1 0 39.95454003 14.22194249 7.50000000 0 0 0
512 1 1 0 40.68098628 15.44205552 7.50000000 0 0 0
513 1 1 0 42.10085820 15.42299126 7.50000000 0 0 0
514 1 1 0 42.79428427 14.18381396 7.50000000 0 0 0
515 1 1 0 44.21415629 14.16474969 7.50000000 0 0 0
516 1 1 0 44.94060254 15.38486272 7.50000000 0 0 0
517 1 1 0 46.36047446 15.36579846 7.50000000 0 0 0
518 1 1 0 47.05390053 14.12662115 7.50000000 0 0 0
519 1 1 0 48.47377255 14.10755689 7.50000000 0 0 0
520 1 1 0 49.20021880 15.32766992 7.50000000 0 0 0
521 1 1 0 50.62009072 15.30860565 7.50000000 0 0 0
522 1 1 0 51.31351679 14.06942835 7.50000000 0 0 0
523 1 1 0 52.73338881 14.05036408 7.50000000 0 0 0
524 1 1 0 53.45983506 15.27047711 7.50000000 0 0 0
525 1 1 0 54.87970698 15.25141285 7.50000000 0 0 0
526 1 1 0 55.57313305 14.01223554 7.50000000 0 0 0
527 1 1 0 56.99300507 13.99317128 7.50000000 0 0 0
528 1 1 0 57.71945132 15.21328431 7.50000000 0 0 0
529 1 1 0 59.13932324 15.19422004 7.50000000 0 0 0
530 1 1 0 59.83274931 13.95504274 7.50000000 0 0 0
531 1 1 0 61.25262133 13.93597847 7.50000000 0 0 0
532 1 1 0 61.97906758 15.15609151 7.50000000 0 0 0
533 1 1 0 63.39893950 15.13702724 7.50000000 0 0 0
534 1 1 0 64.09236557 13.89784994 7.50000000 0 0 0
535 1 1 0 65.51223759 13.87878567 7.50000000 0 0 0
536 1 1 0 66.23868384 15.09889870 7.50000000 0 0 0
537 1 1 0 67.65855576 15.07983444 7.50000000 0 0 0
538 1 1 0 68.35198183 13.84065713 7.50000000 0 0 0
539 1 1 0 69.77185385 13.82159287 7.50000000 0 0 0
540 1 1 0 70.49830010 15.04170590 7.50000000 0 0 0
541 1 1 0 71.91817202 15.02264163 7.50000000 0 0 0
542 1 1 0 72.61159809 13.78346433 7.50000000 0 0 0
543 1 1 0 74.03147011 13.76440006 7.50000000 0 0 0
544 1 1 0 74.75791636 14.98451309 7.50000000 0 0 0
545 1 1 0 76.17778828 14.96544883 7.50000000 0 0 0
546 1 1 0 76.87121435 13.72627153 7.50000000 0 0 0
547 1 1 0 78.29108637 13.70720726 7.50000000 0 0 0
548 1 1 0 79.01753262 14.92732029 7.50000000 0 0 0
549 1 1 0 80.43740454 14.90825602 7.50000000 0 0 0
550 1 1 0 81.13083061 13.66907872 7.50000000 0 0 0
551 1 1 0 82.55070263 13.65001445 7.50000000 0 0 0
552 1 1 0 83.27714888 14.87012749 7.50000000 0 0 0
553 1 1 0 84.69702080 14.85106322 7.50000000 0 0 0
554 1 1 0 85.39044687 13.61188592 7.50000000 0 0 0
555 1 1 0 86.81031889 13.59282165 7.50000000 0 0 0
556 1 1 0 87.53676514 14.81293468 7.50000000 0 0 0
557 1 1 0 88.95663706 14.79387042 7.50000000 0 0 0
558 1 1 0 89.65006313 13.55469311 7.50000000 0 0 0
559 1 1 0 91.06993515 13.53562885 7.50000000 0 0 0
560 1 1 0 0.23114194 17.21503233 7.50000000 0 0 0
561 1 1 0 1.65101396 17.19596806 7.50000000 0 0 0
562 1 1 0 2.37746021 18.41608109 7.50000000 0 0 0
563 1 1 0 3.79733213 18.39701683 7.50000000 0 0 0
564 1 1 0 4.49075820 17.15783952 7.50000000 0 0 0
565 1 1 0 5.91063022 17.13877526 7.50000000 0 0 0
566 1 1 0 6.63707647 18.35888829 7.50000000 0 0 0
567 1 1 0 8.05694839 18.33982402 7.50000000 0 0 0
568 1 1 0 8.75037446 17.10064672 7.50000000 0 0 0
569 1 1 0 10.17024648 17.08158245 7.50000000 0 0 0
570 1 1 0 10.89669273 18.30169548 7.50000000 0 0 0
571 1 1 0 12.31656465 18.28263122 7.50000000 0 0 0
572 1 1 0 13.00999072 17.04345392 7.50000000 0 0 0
573 1 1 0 14.42986274 17.02438965 7.50000000 0 0 0
574 1 1 0 15.15630899 18.24450268 7.50000000 0 0 0
575 1 1 0 16.57618091 18.22543841 7.50000000 0 0 0
576 1 1 0 17.26960698 16.98626111 7.50000000 0 0 0
577 1 1 0 18.68947900 16.96719684 7.50000000 0 0 0
578 1 1 0 19.41592525 18.18730988 7.50000000 0 0 0
579 1 1 0 20.83579717 18.16824561 7.50000000 0 0 0
580 1 1 0 21.52922324 16.92906831 7.50000000 0 0 0
581 1 1 0 22.94909526 16.91000404 7.50000000 0 0 0
582 1 1 0 23.67554151 18.13011707 7.50000000 0 0 0
583 1 1 0 25.09541343 18.11105281 7.50000000 0 0 0
584 1 1 0 25.78883950 16.87187550 7.50000000 0 0 0
585 1 1 0 27.20871152 16.85281124 7.50000000 0 0 0
586 1 1 0 27.93515777 18.07292427 7.50000000 0 0 0
587 1 1 0 29.35502969 18.05386000 7.50000000 0 0 0
588 1 1 0 30.04845576 16.81468270 7.50000000 0 0 0
589 1 1 0 31.46832778 16.79561843 7.50000000 0 0 0
590 1 1 0 32.19477403 18.01573146 7.50000000 0 0 0
591 1 1 0 33.61464595 17.99666720 7.50000000 0 0 0
592 1 1 0 34.30807202 16.75748990 7.50000000 0 0 0
593 1 1 0 35.72794404 16.73842563 7.50000000 0 0 0
594 1 1 0 36.45439029 17.95853866 7.50000000 0 0 0
595 1 1 0 37.87426221 17.93947440 7.50000000 0 0 0
596 1 1 0 38.56768829 16.70029709 7.50000000 0 0 0