ITEM: TIMESTEP
298
ITEM: NUMBER OF ATOMS
19496
ITEM: BOX BOUNDS pp pp pp
0.0000000000000000e+00 1.2124284700000000e+02
0.0000000000000000e+00 2.0999877200000000e+02
0.0000000000000000e+00 1.5000000000000000e+01
ITEM: ATOMS id type x y z c_csym c_2[1] c_2[2] c_2[3] c_2[4] c_2[5] c_2[6] c_3 
194 1 0.877161 8.57937 2.88611 6.01807 -169197 -150499 -2821.71 -16839 11950.7 -2954.17 -7.41379 
195 1 0.145122 7.36532 2.88314 6.02409 -155794 -163966 2658.05 -11784.3 13587.3 -1277.26 -7.41395 
196 1 0.830071 6.12395 2.88071 6.02265 -166074 -153381 -637.312 -8284.38 8211.82 -2453.62 -7.4137 
197 1 0.0974108 4.91022 2.87866 6.02645 -156835 -162599 1228.65 -4932.26 8015.5 -861.124 -7.41371 
198 1 0.781925 3.66865 2.87721 6.02582 -163222 -156104 388.808 -3053.08 4724.08 -1853.04 -7.41363 
199 1 0.0488892 2.45512 2.87607 6.02841 -158212 -161102 734.49 -1226.39 3563.91 -441.807 -7.4136 
200 1 0.733194 1.21345 2.87551 6.02868 -160703 -158418 673.066 -691.519 1498.77 -1239.35 -7.41358 
201 1 6.78127e-06 1.88788e-07 2.87523 6.02985 -159642 -159510 681.328 -78.5432 0.246541 1.24005 -7.41357 
366 1 2.29467 8.55124 2.88676 6.01996 -163499 -156616 3069.64 -13842.8 16419.5 -3900.5 -7.41411 
367 1 2.97966 7.30983 2.88431 6.02017 -174261 -145397 -557.835 -11669.6 10112.5 -7226.93 -7.41383 
368 1 2.24756 6.09579 2.88132 6.02308 -161787 -157932 1246.94 -5406.22 10287.4 -3572.78 -7.41382 
369 1 2.9321 4.85419 2.87983 6.02369 -168761 -150618 625.665 -4959.56 6471.27 -6056.15 -7.41373 
370 1 2.1994 3.64046 2.87778 6.0256 -160542 -158795 577.228 -298.846 5216.53 -3251.04 -7.41365 
371 1 2.88372 2.39877 2.87721 6.02683 -163938 -155411 875.351 -1373.13 3062.52 -4911.93 -7.41365 
372 1 2.15066 1.18524 2.87607 6.02743 -159789 -159443 574.053 1908.71 1200.64 -2997.94 -7.41359 
537 1 5.12843 8.49651 2.88982 6.01721 -185629 -134309 762.728 -13895.8 12411.7 -12722.4 -7.41409 
538 1 4.39712 7.28198 2.88585 6.01739 -169309 -150510 250.739 -4619.09 12858.9 -6348.76 -7.41394 
539 1 5.08171 6.04035 2.88435 6.02118 -177099 -142552 1836.06 -5511.95 8778.07 -11113.2 -7.41395 
540 1 4.34956 4.82628 2.88131 6.02156 -165361 -154152 -356.898 1930.43 7150.4 -6192.04 -7.41374 
541 1 5.0339 3.58457 2.88073 6.02466 -169582 -150033 1776 -570.587 5181.95 -9464.25 -7.41382 
542 1 4.30117 2.37083 2.87865 6.02434 -162188 -157251 -59.0518 5362.23 2484.96 -6094.97 -7.41366 
543 1 4.98549 1.12914 2.87895 6.02539 -162657 -156811 1025.02 1549.49 1673.02 -7981.1 -7.41372 
708 1 6.54585 8.46924 2.89226 6.00999 -180197 -140027 -2143.53 -2497.62 15522.5 -9047.16 -7.41406 
709 1 7.23049 7.22757 2.89081 6.01728 -188742 -131475 4459.09 -4376.96 11434.1 -16901.5 -7.41431 
710 1 6.49913 6.01299 2.88676 6.01575 -173015 -146609 -2480.75 5794.24 9343.93 -9256.71 -7.41384 
711 1 7.18352 4.77126 2.88619 6.02203 -178176 -141752 3851.82 2091 7824.12 -14934.5 -7.41411 
712 1 6.45134 3.55715 2.8831 6.02008 -167055 -152393 -1658.89 10641.8 4008.18 -9421.59 -7.41374 
713 1 7.13568 2.31546 2.88342 6.02287 -168456 -151382 2332.92 5346.14 4159.55 -13020.5 -7.41394 
714 1 6.40294 1.10166 2.8813 6.02214 -161774 -157666 -186.677 12514.8 -431.779 -9713.87 -7.41374 
879 1 9.37815 8.41634 2.89899 6.01048 -203218 -117126 8791.09 -1435.05 14103.3 -22957.8 -7.41483 
880 1 8.64787 7.20107 2.89406 6.00843 -184152 -135831 -6129.25 11523.4 11560.5 -12145.3 -7.41391 
881 1 9.3323 5.95931 2.89352 6.01681 -189901 -130583 7489.94 6780.26 10754.1 -20967.4 -7.41457 
882 1 8.60092 4.74466 2.88946 6.01504 -175073 -144672 -4609.72 17887.3 5707.63 -12773.6 -7.41382 
883 1 9.28531 3.50296 2.88981 6.02008 -177274 -143017 5009.57 11434.9 7109.77 -18836.8 -7.41431 
884 1 8.55311 2.28878 2.88672 6.01856 -166815 -152643 -2159.01 21018.1 624.289 -13394.5 -7.41384 
885 1 9.23766 1.04723 2.88797 6.01674 -165098 -154844 1853.4 13113.4 3278.97 -16791.2 -7.41409 
9774 2 0.54029 8.60674 6.51381 6.022 -152677 -167276 3850.59 16841.8 16844 692.311 -7.41411 
9775 2 0.587399 6.15177 6.51927 6.02468 -154484 -165068 1773.98 8228.95 10786.8 243.987 -7.41382 
9776 2 0.635554 3.69675 6.52279 6.02687 -156423 -162906 873.809 3044.21 5784.38 -196.181 -7.41365 
9777 2 0.684287 1.24168 6.52449 6.02865 -158483 -160610 672.996 781.696 1822.19 -678.607 -7.41358 
9778 2 5.02972e-06 -3.67575e-06 6.52477 6.02988 -159587 -159483 681.285 126.639 0.378934 -0.828192 -7.41357 
9942 2 1.95785 8.63492 6.51324 6.01571 -158254 -161342 -2480.32 14395.7 12689.4 -3464.03 -7.41384 
9943 2 2.69025 7.42107 6.51565 6.02106 -146584 -173212 1835.92 12176.4 14014.1 -2046.01 -7.41395 
9944 2 2.00492 6.17997 6.51868 6.0216 -158740 -160847 -358.03 5809 8938.18 -3096.3 -7.41374 
9945 2 2.73781 4.96637 6.52017 6.02367 -151059 -168515 625.685 5348.59 8482.41 -2576.54 -7.41373 
9946 2 2.05305 3.72496 6.52221 6.0256 -159060 -160320 577.319 590.437 5423.72 -2893.1 -7.41365 
9947 2 2.78619 2.51149 6.52279 6.0258 -155232 -163952 390.479 1584.58 3967.57 -3164.42 -7.41363 
9948 2 2.10176 1.2699 6.52393 6.02836 -159426 -159901 735.929 -1777.67 2165.35 -2867.07 -7.4136 
9949 2 2.83495 0.056443 6.52365 6.02731 -159534 -159677 636.823 422.646 272.312 -3927.87 -7.41361 
10113 2 4.79399 8.6896 6.51018 6.01729 -135276 -184787 762.293 15207.3 17223.4 -4388.01 -7.41409 
10114 2 4.10783 7.44901 6.51415 6.01738 -151353 -168583 250.644 5740.84 11926.7 -7960.35 -7.41394 
10115 2 4.84068 6.23538 6.51569 6.02016 -142578 -177127 -557.958 6581.54 11315.4 -5145.6 -7.41383 
10116 2 4.15534 4.99433 6.51868 6.02313 -154390 -165465 1248.15 -1130.65 8236.4 -7122.87 -7.41381 
10117 2 4.88847 3.78083 6.51929 6.02267 -149454 -169918 -635.21 1353.9 6230.33 -5884.83 -7.41371 
10118 2 4.20368 2.53946 6.52134 6.02647 -156914 -162494 1231.41 -4872.22 4753.29 -6513.18 -7.41371 
10119 2 4.93688 1.32599 6.52106 6.02392 -156137 -163200 57.6419 -1220.53 1997.47 -6787.6 -7.41367 
10120 2 4.25242 0.0844131 6.52221 6.02554 -159503 -159879 635.436 -6184.05 1326.93 -6176.2 -7.41365 
10284 2 6.21165 8.71706 6.50779 6.01276 -140432 -180139 2228.14 4632.08 15252.9 -13567.2 -7.41428 
10285 2 6.94444 7.50338 6.50936 6.0163 -130674 -189239 -3075.98 6703.72 14049.2 -7808.02 -7.41393 
10286 2 6.25826 6.26285 6.51324 6.01995 -146401 -173716 3069.58 -4004.96 11587.8 -12269.2 -7.41411 
10287 2 6.99138 5.04932 6.51389 6.01805 -140663 -179029 -2820.97 -353.533 8534.6 -8873.13 -7.41379 
10288 2 6.306 3.80833 6.51687 6.0241 -151860 -168043 2659.84 -9400.64 7900.85 -11128.9 -7.41394 
10289 2 7.0392 2.59482 6.51659 6.01951 -150112 -169493 -1503.15 -4353.99 3751.59 -9993.52 -7.41377 
10290 2 6.35436 1.35349 6.51867 6.0232 -156942 -162804 1418.75 -12056.5 4266.13 -10263.9 -7.41382 
10291 2 7.08743 0.139892 6.51748 6.02075 -159263 -160444 381.498 -5939.1 -385.331 -11351.8 -7.41382 
10455 2 9.04941 8.76992 6.50144 6.01194 -115388 -204997 -7237.54 5259.26 16350.7 -10244 -7.414 
10456 2 8.36211 7.53009 6.50599 6.01657 -134871 -185774 6444.19 -8271.81 15185.7 -17995.4 -7.41455 
10457 2 9.0952 6.31651 6.50666 6.01266 -128400 -191569 -6512.02 -3578.48 10637.4 -11845.3 -7.41386 
10458 2 8.40897 5.07606 6.51046 6.02053 -143555 -176826 5466.65 -15481.3 11508.4 -16522.9 -7.41432 
10459 2 9.14217 3.8625 6.5102 6.01307 -141010 -178845 -4427.2 -9284.85 5432.24 -13356.3 -7.41385 
10460 2 8.45672 2.62157 6.51319 6.02027 -151568 -168532 3393.26 -19694.1 7709.67 -15217.1 -7.41411 
10461 2 9.1898 1.40792 6.51201 6.01438 -153189 -166732 -1465.93 -12307.7 835.794 -14964.3 -7.41393 
10462 2 8.5049 0.166632 6.51415 6.01944 -159158 -160498 683.572 -21526.2 3752.52 -14174.9 -7.41395 
1050 1 10.7955 8.39098 2.90286 6.00024 -198101 -121889 -11508 18751.5 13458.9 -14453.8 -7.41394 
1051 1 11.48 7.1492 2.90237 6.01013 -204342 -116187 12896.1 13508 13645 -26930.8 -7.41519 
1052 1 10.7497 5.93383 2.89751 6.00801 -186170 -133597 -9192.62 27122.3 7357.04 -15734.6 -7.41387 
1053 1 11.4341 4.69213 2.89787 6.01622 -189016 -131694 9376.89 19802.4 10287 -24870.7 -7.41485 
1054 1 10.7027 3.47738 2.89391 6.01389 -175038 -144960 -5636.26 31854.5 1775.79 -16853.2 -7.41392 
1055 1 11.3873 2.23586 2.89518 6.0125 -173970 -146724 4876.18 22861.6 6572.5 -22670.2 -7.41452 
1056 1 10.6551 1.02158 2.89218 6.01567 -164367 -155653 -1388.59 33506.7 -3145.24 -17970.8 -7.41407 
1221 1 13.6263 8.34136 2.91212 6.00254 -220337 -99849.5 20021.2 21903.2 16190.1 -32150.1 -7.41596 
1222 1 12.8973 7.12512 2.90675 6.00041 -200048 -120024 -15518 37934.4 8676.68 -17894.3 -7.41385 
1223 1 13.5818 5.88344 2.9071 6.00982 -203092 -117751 15530 30274 13379.4 -30417.5 -7.41554 
1224 1 12.8514 4.66796 2.9025 6.00859 -186177 -134160 -10839.9 44695.4 2832.72 -19629.6 -7.41395 
1225 1 13.5361 3.42647 2.90373 6.00848 -185628 -135533 9692.22 35010 10014.4 -28326.5 -7.41511 
1226 1 12.8047 2.21162 2.90003 6.01222 -172558 -147789 -5122.43 47878.6 -2504.42 -21206.1 -7.41415 
1227 1 13.4898 0.970417 2.90216 6.00371 -168143 -152975 3086.92 36392.3 6227.23 -26039.9 -7.4147 
1392 1 15.0436 8.31889 2.91648 5.99286 -215372 -104487 -23442.9 49491.9 9469.72 -19028.1 -7.41374 
1393 1 15.7283 7.07726 2.91678 6.00272 -218357 -102024 23293 41941.6 16114.2 -34863.2 -7.41636 
1394 1 14.9991 5.86093 2.91183 6.00223 -199568 -120824 -17773.7 58518.2 3605.42 -21386.3 -7.41389 
1395 1 15.6839 4.61949 2.91297 6.00385 -199184 -121796 16287.5 48699.5 13316.8 -33099 -7.41584 
1396 1 14.9535 3.40391 2.90882 6.00878 -183574 -137073 -10668.1 63754.2 -1954.94 -23474.6 -7.41416 
1397 1 15.6387 2.16277 2.91084 5.99875 -179563 -141758 8110.51 51847.3 9962.28 -30934.3 -7.41531 
1398 1 14.9072 0.947806 2.90757 6.0066 -167494 -153290 -2750.62 65373.4 -7002.53 -25383.6 -7.41453 
1563 1 17.8733 8.27381 2.9262 5.9955 -233439 -85317.2 32250.5 54013.3 18316.5 -37853 -7.41726 
1564 1 17.1455 7.05653 2.92119 5.99559 -214025 -105983 -26171.8 72605.2 3989.75 -22013.7 -7.41375 
1565 1 17.8305 5.8152 2.92216 5.99835 -213621 -106798 24382.4 63125.6 16243 -36529.9 -7.41668 
1566 1 17.1012 4.59878 2.91785 6.00461 -196418 -124393 -17923.4 80149.9 -1602.11 -24565.2 -7.41408 
1567 1 17.7866 3.35775 2.91967 5.99466 -192752 -128540 14905.3 68346.3 13481.3 -34669.7 -7.41605 
1568 1 17.056 2.14205 2.91618 6.00247 -178307 -142719 -8431.42 83747.3 -6802.26 -26847.4 -7.41452 
1569 1 17.7419 0.901428 2.9188 5.98863 -171097 -150548 4466.41 69695.3 10146.3 -32366 -7.41542 
10626 2 10.4672 8.79556 6.49732 6.01244 -119960 -201111 11591.5 -13756.9 18595.7 -23728.4 -7.41516 
10627 2 11.2002 7.58192 6.49797 6.00579 -113024 -207273 -11919.2 -8365.09 12273.5 -14367.7 -7.41388 
10628 2 10.5129 6.34217 6.50233 6.01479 -131786 -189004 9965.45 -23007.1 15259.4 -22186.9 -7.41486 
10629 2 11.2461 5.12856 6.50211 6.00555 -128789 -191363 -8993.51 -15968.4 6843.26 -16436.5 -7.4139 
10630 2 10.5597 3.88819 6.50583 6.01488 -143098 -177346 6941.64 -29151 11520.2 -20638.9 -7.41456 
10631 2 11.2928 2.67447 6.50471 6.00675 -144212 -176053 -4861.45 -20750 1895.26 -18438.3 -7.41403 
10632 2 10.6073 1.4336 6.5077 6.01573 -153907 -166385 2986.47 -32525.1 7511.21 -19216 -7.41429 
10633 2 11.3401 0.21967 6.50565 6.0091 -159277 -161318 -54.4235 -22997.9 -2541.07 -20502.5 -7.41424 
10797 2 13.3067 8.84515 6.48846 5.99829 -95368.9 -225095 -19035.4 -14611.7 13261.5 -16069 -7.41382 
10798 2 12.618 7.60624 6.49298 6.00788 -116889 -203924 16243 -31655.6 18710 -27493.2 -7.41556 
10799 2 13.3511 6.39254 6.49279 5.99733 -113621 -206434 -15308.1 -24175.2 7800.04 -18764.5 -7.41388 
10800 2 12.6637 5.15288 6.49695 6.0077 -131430 -189156 12268 -39905.7 15353.2 -25933.2 -7.41517 
10801 2 13.3968 3.93908 6.49592 5.99802 -132232 -188158 -10010.9 -30929.4 2652.81 -21268.4 -7.41407 
10802 2 12.7104 2.69879 6.49955 6.00889 -145620 -175009 7021.04 -45205.2 11517.5 -24322.6 -7.41478 
10803 2 13.4432 1.48477 6.49767 6.00021 -150462 -170376 -3682.01 -34894.8 -2022.68 -23676.8 -7.41435 
10804 2 12.7575 0.243965 6.50061 6.0111 -159278 -161211 1032.47 -47872.6 7260.91 -22745.1 -7.41444 
10968 2 14.7246 8.86788 6.48311 6.00022 -99789 -220307 24114 -40857.7 21462.6 -31900.5 -7.41638 
10969 2 15.4576 7.65407 6.48293 5.98924 -96804 -222949 -23224.7 -33496.2 8238.26 -20043.6 -7.41378 
10970 2 14.7689 6.41522 6.48713 5.9996 -116975 -203119 19321.5 -51414.5 18792.8 -30508.8 -7.41592 
10971 2 15.5019 5.20132 6.48625 5.9892 -118019 -202339 -16908.4 -42347.9 3028.88 -23053.3 -7.41402 
10972 2 14.8144 3.96174 6.49018 6.00051 -134400 -186161 12875.4 -59037.7 15421.5 -28906.4 -7.41544 
10973 2 15.5472 2.74761 6.48856 5.99088 -139142 -181945 -9157.74 -48395.9 -1793.33 -25858.8 -7.41438 
10974 2 14.8607 1.50741 6.49203 6.00289 -151280 -169624 5314.55 -63673.9 11482.5 -27185 -7.41496 
10975 2 15.5929 0.292923 6.48962 5.99407 -159612 -161836 -595.704 -51555 -6122.28 -28493.6 -7.41482 
11139 2 17.5656 8.91292 6.47324 5.98193 -79162.8 -239316 -32342.7 -43125.5 8204.69 -20238.6 -7.41358 
11140 2 16.8755 7.67495 6.47709 5.99116 -100899 -217889 27792 -62856.7 21491.9 -33948.3 -7.41678 
11141 2 17.6084 6.46091 6.47636 5.98087 -102225 -217306 -25285.6 -54241.4 3044.24 -23641.3 -7.41388 
11142 2 16.9196 5.22213 6.48023 5.99158 -120933 -198808 20383.9 -72919.6 18843.6 -32494.4 -7.41621 
11143 2 17.6524 4.00787 6.47892 5.98168 -125653 -194814 -16366.5 -62477.4 -1847.27 -26801.5 -7.4143 
11144 2 16.9648 2.76837 6.4826 5.99362 -140766 -179804 11441.5 -79818.9 15466.8 -30799 -7.41562 
11145 2 17.697 1.55377 6.48064 5.98431 -148822 -172629 -6208.92 -67701.3 -6266.36 -29718.7 -7.41483 
11146 2 17.0104 0.313658 6.4839 5.99725 -159827 -161220 1601.7 -83535.7 11442.8 -28915.5 -7.41505 
1734 1 19.2905 8.25492 2.92992 5.98961 -228319 -90695.8 -35542.8 85789.5 3989.5 -21632.5 -7.41352 
1735 1 19.9758 7.01375 2.93067 5.99339 -227543 -91181.8 33490.3 77293.1 18645.1 -38454.5 -7.41757 
1736 1 19.2477 5.79642 2.92644 5.99987 -209952 -110296 -26520.9 96041.5 -1479.76 -24507.8 -7.4139 
1737 1 19.9333 4.55553 2.928 5.99004 -206348 -113957 23110.5 84910.1 16581.2 -36986.2 -7.41687 
1738 1 19.2039 3.33902 2.92452 5.99912 -190669 -130217 -15803.6 101991 -6700.27 -27085.3 -7.41441 
1739 1 19.8899 2.09852 2.92687 5.98426 -183988 -137325 11306.5 88296.7 13853.5 -34972.4 -7.41613 
1740 1 19.1593 0.882728 2.92415 5.99243 -170646 -150498 -4090.33 103657 -11422.1 -29392.3 -7.41502 
1905 1 22.1197 8.21512 2.93808 5.9873 -240165 -76177.2 43039.7 90198.6 20463 -38971.5 -7.41846 
1906 1 21.3929 6.99687 2.93404 5.99475 -222939 -96167.5 -35914.2 110333 -1549.81 -23518.1 -7.41365 
1907 1 22.0789 5.75617 2.9353 5.98494 -219519 -99396.1 32203.3 100370 19137.2 -37893 -7.41772 
1908 1 21.3505 4.5388 2.932 5.99667 -203362 -116991 -24423.4 118875 -6686.91 -26258.4 -7.41421 
1909 1 22.0369 3.29847 2.93405 5.9811 -197158 -123154 19504.3 106204 17071.9 -36238.4 -7.4169 
1910 1 21.3073 2.08189 2.9315 5.98861 -182712 -138073 -11464.6 122919 -11418.7 -28717.7 -7.41489 
1911 1 21.9943 0.842026 2.93422 5.97452 -173667 -147458 5642 107700 14340.6 -34058.9 -7.41606 
2076 1 23.5368 8.20007 2.94038 5.99045 -234582 -82526.2 -45523.6 122442 -1732.37 -21889.1 -7.41335 
2077 1 24.2232 6.95961 2.94128 5.98078 -231178 -85295.1 41623 114026 21110.1 -37592.6 -7.41856 
2078 1 23.496 5.74137 2.93825 5.99337 -215527 -103689 -33721.2 133659 -6714.59 -24649.7 -7.41393 
2079 1 24.1827 4.50124 2.93996 5.97726 -209856 -109089 28520.8 122401 19715.5 -36294.7 -7.4177 
2080 1 23.4542 3.28384 2.9377 5.98585 -194957 -125172 -20023.8 140222 -11403 -27150 -7.41465 
2081 1 24.1414 2.04414 2.94013 5.97152 -186916 -133509 13803 126183 17606.1 -34462.1 -7.41679 
2082 1 23.4116 0.827493 2.93854 5.97827 -173387 -147076 -5168.55 142029 -15540 -29391.2 -7.41547 
2247 1 26.3663 8.16567 2.94586 5.97763 -240948 -72625.8 50894.3 125369 22518.1 -36378 -7.41937 
2248 1 25.6403 6.94659 2.94309 5.98988 -226131 -90991.3 -43153.8 145716 -6730.19 -22565.6 -7.41361 
2249 1 26.3274 5.7067 2.94444 5.9733 -221041 -95711.2 37821.5 136163 21766.4 -35388.8 -7.41849 
2250 1 25.5999 4.48848 2.94249 5.98413 -206577 -112443 -29203.2 154818 -11338.3 -25002.2 -7.41434 
2251 1 26.2875 3.24898 2.94463 5.96969 -199316 -119732 22759.1 142434 20263.8 -33898.7 -7.41753 
2252 1 25.5587 2.03156 2.94341 5.97548 -185612 -134305 -13653.9 159141 -15480.1 -27206.4 -7.4152 
2253 1 26.2469 0.792527 2.94614 5.96309 -175934 -144124 6417.64 144197 18046.9 -31941.4 -7.41653 
2418 1 27.7833 8.15426 2.94654 5.98723 -234910 -79963.4 -52295.3 154831 -6688.85 -20267.9 -7.41327 
2420 1 27.7445 5.69564 2.94583 5.98223 -216606 -100472 -38497.5 166430 -11185.6 -22564 -7.41399 
2422 1 27.7047 3.23817 2.94682 5.97377 -196860 -121854 -22746.1 173317 -15321.2 -24657.9 -7.41485 
2424 1 27.6643 0.781862 2.94913 5.96594 -175663 -143601 -5769.19 175262 -18853.3 -26550.3 -7.41582 
11310 2 18.9836 8.93194 6.46747 5.98302 -84167.1 -232038 37178.3 -73458.9 23275.9 -36084.1 -7.4177 
11311 2 19.7163 7.71771 6.46686 5.97349 -86139.4 -231555 -34654.7 -65856.4 2807.64 -23140.3 -7.41365 
11312 2 19.0262 6.47977 6.47036 5.98268 -106122 -211710 29144.1 -86019.7 21506.9 -34830.9 -7.41708 
11313 2 19.7588 5.26535 6.46935 5.97338 -111050 -208110 -24944.4 -76367.5 -2090.85 -26527.4 -7.41412 
11314 2 19.07 4.02663 6.47293 5.98417 -128216 -191087 19154.5 -95428.6 18886.5 -33270.7 -7.41639 
11315 2 19.8022 2.81189 6.47146 5.97514 -136187 -184525 -13541.6 -83877.8 -6583.87 -29659.8 -7.41472 
11316 2 19.1145 1.57248 6.47488 5.98741 -149949 -170817 7828.78 -101429 15506.6 -31450.8 -7.4157 
11317 2 19.8461 0.357282 6.47285 5.97874 -160643 -160917 -1183.61 -87877.1 -10518.3 -32498 -7.4154 
11481 2 21.8257 8.97173 6.45812 5.9675 -70694.9 -244343 -44434.1 -76515.7 2444.83 -21815.3 -7.41336 
11482 2 21.1343 7.73462 6.46104 5.97441 -91046.9 -223892 38628.3 -97697.1 23299.3 -35903.5 -7.41798 
11483 2 21.8666 6.52 6.46029 5.96623 -96506.9 -220669 -34359 -89370.3 -2394.07 -25265.9 -7.41386 
11484 2 21.1766 5.28207 6.46353 5.97511 -114708 -202495 28004.3 -109561 21537.7 -34513.7 -7.41723 
11485 2 21.9087 4.06717 6.46253 5.96702 -122845 -196515 -22163.5 -99089.5 -6940.15 -28491.6 -7.4145 
11486 2 21.2198 2.82851 6.46587 5.97769 -138327 -181021 15605.2 -118033 18931.6 -32840.2 -7.41644 
11487 2 21.9514 1.61318 6.46451 5.96971 -148817 -172018 -8545.33 -105371 -10957.8 -31446.4 -7.41525 
11488 2 21.2635 0.373879 6.46767 5.98221 -161175 -159554 2167.77 -122591 15539.2 -30908.1 -7.41564 
11652 2 23.2437 8.98676 6.45254 5.96726 -76650.1 -234232 48285 -107363 24265 -35879.3 -7.41886 
11653 2 23.9758 7.7719 6.45196 5.96074 -82601.7 -231521 -44044.2 -100718 -2645.36 -23340.5 -7.41354 
11654 2 23.2845 6.53476 6.45472 5.96698 -101273 -212910 37459.1 -121639 23371.2 -34636.4 -7.41809 
11655 2 24.0164 5.31965 6.45411 5.96039 -109437 -207640 -31530.5 -112712 -7203.65 -26523.3 -7.4142 
11656 2 23.3264 4.08176 6.45721 5.9687 -126120 -191183 24456.3 -132506 21589 -33130.5 -7.41724 
11657 2 24.0578 2.86627 6.45645 5.96203 -136328 -183052 -17150.4 -121161 -11318.8 -29487 -7.41499 
11658 2 23.3689 1.62769 6.45961 5.97246 -150418 -169167 9964.16 -139395 18963.9 -31381 -7.41635 
11659 2 24.0996 0.41169 6.45853 5.96577 -162484 -158358 -1727.37 -125734 -14806.5 -32161.4 -7.41587 
11823 2 26.0863 9.02126 6.4444 5.95664 -70214.5 -240218 -53527.7 -109970 -2792.75 -21059.4 -7.41319 
11824 2 25.3938 7.78485 6.44662 5.96016 -88513.1 -221680 47006.4 -131176 24451.6 -33867.9 -7.41893 
11825 2 26.1254 6.5695 6.44628 5.95526 -96878 -217170 -41109.5 -124145 -7299.74 -24087.6 -7.41385 
11826 2 25.4342 5.33234 6.44904 5.96086 -113879 -200278 33860.2 -144402 23477 -32505.1 -7.41805 
11827 2 26.1655 4.11666 6.44879 5.95579 -123910 -193214 -26460.9 -134882 -11490.8 -26952.5 -7.41464 
11828 2 25.4754 2.87881 6.45184 5.96365 -139066 -178465 18810.1 -153733 21633.4 -30943.2 -7.4171 
11829 2 26.2061 1.66268 6.45149 5.9584 -150669 -168749 -10311.5 -141615 -15116.5 -29596.9 -7.41555 
11830 2 25.517 0.424202 6.45454 5.96855 -163202 -156391 2665.17 -158706 18951 -29180.1 -7.41613 
11994 2 27.5044 9.03257 6.4392 5.9548 -77204.3 -228527 56235.3 -138302 24913 -32470.8 -7.41972 
11996 2 27.5432 6.58046 6.44138 5.9544 -102515 -207941 43333 -153627 24684.3 -31209.9 -7.41884 
11998 2 27.5831 4.1274 6.44439 5.95611 -127872 -186765 28192.2 -165164 23586.1 -29806.8 -7.41786 
12000 2 27.6236 1.67331 6.44774 5.95997 -152641 -165324 11527.8 -172535 21634 -28258.1 -7.41684 
2417 1 28.5082 9.37413 2.94911 5.97536 -247904 -62001 59674.8 134069 23414 -34536.4 -7.42012 
2419 1 28.4709 6.91464 2.9475 5.97037 -230290 -83830 46964.4 147310 23256.7 -33793.4 -7.41924 
2421 1 28.4325 4.45636 2.94767 5.9668 -210395 -106699 31996.2 156010 22326.1 -32608.8 -7.41826 
2423 1 28.3932 1.99931 2.94937 5.96154 -188495 -130528 15351.7 160114 20666.7 -30987 -7.41722 
2588 1 29.9252 9.36415 2.94874 5.98425 -240848 -70482.9 -60861.8 161189 -6563.59 -17941.5 -7.41293 
2589 1 30.6133 8.12483 2.94928 5.96833 -237008 -73707 55641.4 155644 24237.7 -31747.1 -7.41994 
2590 1 29.888 6.9051 2.94781 5.97966 -224743 -90077.9 -47522 175055 -10923.3 -20051.6 -7.41362 
2591 1 30.5764 5.66607 2.94932 5.9641 -219398 -95326.4 41099 166708 23833.8 -30818.8 -7.41897 
2592 1 29.8496 4.44715 2.94877 5.97303 -206815 -110490 -31972.4 184405 -15041.8 -21992 -7.41447 
2593 1 30.5384 3.20849 2.95114 5.96008 -199598 -117846 24582.4 173288 22693.4 -29503.3 -7.41791 
2594 1 29.8105 1.99031 2.95133 5.96438 -187095 -131279 -14819.5 188856 -18643.5 -23756.4 -7.41543 
2595 1 30.4999 0.752094 2.95428 5.95431 -177730 -140755 6777.77 175219 20835.1 -27823.5 -7.41682 
2759 1 32.7548 9.33699 2.95002 5.96715 -241276 -65776 63664.8 161366 24772.9 -29428.8 -7.42058 
2760 1 32.0304 8.1166 2.94861 5.97788 -230459 -81443.5 -56017.1 180815 -10546 -17608.7 -7.41326 
2761 1 32.7193 6.87785 2.94979 5.96231 -226013 -85696.7 49778.8 174602 24850 -28709.8 -7.41963 
2762 1 31.9935 5.65825 2.94943 5.97281 -214614 -100526 -40972.3 192435 -14625.4 -19375.3 -7.41407 
2763 1 32.6827 4.41981 2.95159 5.95891 -208679 -106710 33718.5 183476 24189.9 -27659.9 -7.41858 
2764 1 31.9556 3.20095 2.95211 5.96378 -196934 -120196 -24038.4 199333 -18294.4 -20991.5 -7.41501 
2765 1 32.6453 1.96289 2.95502 5.95292 -188964 -128259 16035.1 187838 22819.5 -26281.4 -7.41747 
2766 1 31.9172 0.74472 2.95616 5.95622 -177450 -140152 -5907.44 201484 -21333.4 -22461.1 -7.41606 
2930 1 34.1718 9.32989 2.94855 5.97683 -233855 -74766.4 -63832.6 183993 -10065.9 -15307.8 -7.41292 
2931 1 34.8613 8.09144 2.94938 5.96134 -230369 -78087.6 57852.1 179875 25433.5 -26412.4 -7.42024 
2932 1 34.1364 6.87123 2.94904 5.97118 -220129 -92267.9 -49505.5 197658 -14081.9 -16903.1 -7.41368 
2933 1 34.826 5.63303 2.95098 5.95729 -215475 -97289.6 42478.3 190920 25214.9 -25586.3 -7.41921 
2934 1 34.0998 4.41354 2.95168 5.96386 -204753 -110533 -33090.1 206868 -17802.9 -18369.2 -7.41458 
2935 1 34.7899 3.17567 2.95453 5.95236 -198414 -117325 25240.9 197532 24297.4 -24475.9 -7.41811 
2936 1 34.0626 1.95686 2.95603 5.95575 -187430 -129203 -15160.3 211414 -20981.4 -19703.3 -7.4156 
2937 1 34.7531 0.719368 2.95947 5.94708 -179182 -137713 6779.22 199705 22688.3 -23097.3 -7.41697 
3101 1 37.0024 9.30658 2.94851 5.961 -232202 -72501.6 65236.4 182671 25649.8 -24017.7 -7.4208 
3102 1 36.2783 8.08584 2.94799 5.97029 -223448 -85985.6 -57418.8 200351 -13423.5 -14610.3 -7.41331 
3103 1 36.9685 6.8479 2.94968 5.95644 -219934 -89864.9 50685.2 195765 25837.5 -23371.4 -7.4198 
3104 1 36.2431 5.62785 2.95036 5.96443 -210373 -102561 -41736.1 211700 -17170.6 -15938.8 -7.41416 
3105 1 36.9335 4.39017 2.9531 5.95249 -205494 -108107 34121.4 204538 25338.8 -22491.8 -7.41872 
3106 1 36.207 3.17079 2.95477 5.95595 -195592 -119810 -24301.5 218532 -20477.2 -17150.2 -7.41514 
3107 1 36.8978 1.93343 2.95828 5.94664 -188765 -126858 16053.7 209038 24169.8 -21377 -7.41758 
3108 1 36.1704 0.714646 2.96062 5.94903 -178840 -137112 -5755.71 220784 -23150.6 -18253.7 -7.41622 
11995 2 28.2356 7.81694 6.439 5.95166 -85496.9 -224761 -50475.7 -133288 -7208.18 -21460.9 -7.41348 
11997 2 28.2743 5.36456 6.4415 5.95109 -112322 -201845 -35978.6 -146110 -11421 -24145.2 -7.41425 
11999 2 28.3137 2.9111 6.44464 5.95258 -139150 -178386 -19594.2 -155056 -15177.1 -26674.5 -7.41517 
12001 2 28.3535 0.456494 6.44788 5.95606 -164758 -154504 -2158.95 -159783 -18283.9 -28982.8 -7.41617 
12165 2 30.3469 9.06222 6.43221 5.94952 -75896.7 -230154 -59328.6 -139878 -6961.43 -18843.7 -7.41311 
12166 2 29.6535 7.82638 6.43418 5.94947 -92245.8 -213756 52495.7 -160038 25326.5 -29482.3 -7.41959 
12167 2 30.3842 6.61021 6.43452 5.94793 -101936 -208839 -45312.5 -154753 -11125.2 -21292.7 -7.41385 
12168 2 29.692 5.37369 6.4372 5.95004 -117547 -193799 37651.7 -173774 24911.2 -28199.2 -7.41861 
12169 2 30.4224 4.1572 6.43791 5.94825 -128285 -186710 -29109.1 -165788 -14969.7 -23644.2 -7.41474 
12170 2 29.7313 2.92005 6.44102 5.95274 -142319 -173301 20926.9 -183395 23646 -26830.7 -7.41755 
12171 2 30.4611 1.70311 6.44186 5.9505 -153834 -163863 -11440.6 -172682 -18251.3 -25844.6 -7.41575 
12172 2 29.7709 0.465402 6.44507 5.95754 -165666 -152353 3127 -188471 21544.2 -25358.7 -7.41648 
12336 2 31.7649 9.07035 6.42742 5.94603 -83646.8 -217656 61091.1 -164033 25525.9 -27512.7 -7.42028 
12337 2 32.4952 7.85389 6.42784 5.946 -92833.2 -213714 -54182 -160883 -10652.6 -18549.1 -7.41346 
12338 2 31.802 6.61794 6.43024 5.94545 -108211 -198952 46833.9 -179648 25720.5 -26319.6 -7.41931 
12339 2 32.5321 5.40122 6.43126 5.94524 -118356 -193127 -38484.6 -173907 -14521.4 -20682.7 -7.41431 
12340 2 31.84 4.16467 6.43432 5.94694 -132630 -179764 30422.8 -191335 25083.5 -25092.9 -7.41826 
12341 2 32.5697 2.94758 6.4357 5.94599 -143535 -171913 -20986.7 -182940 -17944.7 -22723.6 -7.41528 
12342 2 31.8785 1.71047 6.43908 5.95054 -155975 -160134 12554.3 -198745 23616.3 -23817.2 -7.41716 
12343 2 32.6076 0.492885 6.44051 5.94839 -167410 -150169 -2502.55 -187631 -20736.3 -24612.4 -7.41635 
12507 2 34.6071 9.09586 6.42155 5.94542 -85583 -216768 -62408.9 -164691 -10072.7 -16006.7 -7.4131 
12508 2 33.9131 7.86042 6.42355 5.9423 -100122 -202457 55491.3 -183117 26111 -24316 -7.41998 
12509 2 34.6428 6.64344 6.42475 5.94359 -109834 -197912 -47455.6 -179632 -13897.7 -17898.7 -7.41389 
12510 2 33.9498 5.40742 6.42764 5.9426 -123916 -184787 39679.9 -196759 26036.9 -23200.8 -7.41894 
12511 2 34.6792 4.19014 6.42941 5.9427 -134099 -178313 -30449.2 -190611 -17409.3 -19745.4 -7.41482 
12512 2 33.9872 2.95357 6.43288 5.94495 -146938 -166619 22104.1 -206181 25151.5 -22082.1 -7.41783 
12513 2 34.7161 1.73588 6.43492 5.94387 -157685 -158241 -12086.5 -197344 -20381.1 -21497.1 -7.41586 
12514 2 34.0249 0.498832 6.43858 5.94938 -168380 -148016 3531.51 -211183 23457.6 -20929.2 -7.4167 
12678 2 36.025 9.10139 6.41731 5.94049 -93784 -204133 63475.6 -184339 26174.4 -22281.9 -7.42059 
12679 2 36.7543 7.88411 6.41856 5.94262 -102826 -200752 -55837.3 -182995 -13162.6 -15357 -7.4135 
12680 2 36.0605 6.64856 6.42112 5.93963 -116491 -188100 48459.8 -199701 26596.3 -21264 -7.41958 
12681 2 36.7896 5.43106 6.42315 5.94067 -126102 -183071 -39563.3 -195876 -16702.8 -16985.8 -7.41437 
12682 2 36.0968 4.19498 6.42653 5.94077 -138747 -171543 31454.8 -211162 26235.3 -20272.3 -7.41848 
12683 2 36.8256 2.97715 6.42904 5.94066 -148805 -164671 -21637.7 -204593 -19813.6 -18567.2 -7.41537 
12684 2 36.1335 1.7406 6.43288 5.94393 -159885 -154451 13117.2 -218255 25084.4 -19282.6 -7.41735 
12685 2 36.8617 0.522333 6.4355 5.94267 -169914 -145759 -2815.93 -209029 -22326.1 -20049.6 -7.41645 
3272 1 38.4195 9.30184 2.94672 5.96999 -224462 -81545.1 -64647.9 200889 -12678.7 -12499.1 -7.41298 
3273 1 39.1101 8.06417 2.94816 5.9562 -222098 -84367.8 58256.6 198374 26116.7 -21081.3 -7.42035 
3274 1 38.3856 6.84363 2.94858 5.96452 -213756 -96430.3 -49830.4 214168 -16419.5 -13704.7 -7.41377 
3275 1 39.0763 5.60617 2.95117 5.95244 -210341 -100740 42507.8 209182 26006.6 -20390.8 -7.4193 
3276 1 38.3506 4.38626 2.95277 5.95658 -201408 -111963 -33102.6 223131 -19827.9 -14812.7 -7.41469 
3277 1 39.0417 3.14907 2.95627 5.94676 -196444 -117659 25061.2 215814 25247.8 -19505.3 -7.41818 
3278 1 38.315 1.92974 2.95877 5.94929 -187126 -127784 -14991.7 227697 -22686.8 -15818.6 -7.41573 
3279 1 39.0065 0.692864 2.9628 5.94213 -180147 -134980 6501.27 218164 23840.7 -18432 -7.41704 
3443 1 41.2512 9.28164 2.94692 5.95651 -221979 -80709.5 65176.3 198848 26112.9 -18768.2 -7.42086 
3444 1 40.5273 8.06067 2.94684 5.96429 -214958 -92172.5 -57301.7 214553 -15569.9 -11650.6 -7.4134 
3445 1 41.2185 6.82345 2.94926 5.95225 -212926 -95296.5 50317.8 211641 26362.9 -18222.1 -7.41984 
3446 1 40.4935 5.60308 2.95051 5.95754 -205075 -105946 -41418.8 225505 -19047.5 -12671 -7.41427 
3447 1 41.1849 4.36606 2.95393 5.94724 -201583 -110408 33638 220284 25984.8 -17527.5 -7.41875 
3448 1 40.4589 3.14626 2.9563 5.94999 -193503 -120184 -23950.8 232212 -22067.5 -13602.3 -7.41525 
3449 1 41.1506 1.9095 2.96039 5.94231 -188060 -125982 15610.7 224796 24984.8 -16677.1 -7.41762 
3450 1 40.4238 0.690206 2.96354 5.94391 -179759 -134534 -5480.58 234534 -24464.8 -14443.4 -7.41633 
3614 1 42.6683 9.27875 2.94565 5.96456 -213957 -89625.5 -64140.9 212937 -14644.5 -9754.54 -7.41307 
3615 1 43.36 8.04178 2.94789 5.95254 -213044 -91495.5 57537.1 212084 26460.7 -16030.1 -7.42035 
3616 1 42.6356 6.82102 2.94853 5.9587 -206516 -101616 -49178.1 225896 -18155.7 -10696.4 -7.41387 
3617 1 43.3274 5.5842 2.95182 5.94768 -204616 -104836 41705.8 222734 26436.2 -15482.5 -7.41929 
3618 1 42.602 4.36398 2.95374 5.95094 -197322 -114089 -32496.3 234610 -21305.9 -11569.1 -7.4148 
3619 1 43.294 3.12735 2.95778 5.94283 -193850 -118587 24362.2 229255 25814.6 -14820.1 -7.41819 
3620 1 42.5678 1.90762 2.96074 5.9446 -186308 -126913 -14573.1 239093 -23906.5 -12356.9 -7.41582 
3621 1 43.2601 0.671235 2.96514 5.93896 -180702 -132656 6042.92 231723 24587.2 -14045 -7.41707 
3785 1 45.5011 9.26096 2.94751 5.95329 -211069 -89720.9 64200 210677 26351.4 -13856.1 -7.42083 
3786 1 44.7772 8.03989 2.94733 5.95963 -205724 -99237.1 -56373.3 224423 -17167.9 -8861.5 -7.41351 
3787 1 45.4694 6.80328 2.95044 5.94826 -205212 -101189 49253.5 223284 26656.4 -13412.4 -7.41981 
3788 1 44.7446 5.58271 2.95166 5.9521 -199196 -109953 -40555.7 235153 -20414.6 -9680.48 -7.41437 
3789 1 45.4368 4.34623 2.95556 5.94332 -197239 -113113 32679.9 231873 26383.6 -12896.9 -7.41873 