ITEM: TIMESTEP
0
ITEM: NUMBER OF ATOMS
19496
ITEM: BOX BOUNDS pp pp pp
0.0000000000000000e+00 1.2124284700000000e+02
0.0000000000000000e+00 2.0999877200000000e+02
0.0000000000000000e+00 1.5000000000000000e+01
ITEM: ATOMS id type x y z c_csym c_2[1] c_2[2] c_2[3] c_2[4] c_2[5] c_2[6] c_3 
194 1 0.796 8.588 3 6.02438 -154687 -175538 -153866 -10657.2 13646.3 -2212.94 -7.41093 
195 1 0.075 7.368 3 6.02216 -148922 -184528 -153645 -9098.98 13776.3 -440.006 -7.41138 
196 1 0.771 6.133 3 6.02109 -142317 -143851 -155714 4691.16 9719.25 -1824.87 -7.41075 
197 1 0.05 4.912 3 6.02501 -143147 -147836 -156035 8535.48 8792.59 -297.63 -7.41106 
198 1 0.746 3.677 3 6.02088 -139266 -143132 -157018 6212.18 5811.86 -1525.37 -7.41103 
199 1 0.025 2.456 3 6.02501 -143972 -146334 -157403 8496.94 4216.13 -151.901 -7.411 
200 1 0.721 1.221 3 6.02088 -136953 -146820 -157704 5799.74 1863.79 -1237.69 -7.41078 
201 1 0 0 3 6.0265 -140085 -138300 -157819 -1604.8 -8.62555 4.48109 -7.41064 
366 1 2.214 8.574 3 6.02597 -140197 -149702 -151918 11855.8 16127.2 -3526.84 -7.41073 
367 1 2.91 7.339 3 6.02444 -144295 -144312 -154092 8207.32 11783.9 -6225.84 -7.41071 
368 1 2.189 6.118 3 6.02246 -130129 -133951 -154850 -4411.44 10883.2 -3545.71 -7.41052 
369 1 2.886 4.883 3 6.02426 -173110 -111403 -155728 7434.63 7910.84 -5660.2 -7.41099 
370 1 2.164 3.662 3 6.0234 -120567 -118933 -156632 7501.31 6087.57 -3519.18 -7.41024 
371 1 2.861 2.427 3 6.02425 -123231 -116803 -156783 7380.4 4001.4 -5269.17 -7.41021 
372 1 2.139 1.206 3 6.02194 -122587 -126409 -157423 12762.5 1849.01 -3512.96 -7.41019 
537 1 5.05 8.545 3 6.02332 -136706 -146493 -151256 -10387.7 14079.8 -11057.7 -7.41082 
538 1 4.328 7.325 3 6.02159 -118834 -123816 -153148 -22593.1 13104.6 -6738.71 -7.41028 
539 1 5.025 6.089 3 6.02159 -126382 -115930 -153308 -29000.2 10194.4 -10191.7 -7.41027 
540 1 4.303 4.869 3 6.02193 -176073 -150085 -155368 -5469.15 8090.18 -6836.61 -7.4112 
541 1 5 3.634 3 6.02152 -133436 -131547 -155005 -8213.63 6207.14 -9292.7 -7.41039 
542 1 4.279 2.413 3 6.023 -135670 -149703 -156431 10694.6 3607.54 -6952.73 -7.41081 
543 1 4.975 1.178 3 6.023 -143749 -152353 -156039 -396.531 2179.81 -8592.35 -7.41067 
708 1 6.468 8.531 3 6.023 -134238 -153240 -150801 12719.3 15539.6 -9878.31 -7.41123 
709 1 7.164 7.296 3 6.02243 -144858 -142601 -149917 2110.89 12665.8 -14939.5 -7.41117 
710 1 6.443 6.075 3 6.02597 -136778 -150677 -153486 14420.8 10240.7 -10077.7 -7.41094 
711 1 7.139 4.84 3 6.02597 -142248 -144885 -151929 6660.49 8639.02 -14027.3 -7.41104 
712 1 6.418 3.619 3 6.02243 -137761 -147985 -154933 9108.08 5386.67 -10368.9 -7.41091 
713 1 7.114 2.384 3 6.02257 -137852 -145807 -153550 4553.41 4570.26 -13004.1 -7.41129 
714 1 6.393 1.163 3 6.02122 -142552 -154328 -155254 14782 901.62 -10816.9 -7.4107 
879 1 9.303 8.502 3 6.023 -144194 -145742 -144794 4690.24 15450.1 -20212.1 -7.41143 
880 1 8.582 7.281 3 6.02152 -129137 -139268 -151229 477.517 12159.8 -13548.7 -7.41056 
881 1 9.279 6.046 3 6.02193 -182755 -146261 -147603 -12217.9 11458.3 -18966.2 -7.4116 
882 1 8.557 4.826 3 6.02159 -120405 -123247 -152913 -21072.1 7082.57 -13930.7 -7.41028 
883 1 9.254 3.59 3 6.02159 -123917 -119640 -149923 -30141.7 7368.84 -17720.5 -7.41045 
884 1 8.532 2.37 3 6.02332 -128766 -153950 -153491 -3188.57 2377.95 -14395.9 -7.41068 
885 1 9.229 1.135 3 6.02446 -124248 -127353 -151738 -1672.82 3098.76 -16553.9 -7.4105 
9774 2 0.622 8.603 6.4 6.0244 -130113 -159297 -151999 8966.15 16368.9 -594.374 -7.41085 
9775 2 0.647 6.147 6.4 6.0265 -122732 -125100 -155019 -8441.66 11152.8 -660.762 -7.41038 
9776 2 0.672 3.691 6.4 6.02515 -124242 -123720 -156862 -10087.7 6378.47 -834.77 -7.41017 
9777 2 0.697 1.235 6.4 6.0243 -169667 -116990 -157688 -8427.67 2036.49 -1025.35 -7.41096 
9778 2 0 0 6.4 6.02539 -139839 -138051 -157821 10947.9 9.87272 -17.2279 -7.41064 
9942 2 2.04 8.617 6.4 6.02457 -144284 -140610 -153517 -8810.87 13859 -3698.6 -7.41125 
9943 2 2.761 7.396 6.4 6.02243 -136553 -149434 -153376 -2971.91 13869.6 -3656.3 -7.41099 
9944 2 2.065 6.161 6.4 6.02322 -142481 -142061 -155349 -9169.11 9981.39 -3622.11 -7.41104 
9945 2 2.786 4.94 6.4 6.02152 -137854 -149896 -155678 -5002.47 8965.23 -3925.03 -7.41054 
9946 2 2.09 3.705 6.4 6.02325 -147887 -177861 -156685 8496.4 6104.74 -3577.9 -7.41108 
9947 2 2.811 2.485 6.4 6.02248 -130752 -133587 -156958 40674.2 4320.01 -4319.92 -7.41028 
9948 2 2.114 1.249 6.4 6.02002 -171646 -113056 -157389 24690.7 2216.78 -3561.02 -7.41071 
9949 2 2.836 0.029 6.4 6.02297 -124641 -124295 -157296 23906.7 32.5544 -4728.06 -7.41022 
10113 2 4.876 8.646 6.4 6.02426 -167850 -120183 -151208 -5364.63 16576.6 -6779.4 -7.41108 
10114 2 4.179 7.411 6.4 6.02246 -138280 -126919 -153151 4486 12381.9 -8034.71 -7.41061 
10115 2 4.9 6.19 6.4 6.023 -134141 -151369 -153981 -4406.45 11388.9 -7177.68 -7.41108 
10116 2 4.204 4.955 6.4 6.02243 -144992 -142085 -154865 -8454.9 8443.52 -7682.53 -7.4107 
10117 2 4.925 3.734 6.4 6.02444 -137073 -148822 -155695 -6690.43 6504.35 -7481.46 -7.41085 
10118 2 4.229 2.499 6.4 6.02597 -142749 -144374 -156047 -10237.7 4645.86 -7386.59 -7.41062 
10119 2 4.95 1.278 6.4 6.02434 -138114 -146804 -156306 -2038.81 2030.89 -7980.42 -7.41082 
10120 2 4.254 0.043 6.4 6.02389 -137286 -153343 -156664 -7794.21 631.733 -7109.44 -7.41131 
10284 2 6.293 8.66 6.4 6.02426 -177624 -110976 -149616 -11042.4 15029.2 -12797.8 -7.41117 
10285 2 7.015 7.439 6.4 6.0234 -118485 -125319 -152058 -1228.32 13754.2 -10149 -7.41033 
10286 2 6.318 6.204 6.4 6.02332 -134530 -147860 -151812 5993.61 11189.8 -12189.3 -7.4108 
10287 2 7.04 4.984 6.4 6.02159 -119340 -123474 -153922 30516.2 8602.83 -10728 -7.41023 
10288 2 6.343 3.748 6.4 6.02159 -123924 -118022 -153606 22891.2 7252.16 -11642.8 -7.41026 
10289 2 7.065 2.528 6.4 6.02332 -128793 -151090 -154749 13197.2 3851.57 -11390.1 -7.41086 
10290 2 6.368 1.293 6.4 6.02246 -132542 -131863 -154737 3283.29 3274.39 -11252.1 -7.41049 
10291 2 7.089 0.072 6.4 6.02152 -131630 -123536 -154513 8762.87 -460.12 -12102.2 -7.41062 
10455 2 9.129 8.689 6.4 6.02457 -134423 -152934 -149515 -1442.25 16196 -13347.5 -7.41149 
10456 2 8.433 7.454 6.4 6.02243 -142849 -143644 -147612 -9668.6 13987 -17178.8 -7.4115 
10457 2 9.154 6.233 6.4 6.02597 -139243 -151715 -151559 -1815.44 10938.2 -14007.9 -7.41081 
10458 2 8.458 4.998 6.4 6.02444 -142634 -145283 -150145 -13453 9996.11 -16254.7 -7.41113 
10459 2 9.179 3.777 6.4 6.02243 -140132 -149097 -152631 -794.783 5997.56 -14801.2 -7.4108 
10460 2 8.483 2.542 6.4 6.02169 -138463 -147555 -151900 -11964.6 5962.59 -15517.2 -7.41119 
10461 2 9.204 1.321 6.4 6.02297 -131257 -134745 -152734 12343.5 1319.38 -15525.8 -7.41059 
10462 2 8.507 0.086 6.4 6.02424 -124999 -125796 -153148 -8672.25 1883.08 -14919.5 -7.41053 
1050 1 10.721 8.488 3 6.02426 -120521 -125788 -148903 16946.6 14270.2 -16752.5 -7.4106 
1051 1 11.418 7.253 3 6.0234 -128273 -117018 -141765 1826.36 14257.1 -24246.5 -7.41099 
1052 1 10.696 6.032 3 6.02426 -168378 -120632 -150828 16261.1 8899 -17345 -7.41121 
1053 1 11.393 4.797 3 6.02246 -136367 -131663 -144823 -10895.5 10264.2 -22775.8 -7.41103 
1054 1 10.672 3.576 3 6.02444 -137916 -153182 -151229 16300 4018.98 -18054.6 -7.41084 
1055 1 11.368 2.341 3 6.02597 -145179 -148019 -147438 4277.93 6064.91 -21505.9 -7.4108 
1056 1 10.647 1.12 3 6.02238 -138488 -157518 -150779 17145.7 -620.425 -18774.6 -7.41134 
1221 1 13.557 8.459 3 6.02457 -146918 -146144 -134435 2218.46 17398.4 -29755.1 -7.41197 
1222 1 12.836 7.238 3 6.02152 -135664 -154379 -147874 15848.9 10820.1 -20894.8 -7.41144 
1223 1 13.532 6.003 3 6.02457 -142337 -147762 -138441 3101.32 13300.5 -28236.5 -7.41197 
1224 1 12.811 4.782 3 6.02152 -137005 -154758 -148637 13611 5657.09 -21715.8 -7.41108 
1225 1 13.507 3.547 3 6.02303 -148058 -181631 -141920 -15132.7 9084.77 -26701.6 -7.4121 
1226 1 12.786 2.327 3 6.02219 -140801 -152357 -148272 -18532.5 840.031 -22532.3 -7.41085 
1227 1 13.482 1.091 3 6.01874 -140916 -159287 -144775 -37834.8 4667.89 -25205 -7.41142 
1392 1 14.975 8.445 3 6.02457 -132204 -141587 -145450 6761.55 12517.1 -24020.3 -7.41093 
1393 1 15.672 7.21 3 6.02172 -176333 -117750 -130119 1769.1 16489.5 -33698.8 -7.41218 
1394 1 14.95 5.989 3 6.02441 -122304 -126540 -146218 18046.3 7080.36 -25112.4 -7.41072 
1395 1 15.647 4.754 3 6.02303 -126083 -122074 -134468 685.06 12380.2 -32055 -7.41136 
1396 1 14.925 3.533 3 6.02584 -123155 -125835 -145414 19890.3 2003.7 -26296.5 -7.41065 
1397 1 15.622 2.298 3 6.02447 -124432 -123942 -138366 4721.82 8083.59 -30513.5 -7.41113 
1398 1 14.9 1.077 3 6.02431 -123188 -130138 -143778 22683.7 -2753.09 -27416 -7.41135 
1563 1 17.811 8.416 3 6.02444 -129805 -121412 -120408 2200.19 19652.3 -39160.1 -7.41223 
1564 1 17.089 7.195 3 6.02172 -169774 -126336 -143080 19103.3 8607.26 -28535.1 -7.41144 
1565 1 17.786 5.96 3 6.02457 -138654 -136344 -125841 -10741 15602.6 -37482.4 -7.41201 
1566 1 17.065 4.739 3 6.02013 -135522 -160552 -142537 17379.9 3428.46 -29741 -7.41137 
1567 1 17.761 3.504 3 6.0246 -153493 -184199 -130679 -16583.9 11480.3 -35798.1 -7.41225 
1568 1 17.04 2.284 3 6.02072 -138576 -154279 -140789 -16545.6 -1464.27 -30971 -7.41177 
1569 1 17.736 1.048 3 6.02306 -136582 -127684 -134861 -23461.8 6986.4 -34114.3 -7.41161 
10626 2 10.547 8.703 6.4 6.02332 -137828 -148299 -141890 6112.3 16957.8 -22339.3 -7.41131 
10627 2 11.269 7.483 6.4 6.0202 -167720 -124181 -149347 33757.4 13064.5 -17302.5 -7.41102 
10628 2 10.572 6.247 6.4 6.02248 -137255 -131946 -144956 34821.6 12924.7 -21377.1 -7.41088 
10629 2 11.293 5.027 6.4 6.02303 -143443 -186914 -150445 16915.3 7881.3 -18164.6 -7.41143 
10630 2 10.597 3.792 6.4 6.02152 -143175 -147968 -147384 -11645.4 9081.13 -20482 -7.41096 
10631 2 11.318 2.571 6.4 6.023 -136701 -150812 -150361 -1510.58 2979.9 -19143.6 -7.41134 
10632 2 10.622 1.336 6.4 6.02243 -140347 -147814 -149454 -10356.6 4935.56 -19572.1 -7.41116 
10633 2 11.343 0.115 6.4 6.02456 -141694 -157074 -149399 -4800.27 -1648.16 -20233.2 -7.4112 
10797 2 13.383 8.732 6.4 6.02597 -132324 -141160 -146677 12292.6 15122 -20477.7 -7.41076 
10798 2 12.686 7.497 6.4 6.023 -176853 -115140 -138266 -16626.7 16220.2 -26748.2 -7.41176 
10799 2 13.408 6.276 6.4 6.0234 -121441 -126026 -147803 -1976.01 9664.67 -21574.8 -7.41064 
10800 2 12.711 5.041 6.4 6.02429 -127444 -119542 -141644 -15807.1 12242.3 -25611.4 -7.41088 
10801 2 13.433 3.82 6.4 6.02447 -121036 -125049 -147730 1332.38 4576.41 -22673.3 -7.41065 
10802 2 12.736 2.585 6.4 6.02582 -124794 -120598 -144773 -15005.2 8108.69 -24411.3 -7.41084 
10803 2 13.458 1.364 6.4 6.02248 -121758 -122239 -146534 877.708 -216.682 -23938.6 -7.41091 
10804 2 12.761 0.129 6.4 6.02485 -135250 -143428 -147015 2670.78 3784.27 -23382.1 -7.41092 
10968 2 14.801 8.746 6.4 6.0246 -155128 -179524 -130354 6144.59 19428.6 -32082.5 -7.4125 
10969 2 15.522 7.526 6.4 6.02219 -135394 -158528 -145080 37180.5 11636.9 -24730.5 -7.41143 
10970 2 14.826 6.29 6.4 6.02219 -142079 -149957 -134522 20850.1 15396.5 -30887 -7.41204 
10971 2 15.547 5.07 6.4 6.0246 -146709 -187611 -145121 20767.6 6313.65 -26118.7 -7.41168 
10972 2 14.851 3.835 6.4 6.02013 -139153 -152101 -138175 -13300.5 11323.3 -29735 -7.41185 
10973 2 15.572 2.614 6.4 6.02457 -142150 -152946 -143799 752.433 1301.72 -27533.1 -7.41123 
10974 2 14.876 1.379 6.4 6.02013 -138608 -153344 -141324 -13634 7071.47 -28543.3 -7.41156 
10975 2 15.597 0.158 6.4 6.02541 -135209 -146360 -141595 9196.31 -3491.04 -28958.6 -7.41119 
11139 2 17.637 8.775 6.4 6.02303 -122976 -131951 -142415 2112.54 13142.2 -27810.1 -7.41065 
11140 2 16.94 7.54 6.4 6.02447 -131375 -121663 -125331 -14898 18708.7 -36373.5 -7.4116 
11141 2 17.662 6.319 6.4 6.02169 -169589 -126752 -142234 4433.62 7737.18 -29378.3 -7.41149 
11142 2 16.965 5.084 6.4 6.02457 -137463 -135358 -129948 -2293.68 14798.4 -35059.9 -7.41192 
11143 2 17.686 3.863 6.4 6.02013 -136945 -158498 -140800 4548.53 2638.6 -30810.8 -7.41158 
11144 2 16.99 2.628 6.4 6.02457 -145440 -150913 -134597 -16256 10606.6 -33552.8 -7.41173 
11145 2 17.711 1.407 6.4 6.01957 -137634 -155720 -138307 3091.81 -2263.06 -32501.2 -7.41191 
11146 2 17.015 0.172 6.4 6.02306 -143403 -160763 -137951 -11224.3 6193.41 -32300.6 -7.41177 
1734 1 19.229 8.402 3 6.0246 -145163 -192652 -140675 4489.1 9949.5 -31183.4 -7.41208 
1735 1 19.925 7.167 3 6.02152 -142307 -155404 -115252 344.291 18836.1 -42634.1 -7.41305 
1736 1 19.204 5.946 3 6.02457 -140247 -158032 -139411 19301.1 4680.48 -32841.6 -7.41163 
1737 1 19.9 4.711 3 6.02013 -141933 -153971 -121300 -1062.96 14782.9 -41044 -7.41285 
1738 1 19.179 3.49 3 6.02457 -142495 -155750 -137432 19786 -402.095 -34399.5 -7.41167 
1739 1 19.875 2.255 3 6.02243 -139919 -157636 -126712 -2749.46 10404.1 -39288.8 -7.41232 
1740 1 19.154 1.034 3 6.02516 -137249 -149385 -134263 10290.5 -5230.17 -35939.2 -7.41144 
1905 1 22.065 8.373 3 6.023 -180235 -123816 -103194 4225.45 21988.3 -47438.1 -7.41335 
1906 1 21.343 7.152 3 6.0234 -123261 -132382 -136615 20162.5 5636.43 -35427.9 -7.41117 
1907 1 22.04 5.917 3 6.02429 -127944 -127134 -110063 1209.9 18200.2 -45884.8 -7.41276 
1908 1 21.318 4.696 3 6.02447 -123160 -131683 -134220 20113.6 446.592 -37258.3 -7.41131 
1909 1 22.015 3.461 3 6.02582 -127001 -128628 -116585 62.5525 14097.5 -44178.9 -7.41228 
1910 1 21.293 2.24 3 6.02248 -123629 -130951 -130732 18963.7 -4528.14 -38974.1 -7.41148 
1911 1 21.99 1.005 3 6.02385 -127864 -137221 -122119 -6677.1 9700.34 -42479.3 -7.412 
2076 1 23.482 8.359 3 6.0202 -170879 -133584 -133906 -10219.2 6540.71 -37380.6 -7.41174 
2077 1 24.179 7.123 3 6.02248 -139860 -143650 -97524.3 -46096.9 21296.7 -50177.9 -7.41336 
2078 1 23.458 5.903 3 6.02303 -146627 -196673 -131292 5021.31 1392.7 -39424.2 -7.41235 
2079 1 24.154 4.668 3 6.02152 -146152 -159467 -105354 -1777.61 17362 -48535 -7.41314 
2080 1 23.433 3.447 3 6.023 -139771 -160866 -127523 21627.5 -3632.38 -41349.7 -7.41247 
2081 1 24.129 2.212 3 6.02243 -143545 -159132 -112341 -5187.68 13352.2 -46736.4 -7.41306 
2082 1 23.408 0.991 3 6.02456 -142165 -167932 -122549 24615.2 -8355.9 -43188.3 -7.41276 
2247 1 26.318 8.33 3 6.0249 -148532 -158009 -83858.6 3302.95 24105.4 -53564.2 -7.41463 
2248 1 25.597 7.109 3 6.0249 -141690 -163657 -128620 25672.5 1914.75 -40753.8 -7.41216 
2249 1 26.293 5.874 3 6.023 -145558 -159624 -92295.2 1894.89 20602.4 -52232.8 -7.41426 
2250 1 25.572 4.653 3 6.02243 -144283 -161975 -124320 21180.2 -3062.58 -43013 -7.41218 
2251 1 26.268 3.418 3 6.023 -143118 -162483 -100204 -1715.2 16820.3 -50627.7 -7.41373 
2252 1 25.547 2.197 3 6.0219 -135796 -147420 -118953 7215.09 -7785.92 -45208.8 -7.41228 
2253 1 26.244 0.962 3 6.02385 -176763 -138428 -107853 -6599.33 12837.5 -48783.9 -7.41331 
2418 1 27.736 8.316 3 6.02248 -134028 -153070 -126383 -23228.1 2231.86 -41262.9 -7.41172 
2420 1 27.711 5.86 3 6.02332 -132856 -169632 -121646 7118.44 -2731.6 -43833.9 -7.41226 
2422 1 27.686 3.404 3 6.02426 -126014 -136070 -115699 23187.7 -7433.09 -46174.5 -7.41227 
2424 1 27.661 0.948 3 6.02428 -176710 -140113 -108850 26120.2 -11804.1 -48335.3 -7.41325 
11310 2 19.055 8.789 6.4 6.01928 -144691 -154660 -114963 21282.6 21981.7 -41363.9 -7.41284 
11311 2 19.776 7.569 6.4 6.02457 -140557 -178123 -139599 34837.5 8985.64 -32092 -7.41153 
11312 2 19.079 6.334 6.4 6.02172 -174946 -123501 -120341 -14071.3 18173.3 -40195.5 -7.41256 
11313 2 19.801 5.113 6.4 6.02441 -123235 -130527 -137804 4415.13 3738.27 -33968.9 -7.41112 
11314 2 19.104 3.878 6.4 6.02303 -126421 -125321 -125574 -15009.2 14126.7 -38802.9 -7.41182 
11315 2 19.826 2.657 6.4 6.02429 -122714 -129393 -134976 2495.75 -1299.64 -35769.8 -7.41142 
11316 2 19.129 1.422 6.4 6.0234 -125274 -126490 -130279 -15156.4 9865.38 -37384.1 -7.41153 
11317 2 19.851 0.201 6.4 6.02428 -174855 -133857 -131240 -2997.45 -5951.22 -37553.5 -7.41198 
11481 2 21.89 8.818 6.4 6.02243 -136968 -164771 -136794 8500.1 10200.2 -34303.6 -7.41174 
11482 2 21.194 7.583 6.4 6.02457 -146723 -152765 -109148 -12987.5 21370.2 -45008.4 -7.41342 
11483 2 21.915 6.362 6.4 6.02152 -137495 -161587 -135036 7142.9 4914.74 -36454.2 -7.41206 
11484 2 21.219 5.127 6.4 6.02457 -143303 -154765 -115427 -16217.3 17472.3 -43645.2 -7.41316 
11485 2 21.94 3.906 6.4 6.02152 -139092 -162214 -131904 7571.72 -219.153 -38513.4 -7.4119 
11486 2 21.244 2.671 6.4 6.02303 -149333 -190523 -121260 236.163 13340.8 -42191.9 -7.41294 
11487 2 21.965 1.451 6.4 6.02248 -135559 -143716 -127579 50540.8 -5170.63 -40511.2 -7.41183 
11488 2 21.268 0.215 6.4 6.02235 -168285 -100410 -126278 1922.52 8962.66 -40663.6 -7.41202 
11652 2 23.308 8.833 6.4 6.02303 -129297 -129793 -96289 -13412.4 24416.7 -49328.9 -7.41325 
11653 2 24.03 7.612 6.4 6.02426 -123164 -135925 -131951 6174.97 5497.58 -38438.4 -7.4114 
11654 2 23.333 6.377 6.4 6.0234 -129696 -127619 -103338 -13590.6 20894 -48003 -7.41299 
11655 2 24.055 5.156 6.4 6.02426 -171361 -131146 -128902 5209.66 425.329 -40643 -7.41228 
11656 2 23.358 3.921 6.4 6.02246 -138344 -142193 -110262 -2994.5 16952.5 -46566.3 -7.41281 
11657 2 24.079 2.7 6.4 6.02444 -141104 -163993 -124345 3357.49 -4381.21 -42744.4 -7.41217 
11658 2 23.383 1.465 6.4 6.02597 -145330 -158967 -116815 -18554.8 12754.3 -44905.9 -7.41258 
11659 2 24.104 0.244 6.4 6.02596 -140196 -168078 -118850 2359.94 -8988.01 -44784.6 -7.4132 
11823 2 26.144 8.861 6.4 6.02243 -142761 -164749 -130264 9576.94 5989.46 -39317.3 -7.41185 
11824 2 25.448 7.626 6.4 6.023 -145788 -159659 -90300.6 -15069.9 23838 -51572.2 -7.41428 
11825 2 26.169 6.405 6.4 6.02152 -132904 -152269 -126459 21007.6 928.36 -41940 -7.41176 
11826 2 25.472 5.17 6.4 6.02193 -185186 -160110 -98097.1 -189.764 20270.1 -50339.5 -7.41417 
11827 2 26.194 3.95 6.4 6.02159 -124528 -136802 -121111 40835.8 -4035.38 -44407.8 -7.41185 
11828 2 25.497 2.714 6.4 6.02159 -127029 -133355 -105607 15633.2 16415.5 -48834.9 -7.41272 
11829 2 26.219 1.494 6.4 6.02332 -133041 -167921 -114964 21103.1 -8550.5 -46683.5 -7.41262 
11830 2 25.522 0.259 6.4 6.02395 -128525 -140314 -112386 -13828.7 12251.1 -47155.4 -7.41249 
11994 2 27.562 8.876 6.4 6.02152 -149896 -160524 -75860.1 -13325.9 26565.1 -54385 -7.41472 
11996 2 27.587 6.42 6.4 6.02243 -147563 -159427 -84584.9 -12968.8 23306 -53240.1 -7.41458 
11998 2 27.612 3.964 6.4 6.0249 -144208 -161097 -93214.5 -21347.3 19669.2 -51840 -7.41433 
12000 2 27.637 1.508 6.4 6.023 -143562 -164674 -101355 -20908.6 15807.8 -50166.4 -7.41351 
2417 1 28.457 9.536 3 6.02172 -155022 -194514 -68635.4 -15482.9 26523.2 -56063.7 -7.41575 
2419 1 28.433 7.08 3 6.02159 -130076 -132497 -77851.8 -33715.6 23574.2 -54993.7 -7.41442 
2421 1 28.408 4.625 3 6.02447 -127479 -136265 -87421.7 -1860.54 20111.9 -53538.2 -7.4137 
2423 1 28.383 2.169 3 6.0234 -127948 -134701 -96321.7 -4739.64 16400.8 -51779.7 -7.41331 
2588 1 29.875 9.522 3 6.02426 -124324 -136905 -124774 25842.4 2293.95 -40857.2 -7.41209 
2589 1 30.572 8.287 3 6.02353 -141800 -147346 -63198.6 -13874.5 25889.9 -56762.4 -7.41534 
2590 1 29.851 7.066 3 6.02444 -142030 -168979 -119594 25924.2 -2428.25 -43648.3 -7.41239 
2591 1 30.547 5.831 3 6.02597 -151975 -162266 -73213.5 1459.38 22999.1 -55591.2 -7.41472 
2592 1 29.826 4.61 3 6.02243 -140931 -165731 -113261 21873.4 -7160.58 -46244.5 -7.41319 
2593 1 30.522 3.375 3 6.02457 -146206 -162862 -82809.1 -3590.2 19692.7 -54011.9 -7.41477 
2594 1 29.801 2.154 3 6.02096 -141487 -165475 -106000 20509.6 -11601 -48581.3 -7.41356 
2595 1 30.497 0.919 3 6.02346 -145619 -173153 -92399.3 -7905.74 16234.7 -52100.1 -7.41422 
2759 1 32.711 9.493 3 6.02457 -150627 -162228 -47070.6 641.132 27989.5 -57402.1 -7.4166 
2760 1 31.99 8.272 3 6.02152 -141256 -169478 -117971 22135.1 -2779.72 -42548.8 -7.41257 
2761 1 32.686 7.037 3 6.02303 -154670 -196392 -58088.9 -16677.4 25573.5 -56452.1 -7.41652 
2762 1 31.965 5.817 3 6.02219 -145404 -167499 -111114 -10356.6 -7198.19 -45403.4 -7.41273 
2763 1 32.661 4.581 3 6.01928 -144801 -168056 -68862 -36050.6 22688.8 -55187 -7.41527 
2764 1 31.94 3.361 3 6.02457 -145867 -183991 -103018 -6970.93 -11401.3 -47946.8 -7.41344 
2765 1 32.637 2.126 3 6.02172 -176921 -134802 -79597.4 -3294.77 19496.7 -53632.8 -7.41478 
2766 1 31.915 0.905 3 6.02389 -123396 -111763 -94274.7 8239.32 -15346.8 -50233.9 -7.41311 
2930 1 34.129 9.479 3 6.02597 -136015 -153555 -117585 12065.5 -2993.42 -40616.4 -7.41233 
2931 1 34.826 8.244 3 6.02303 -132632 -134317 -42333 10.661 27547.6 -56396.1 -7.41647 
2932 1 34.104 7.023 3 6.02584 -125945 -139397 -110367 25036.9 -7437.43 -43584.4 -7.41266 
2933 1 34.801 5.788 3 6.02447 -131390 -137106 -53681.8 -1244.5 25236.3 -55315 -7.41564 
2934 1 34.079 4.567 3 6.02303 -129085 -139876 -101680 25484 -11634.7 -46341.2 -7.41276 
2935 1 34.776 3.332 3 6.02447 -132911 -137859 -65353.1 -674.854 22659.9 -53901.5 -7.41475 
2936 1 34.054 2.111 3 6.02299 -176039 -136157 -91751.3 21013.5 -15560.5 -48764.3 -7.41409 
2937 1 34.751 0.876 3 6.02487 -140425 -159193 -76856.8 -18738.8 19629 -52092.9 -7.41482 
3101 1 36.965 9.45 3 6.02597 -143571 -149632 -26300.6 -11222.1 29116.4 -55189.6 -7.41745 
3102 1 36.244 8.229 3 6.02013 -141133 -169892 -109589 22613.6 -7834.08 -41000 -7.41315 
3103 1 36.94 6.994 3 6.02457 -152777 -164287 -38538.7 1098.41 27352.5 -54434.5 -7.41684 
3104 1 36.219 5.773 3 6.02013 -140814 -170307 -100472 22183.7 -11881.2 -43821 -7.41374 
3105 1 36.915 4.538 3 6.0246 -157061 -198276 -50986.6 -19661.1 25178.8 -53264.7 -7.41668 
3106 1 36.194 3.318 3 6.02219 -142933 -169025 -90592.6 -12200.3 -15540.5 -46406 -7.41428 
3107 1 36.89 2.082 3 6.02338 -146207 -166529 -63314.3 -36701 22622.2 -51701.2 -7.41586 
3108 1 36.169 0.862 3 6.02462 -149269 -173788 -79928.2 -10735.6 -19066.2 -48582.6 -7.41479 
11995 2 28.283 7.655 6.4 6.023 -139386 -166659 -123855 7814.03 1182.31 -42436.1 -7.41261 
11997 2 28.308 5.199 6.4 6.02457 -141000 -165886 -118677 5000.12 -3563.46 -45118.8 -7.41278 
11999 2 28.333 2.743 6.4 6.0249 -143274 -164270 -112128 3759.99 -8118.76 -47592.2 -7.41306 
12001 2 28.358 0.287 6.4 6.0223 -138789 -156904 -104686 13944.4 -12359 -49790.5 -7.41309 
12165 2 30.398 8.904 6.4 6.02447 -123977 -139872 -122692 9807.56 1030.45 -42029.9 -7.41187 
12166 2 29.701 7.669 6.4 6.02581 -131779 -133237 -69563.4 -16241.7 25951 -55244.8 -7.41479 
12167 2 30.423 6.448 6.4 6.02303 -123240 -141764 -116930 8578.14 -3605.54 -44904 -7.41206 
12168 2 29.726 5.213 6.4 6.02332 -138742 -166144 -79201.6 530.774 22833.4 -53999.6 -7.41458 
12169 2 30.448 3.993 6.4 6.0202 -173473 -136874 -109614 40345.2 -8134.29 -47592.7 -7.41303 
12170 2 29.751 2.757 6.4 6.02248 -139245 -149673 -88471.1 28264.4 19368.8 -52501.4 -7.4138 
12171 2 30.472 1.537 6.4 6.02303 -149432 -200848 -101481 22628.4 -12331.3 -49952.9 -7.4139 
12172 2 29.776 0.302 6.4 6.02265 -146819 -171516 -97322.2 -13272.9 15676.1 -50625.6 -7.41386 
12336 2 31.816 8.919 6.4 6.02013 -147560 -162219 -53994.3 -13172.8 28143 -56125.2 -7.41643 
12337 2 32.537 7.698 6.4 6.02457 -144454 -166817 -115387 8141.19 -3988.35 -43760.8 -7.41275 
12338 2 31.841 6.463 6.4 6.02243 -146234 -164984 -64715.3 -14419.2 25558.9 -55129.2 -7.41563 
12339 2 32.562 5.242 6.4 6.026 -138584 -153174 -107567 18018.7 -8243.73 -46642.5 -7.41263 
12340 2 31.865 4.007 6.4 6.023 -180346 -133268 -74992.8 -20280.9 22524 -53816.7 -7.41483 
12341 2 32.587 2.786 6.4 6.0234 -127406 -138410 -99258.5 7921.21 -12192.8 -49278.6 -7.41314 
12342 2 31.89 1.551 6.4 6.02428 -128413 -136995 -84762.5 -20187.5 19057.2 -52217.6 -7.41405 
12343 2 32.612 0.33 6.4 6.02194 -129331 -146537 -89475.1 1064.73 -15993.8 -51584 -7.4137 
12507 2 34.651 8.947 6.4 6.02013 -138418 -173113 -115169 10258.8 -4254.93 -41810.2 -7.41273 
12508 2 33.955 7.712 6.4 6.0246 -160238 -195380 -49063.2 1674.93 27605.4 -55251.2 -7.41659 
12509 2 34.676 6.492 6.4 6.02072 -140564 -169962 -106973 42020.5 -8527.21 -44822.3 -7.41338 
12510 2 33.98 5.256 6.4 6.02219 -148323 -165563 -60094.6 19081.5 25111.3 -54135.2 -7.41575 
12511 2 34.701 4.036 6.4 6.0246 -150141 -200670 -97778.2 23496.6 -12500.2 -47595.9 -7.41433 
12512 2 34.005 2.801 6.4 6.02152 -143870 -167906 -70881.5 -17450.6 22270.4 -52637.6 -7.41537 
12513 2 34.726 1.58 6.4 6.02457 -145634 -167391 -87555.9 6340.5 -16163.6 -50041.3 -7.41434 
12514 2 34.03 0.345 6.4 6.02069 -145766 -176076 -81679.5 -14076.3 19111 -50832.6 -7.4147 
12678 2 36.069 8.962 6.4 6.02303 -133380 -136172 -32573.2 -13408.3 29403.6 -54284.1 -7.41679 
12679 2 36.791 7.741 6.4 6.02447 -127786 -141124 -106933 5340.62 -9137.7 -42192.3 -7.41247 
12680 2 36.094 6.506 6.4 6.02447 -134409 -137521 -44488.4 -18269.5 27398.9 -53345.2 -7.4159 
12681 2 36.816 5.285 6.4 6.02303 -126910 -140372 -97280.4 7556.75 -12948.5 -45015 -7.41324 
12682 2 36.119 4.05 6.4 6.02444 -131850 -136743 -56757.2 -17232.6 25029 -52133.9 -7.41558 
12683 2 36.841 2.829 6.4 6.02172 -176322 -136813 -86328.8 6201.89 -16457.6 -47582 -7.41441 
12684 2 36.144 1.594 6.4 6.02401 -141346 -151875 -68594.2 -6939.21 22255.6 -50523.5 -7.41498 
12685 2 36.865 0.373 6.4 6.01844 -145707 -177715 -75138 1503.55 -19675.3 -49772 -7.41505 
3272 1 38.383 9.436 3 6.0246 -151581 -199791 -110432 5385.38 -8386.27 -37734.5 -7.41343 
3273 1 39.079 8.201 3 6.02013 -147162 -167826 -23098.9 449.759 28996.8 -52454.2 -7.41798 
3274 1 38.358 6.98 3 6.02457 -147355 -166692 -100959 23717 -12315 -40639.6 -7.41341 
3275 1 39.054 5.745 3 6.02013 -147594 -168003 -36218.5 -1651.29 27386.3 -51536.9 -7.41717 
3276 1 38.333 4.524 3 6.02457 -138876 -152210 -89956.4 9807.54 -16013.4 -43207.1 -7.41395 
3277 1 39.03 3.289 3 6.02169 -179848 -135547 -48892.7 -2130.35 25233.4 -50363.7 -7.41647 
3278 1 38.308 2.068 3 6.02447 -131689 -139901 -78531.5 22304.6 -19317.2 -45536.4 -7.41399 
3279 1 39.005 0.833 3 6.02357 -132468 -147442 -61833.7 -3069.2 22865.2 -48726.8 -7.4152 
3443 1 41.219 9.407 3 6.02426 -183985 -133958 -7602.28 5311.57 30088.9 -49677.4 -7.41861 
3444 1 40.497 8.186 3 6.0234 -127484 -138606 -101713 20869.9 -12884 -36832.3 -7.41301 
3445 1 41.194 6.951 3 6.02426 -134087 -137779 -20878.7 2206.34 29046.6 -49011.4 -7.41742 
3446 1 40.472 5.73 3 6.02303 -128105 -139370 -90680.8 21034.8 -16415.9 -39407.3 -7.41361 
3447 1 41.169 4.495 3 6.02441 -133809 -137836 -34621.8 -281.004 27493.7 -47997.8 -7.41666 
3448 1 40.447 3.274 3 6.02172 -176167 -138627 -78656.9 20257.8 -19691.8 -41765.2 -7.41471 
3449 1 41.144 2.039 3 6.02401 -150271 -185180 -48508.7 -31238.8 25541 -46586.6 -7.41639 
3450 1 40.423 0.819 3 6.01984 -146612 -178863 -66349.8 -10823.1 -22515.6 -43815.9 -7.4154 
3614 1 42.636 9.393 3 6.02193 -182873 -167665 -103552 5651.41 -13358.9 -32720.4 -7.41381 
3615 1 43.333 8.158 3 6.02152 -143794 -152631 -6190.74 -11428.8 30223.1 -45631.4 -7.4183 
3616 1 42.612 6.937 3 6.023 -143322 -168581 -92492.6 21374.3 -16781.8 -35212.5 -7.4141 
3617 1 43.308 5.702 3 6.02243 -151183 -165270 -20439.4 -2021.97 29204 -44876.3 -7.41804 
3618 1 42.587 4.481 3 6.02457 -144796 -166839 -79845 20886.1 -20013.6 -37421.7 -7.415 
3619 1 43.283 3.246 3 6.02152 -147871 -166404 -34795.3 -1648.2 27698.5 -43721.7 -7.41746 
3620 1 42.562 2.025 3 6.02457 -148989 -166980 -66916.4 19838.2 -22899.4 -39425.6 -7.41534 
3621 1 43.258 0.79 3 6.02394 -148781 -174932 -49097.3 -2247.73 25842.3 -42258.7 -7.41669 
3785 1 45.472 9.364 3 6.02597 -152289 -164997 7880.36 5288.61 31130.8 -41476.8 -7.41957 
3786 1 44.751 8.143 3 6.02243 -144873 -164986 -94534.6 17384.6 -17302.1 -30546.3 -7.414 
3787 1 45.447 6.908 3 6.023 -149388 -166676 -6451.27 2064.59 30571.7 -40932.3 -7.41893 
3788 1 44.726 5.687 3 6.02246 -139698 -150873 -81911.3 5784.13 -20420.3 -32745.8 -7.41428 
3789 1 45.423 4.452 3 6.02426 -182534 -134472 -21018.4 2061.29 29493.3 -40105.1 -7.41799 
3790 1 44.701 3.231 3 6.0234 -129450 -140084 -68396.2 17144.1 -23247.1 -34703.4 -7.4147 
3791 1 45.398 1.996 3 6.02331 -140523 -171273 -35700.7 -16630.6 27995.2 -38963.5 -7.4169 
3792 1 44.676 0.776 3 6.02271 -134116 -145480 -54534 -11795.3 -25623.9 -36598 -7.4156 
12849 2 38.905 8.991 6.4 6.02219 -142697 -169205 -107705 43441.2 -9740.42 -38905.7 -7.41313 
12850 2 38.209 7.755 6.4 6.02072 -148128 -166629 -29383.5 19468.1 29121.3 -51625.3 -7.41763 
12851 2 38.93 6.535 6.4 6.0246 -154725 -199893 -97626.7 23500.7 -13452.3 -41759 -7.41391 
12852 2 38.234 5.3 6.4 6.02013 -146059 -170227 -41769.7 -14856.9 27306.8 -50550.6 -7.41674 
12853 2 38.955 4.079 6.4 6.02457 -139363 -153046 -86531 17685.1 -16872.1 -44376.1 -7.41402 
12854 2 38.258 2.844 6.4 6.02172 -179807 -135220 -53955.4 -17223.1 24986.5 -49300.7 -7.41619 
12855 2 38.98 1.623 6.4 6.02441 -130058 -139799 -74516.8 4334.07 -20011.8 -46748.7 -7.41445 
12856 2 38.283 0.388 6.4 6.02357 -132105 -146974 -66492.2 -14253.8 22360.2 -47597.8 -7.41494 
13020 2 40.323 9.005 6.4 6.02493 -145486 -149885 -13314.8 -4881.59 30326.7 -49013.6 -7.41804 
13021 2 41.044 7.784 6.4 6.02338 -141951 -169664 -98996.2 2865.79 -13986.8 -37916.7 -7.41374 
13022 2 40.348 6.549 6.4 6.02597 -154672 -164686 -26456.6 -17404.6 28999.6 -48162.2 -7.41737 
13023 2 41.069 5.328 6.4 6.02013 -143014 -167754 -87552.1 6625.35 -17358.5 -40531.3 -7.41458 
13024 2 40.373 4.093 6.4 6.02457 -150618 -165674 -39722.2 -15500 27245.3 -46993 -7.41698 
13025 2 41.094 2.872 6.4 6.02243 -146713 -167082 -75086 7249.23 -20411.9 -42866.2 -7.41505 
13026 2 40.398 1.637 6.4 6.02257 -146935 -167312 -53331.3 -18570.3 25148.6 -45615 -7.41641 
13027 2 41.119 0.416 6.4 6.02122 -151741 -174636 -62041 -49.4709 -23112.3 -44857.6 -7.41556 
13191 2 43.159 9.034 6.4 6.02159 -126404 -139655 -101049 40188.2 -14548.1 -33732.3 -7.41292 
13192 2 42.462 7.798 6.4 6.02159 -133969 -138769 -11439.2 19693.2 30310.3 -44961.2 -7.41781 
13193 2 43.184 6.578 6.4 6.02332 -135689 -171622 -89508.2 21126.2 -17847.5 -36199.5 -7.414 
13194 2 42.487 5.343 6.4 6.02447 -132190 -140304 -25082.2 -14768 29102.1 -43946.4 -7.41707 
13195 2 43.209 4.122 6.4 6.02426 -129619 -137254 -76628.4 3213.72 -20905.1 -38502.4 -7.41458 
13196 2 42.512 2.887 6.4 6.02353 -143027 -151753 -39094.2 -1841.84 27446.1 -42734.8 -7.41661 
13197 2 43.233 1.666 6.4 6.02169 -144864 -169197 -63266.9 2887.46 -23539 -40514.4 -7.41578 
13198 2 42.537 0.431 6.4 6.023 -153108 -173560 -53182.7 -12468.5 25407.8 -41230.4 -7.41604 
13362 2 44.577 9.048 6.4 6.02597 -152255 -165076 3086.19 -14842.2 31218 -40866.9 -7.4193 