ITEM: TIMESTEP
0
ITEM: NUMBER OF ATOMS
1736
ITEM: BOX BOUNDS pp pp pp
0.0000000000000000e+00 3.6179139200000002e+01
0.0000000000000000e+00 6.2664107199999997e+01
0.0000000000000000e+00 1.5000000000000000e+01
ITEM: ATOMS id type x y z c_csym c_2[1] c_2[2] c_2[3] c_2[4] c_2[5] c_2[6] c_3 
53 1 0.333 9.818 3 6.02172 -134938 -143692 -77460.2 32639.5 53122.4 -881.103 -7.41175 
54 1 1 8.567 3 6.02492 -132565 -152036 -132957 -3895.21 22863.8 -7494.48 -7.40872 
55 1 0.25 7.364 3 6.0215 -138660 -151706 -110601 -18782.2 48131.5 -1331.04 -7.41032 
56 1 0.917 6.112 3 6.02221 -170187 -118187 -140155 -23556.4 25684.9 -7298.59 -7.40858 
57 1 0.167 4.909 3 6.0253 -144396 -184509 -137004 591.072 37012.8 -1135.96 -7.4087 
58 1 0.834 3.658 3 6.02228 -162204 -143686 -149925 10311.4 21761.4 -6860.82 -7.40796 
59 1 0.083 2.455 3 6.02156 -130660 -124862 -153733 -5478.64 19830.8 -610.681 -7.40765 
60 1 0.75 1.203 3 6.02299 -155073 -132255 -157519 -21459.5 8959.37 -6121.41 -7.40752 
61 1 0 0 3 6.02855 -154067 -164994 -159188 -4296.21 -12.3731 3.44175 -7.40746 
105 1 3.168 9.722 3 6.02678 -181369 -148030 -120003 -4563.41 18174.1 -23180.4 -7.41045 
106 1 2.418 8.519 3 6.02063 -104315 -168761 -97916 -3053.72 49025 -1007.77 -7.41109 
107 1 3.084 7.267 3 6.02042 -130724 -136886 -125537 -12772 23528.9 -24258.4 -7.40911 
108 1 2.334 6.064 3 6.02688 -153936 -181634 -125958 6803.3 40802.8 -6168.53 -7.40958 
109 1 3.001 4.813 3 6.02798 -176257 -158935 -135776 -8418.4 24000.5 -24518.4 -7.40878 
110 1 2.251 3.61 3 6.02192 -144439 -144694 -145808 -11886.4 26689 -10827.6 -7.40821 
111 1 2.918 2.358 3 6.02088 -149954 -112823 -146463 -13153.6 16650 -23818.1 -7.40822 
112 1 2.167 1.155 3 6.02226 -148185 -152377 -154969 17267.6 7908.7 -14507.1 -7.40766 
156 1 4.585 9.674 3 6.02913 -159487 -180902 -90395.1 7577.16 45017.5 2909.71 -7.41198 
157 1 5.252 8.423 3 6.022 -170902 -125329 -101748 9050.74 19338.2 -36845.2 -7.41095 
158 1 4.502 7.219 3 6.02069 -105088 -168449 -117062 40331.9 39153.3 -5596.99 -7.40937 
159 1 5.168 5.968 3 6.02293 -135518 -176679 -111379 881.955 23670.1 -37813.7 -7.41048 
160 1 4.418 4.765 3 6.02196 -145432 -142012 -136195 -6911.07 27798 -14312.4 -7.40903 
161 1 5.085 3.513 3 6.02192 -162610 -130948 -124686 -29503.1 21879.9 -37158.8 -7.40954 
162 1 4.335 2.31 3 6.02621 -155142 -177287 -145756 11801.6 11871.9 -22069.3 -7.4082 
163 1 5.002 1.059 3 6.02279 -153064 -151326 -137108 3263.11 12603.9 -34188.1 -7.40871 
207 1 7.419 9.578 3 6.02317 -174051 -136322 -71193.3 14469.9 13293.7 -43959.9 -7.41232 
208 1 6.669 8.374 3 6.02075 -146227 -147817 -113166 27290.8 33869.1 -1995.12 -7.41005 
209 1 7.336 7.123 3 6.02913 -179219 -166170 -79605.5 -10735.7 21288.6 -45584.1 -7.41252 
210 1 6.586 5.92 3 6.02413 -101983 -181412 -129820 12059.4 24720.6 -12472.5 -7.40915 
211 1 7.253 4.669 3 6.02057 -153735 -122163 -94359.1 15108.1 24436.1 -45029.4 -7.41117 
212 1 6.502 3.465 3 6.02072 -136264 -129822 -137131 46297.2 11393 -22450.7 -7.40843 
213 1 7.169 2.214 3 6.02683 -167677 -172178 -111966 -13735.6 21082.7 -42019.9 -7.41032 
214 1 6.419 1.011 3 6.02122 -148830 -134695 -134711 -6609.52 -4020.09 -31163.1 -7.40909 
258 1 8.836 9.53 3 6.02059 -141476 -125832 -115993 10294.2 26894.5 2680.16 -7.4099 
260 1 8.753 7.075 3 6.02913 -154755 -173996 -128516 13122.4 19528 -8148.08 -7.40972 
262 1 8.67 4.62 3 6.02075 -142327 -148183 -132506 29512.2 8232.96 -18588.5 -7.40867 
264 1 8.586 2.166 3 6.02197 -138011 -124928 -126977 10755.3 -5206.92 -28265.5 -7.40941 
874 2 0.417 8.615 6.4 6.02646 -154317 -182957 -94557.7 1985.12 51173.4 1272.9 -7.41139 
875 2 0.5 6.161 6.4 6.02223 -141064 -147747 -124566 19602.3 43167.9 -384.186 -7.40929 
876 2 0.584 3.706 6.4 6.02169 -140488 -156113 -146582 -10017.9 28852.4 -2545.29 -7.40859 
877 2 0.667 1.251 6.4 6.02491 -149395 -138893 -157490 -15170.7 9862.25 -4766.01 -7.40717 
878 2 0 0 6.4 6.02853 -153744 -165193 -159184 1183.88 13.5558 -5.71002 -7.40747 
921 2 2.501 9.915 6.4 6.022 -150966 -154322 -79658.3 25637.1 50140.1 4441.45 -7.41205 
922 2 1.834 8.663 6.4 6.022 -172780 -115513 -129627 21348.7 23151.8 -15122.8 -7.40927 
923 2 2.584 7.46 6.4 6.02701 -152990 -185563 -111299 6682.83 44527 -1608.3 -7.41048 
924 2 1.917 6.209 6.4 6.02072 -159557 -107531 -136234 -31916.1 26272.7 -16996.2 -7.40852 
925 2 2.668 5.005 6.4 6.0205 -131263 -134180 -135726 -19844.6 33254 -8491.28 -7.40871 
926 2 2.001 3.754 6.4 6.02758 -170369 -158453 -145848 -1207.86 22683.9 -17655 -7.40872 
927 2 2.751 2.551 6.4 6.02672 -147398 -140760 -149863 28834.1 16868.9 -15422.6 -7.40799 
928 2 2.084 1.299 6.4 6.02243 -158891 -129937 -153779 15665.9 10413.7 -16933.8 -7.40765 
929 2 2.834 0.096 6.4 6.02648 -158649 -169148 -152893 10072.9 -1641.38 -20771 -7.40774 
972 2 3.918 9.963 6.4 6.0244 -174839 -122891 -113361 -14676.7 18684.2 -28374.7 -7.4098 
973 2 4.668 8.759 6.4 6.01942 -142728 -155469 -101535 -3056.94 41636.4 1703.36 -7.41074 
974 2 4.001 7.508 6.4 6.02199 -168653 -139254 -116922 -13361.2 24453.7 -31068.1 -7.41031 
975 2 4.752 6.305 6.4 6.02199 -139816 -165899 -125851 1037.1 32700.5 -8308.74 -7.40978 
976 2 4.085 5.054 6.4 6.01942 -164131 -130053 -126130 -19700.4 25696 -32324.8 -7.40926 
977 2 4.835 3.85 6.4 6.02475 -145251 -147878 -140018 -2905.72 19083.1 -18722.6 -7.40822 
978 2 4.168 2.599 6.4 6.02931 -172009 -162755 -137036 -7177.57 19521.5 -31462.9 -7.40882 
979 2 4.918 1.396 6.4 6.02192 -99019.2 -142917 -143685 33089.3 2649.37 -27773.2 -7.40799 
980 2 4.251 0.144 6.4 6.02088 -142770 -115505 -145231 -5797.56 5602.14 -27980.9 -7.40827 
1023 2 6.752 10.059 6.4 6.02683 -156470 -181199 -98178 15767 35435 7151.37 -7.41151 
1024 2 6.085 8.808 6.4 6.0205 -163321 -113468 -90493.4 -27251.8 19926.5 -40489.7 -7.41117 
1025 2 6.836 7.604 6.4 6.0205 -133433 -134271 -120094 -10696 29139.6 -4169.85 -7.40942 
1026 2 6.169 6.353 6.4 6.02683 -177995 -161823 -97904.1 -4208.24 25404.9 -41858.5 -7.41152 
1027 2 6.919 5.15 6.4 6.02672 -143569 -144326 -132984 36326.9 17987.3 -15954.4 -7.40902 
1028 2 6.252 3.898 6.4 6.02188 -167043 -129537 -110596 9431.84 25132.9 -41043.5 -7.41041 
1029 2 7.002 2.695 6.4 6.02293 -112303 -195839 -135249 4978.46 3640.76 -27229.5 -7.40862 
1030 2 6.336 1.444 6.4 6.02294 -123554 -188035 -124588 -21447.5 17584.2 -37426.2 -7.40945 
1031 2 7.086 0.241 6.4 6.02143 -150756 -134486 -127046 36283.2 -10714.2 -36250.2 -7.40956 
1074 2 8.169 10.107 6.4 6.02199 -172046 -151608 -59745.5 -9576.88 12748.2 -44449.5 -7.41372 
1075 2 8.92 8.904 6.4 6.02319 -143459 -162458 -120438 4906.72 23416.6 1406.87 -7.4101 
1076 2 8.253 7.653 6.4 6.01942 -170443 -139010 -64393.3 -19014.1 22227 -46323.4 -7.41296 
1077 2 9.003 6.449 6.4 6.02451 -141833 -148925 -130961 -745.03 14899.8 -10450.6 -7.40898 
1078 2 8.336 5.198 6.4 6.02688 -180303 -166654 -77233.6 -8683.94 27340.2 -45530.4 -7.41263 
1080 2 8.42 2.743 6.4 6.02042 -121372 -154524 -95280.3 -4438.95 26028.5 -42162.1 -7.41103 
1082 2 8.503 0.289 6.4 6.02762 -163141 -171448 -113237 -15130.4 17864.4 -36307.6 -7.41012 
259 1 9.503 8.278 3 6.02557 -173941 -140375 -43872.7 -24560 16767.4 -47436.2 -7.41434 
261 1 9.42 5.824 3 6.022 -170582 -143045 -58927.8 463.433 24641.4 -47306.6 -7.41306 
263 1 9.337 3.369 3 6.02218 -160804 -157353 -79551.5 -1614.23 26686.3 -44680.3 -7.41265 
265 1 9.253 0.914 3 6.02269 -152738 -141462 -102126 -31508.6 21579.6 -39696.7 -7.41069 
309 1 11.671 9.433 3 6.02059 -168060 -130326 -8264.66 -8487.37 9644.93 -42512.3 -7.41652 
310 1 10.92 8.23 3 6.02218 -147904 -157575 -133554 28906.6 13764.5 -3025.16 -7.40907 
311 1 11.587 6.979 3 6.02317 -172942 -152991 -21323.6 10284.1 22080.3 -43619.8 -7.41536 
312 1 10.837 5.775 3 6.022 -143255 -145422 -133699 28689.3 4232.74 -12772.6 -7.40883 
313 1 11.504 4.524 3 6.02913 -174513 -181132 -43902.2 -14592.8 29209.7 -41998.8 -7.41466 
314 1 10.754 3.321 3 6.02798 -150803 -180047 -124536 13968.5 -7600.65 -22094.4 -7.40984 
315 1 11.421 2.07 3 6.0205 -145771 -134553 -71119.7 14770.5 29301.3 -38400.4 -7.41259 
316 1 10.67 0.866 3 6.02096 -140427 -128121 -107019 43803.3 -19463.2 -30367.9 -7.41019 
360 1 13.088 9.385 3 6.02568 -157829 -175490 -142787 12520.5 8249.7 1683.74 -7.40836 
361 1 13.755 8.134 3 6.02303 -175928 -173479 12842.1 9197.7 16488 -33437.4 -7.41776 
362 1 13.004 6.931 3 6.02059 -136213 -126477 -140413 7062.05 581.71 -6436.73 -7.40844 
363 1 13.671 5.679 3 6.02197 -121748 -156637 -8392.28 -27214.4 28441 -33314.8 -7.41611 
364 1 12.921 4.476 3 6.02913 -154615 -177822 -128210 12878.2 -9782.72 -14201.3 -7.40948 
365 1 13.588 3.225 3 6.02475 -163838 -156556 -38211.8 6763.73 33592.7 -31587.4 -7.4143 
366 1 12.838 2.021 3 6.01996 -143801 -152362 -107186 27227.3 -20922.2 -21534.7 -7.4104 
367 1 13.505 0.77 3 6.02202 -149264 -166524 -70652.4 3000.78 31318.8 -28260.4 -7.41305 
411 1 15.922 9.289 3 6.02683 -188222 -194301 37058.4 -1513.29 8750.39 -17814 -7.41935 
412 1 15.172 8.086 3 6.02191 -146452 -139878 -150153 -10604.7 -1739.16 -1148.12 -7.40818 
413 1 15.839 6.834 3 6.02196 -175465 -156773 20660.9 -22383.9 24447.6 -18903 -7.41847 
414 1 15.089 5.631 3 6.02293 -110159 -198158 -136847 17891.8 -10729.3 -6184.83 -7.40871 
415 1 15.755 4.38 3 6.02293 -134253 -210500 -7997.75 6204.33 34228.7 -18895.1 -7.41624 
416 1 15.005 3.177 3 6.02188 -147038 -147382 -114007 -10151.2 -21034.1 -11176.9 -7.41019 
417 1 15.672 1.925 3 6.02278 -158918 -155262 -43107 -26026.1 36347.3 -18055.6 -7.41436 
418 1 14.922 0.722 3 6.02736 -157704 -182560 -83707.5 6517.51 -30537.1 -16058.6 -7.4121 
462 1 17.339 9.241 3 6.02199 -139987 -120678 -157724 -3583.65 -2003.07 576.756 -7.40755 
463 1 18.006 7.989 3 6.02192 -177301 -163080 37129.1 -19094.9 18308.2 -1051.27 -7.41912 
464 1 17.256 6.786 3 6.02798 -155262 -178552 -146830 817.107 -9368.25 -240.015 -7.40811 
465 1 17.923 5.535 3 6.02688 -180258 -193903 13293.4 -845.658 31590 -2111.4 -7.41797 
466 1 17.173 4.332 3 6.02042 -103654 -165592 -125306 -5010.29 -19008.8 -1425.08 -7.40923 
467 1 17.839 3.08 3 6.01892 -118806 -175878 -20736.9 -10402.4 37822.5 -2844.22 -7.41571 
468 1 17.089 1.877 3 6.02705 -156710 -186561 -94899.3 2768.32 -28788.1 -3303.4 -7.41142 
469 1 17.756 0.626 3 6.02647 -159905 -188734 -57938.1 1275.06 36224.5 -3827.18 -7.4136 
1079 2 9.086 3.995 6.4 6.01892 -99476.5 -161777 -131160 26532.6 2659.39 -21975.6 -7.40914 
1081 2 9.17 1.54 6.4 6.02705 -156154 -177584 -120520 16440.5 -10744.2 -32147.9 -7.40994 
1125 2 11.004 10.203 6.4 6.022 -150458 -142538 -126871 2999.75 16357.6 6876.78 -7.4092 
1126 2 10.337 8.952 6.4 6.02683 -183707 -173342 -28985.5 -176.659 15949.9 -45075.4 -7.41589 
1127 2 11.087 7.749 6.4 6.02557 -143441 -144884 -134976 34480 10648.4 -4232.65 -7.40887 
1128 2 10.42 6.497 6.4 6.02184 -164284 -125822 -40428.8 -1600.64 26127.4 -44924.6 -7.41445 
1129 2 11.171 5.294 6.4 6.02228 -140578 -165138 -132787 3395.05 629.114 -15140.1 -7.40899 
1130 2 10.504 4.043 6.4 6.02413 -125970 -181656 -60151.6 -9342.35 30702.9 -42205.4 -7.41293 
1131 2 11.254 2.84 6.4 6.02191 -144679 -146327 -120008 34676.4 -11423.4 -24809.1 -7.40978 
1132 2 10.587 1.588 6.4 6.02243 -159562 -142607 -83930.6 7333.19 28064.9 -37247.9 -7.41194 
1133 2 11.337 0.385 6.4 6.02648 -156432 -180721 -98226.9 16026.3 -22616.4 -32742.9 -7.41101 
1176 2 12.421 10.252 6.4 6.02075 -177453 -152206 3396.93 -11900.8 6194.46 -37732.4 -7.41707 
1177 2 13.171 9.048 6.4 6.02317 -147099 -146315 -143610 -4823.76 6088.3 1199.7 -7.40799 
1178 2 12.504 7.797 6.4 6.02218 -176866 -166241 -4050.12 -17082.3 21069.7 -38519.4 -7.41688 
1179 2 13.255 6.594 6.4 6.02059 -133824 -127914 -139844 18383.1 -1623.1 -8002.97 -7.40862 
1180 2 12.588 5.342 6.4 6.02192 -169451 -151037 -23409.8 11185.1 31175.2 -37022.6 -7.41558 
1181 2 13.338 4.139 6.4 6.02913 -152953 -182619 -125422 14096.9 -12070.7 -16451.2 -7.40939 
1182 2 12.671 2.888 6.4 6.02913 -172165 -184248 -50225 -8245.95 34133.9 -33367.3 -7.4139 
1183 2 13.421 1.685 6.4 6.02192 -146219 -151847 -101499 29905.7 -23099 -23273.6 -7.41074 
1184 2 12.754 0.433 6.4 6.02088 -143260 -128556 -79872.4 -8305.66 30026.8 -28124.8 -7.41217 
1227 2 15.255 10.348 6.4 6.022 -150749 -137285 -153031 26911 2408.91 3673.97 -7.40779 
1228 2 14.588 9.096 6.4 6.02059 -170112 -140152 25881.3 4345.2 12156.7 -26677.1 -7.41846 
1229 2 15.339 7.893 6.4 6.02228 -144865 -161035 -149823 -5114.53 -3005.98 -2298.04 -7.40797 
1230 2 14.672 6.642 6.4 6.02567 -181835 -193349 10444.7 -3924.57 27119.9 -25974.5 -7.4176 
1231 2 15.422 5.439 6.4 6.02191 -145596 -146353 -135754 28158.7 -11864.6 -8240.35 -7.40868 
1232 2 14.755 4.187 6.4 6.022 -167243 -154956 -16974.4 13641 35543.4 -24010.6 -7.41596 
1233 2 15.505 2.984 6.4 6.02413 -105141 -186820 -111008 8187.48 -22273.4 -12956.2 -7.4101 
1234 2 14.838 1.733 6.4 6.02073 -148021 -142322 -49940.3 -37199.1 36350.9 -20591.9 -7.41361 
1235 2 15.589 0.529 6.4 6.02096 -136718 -137488 -79115.9 -19327.8 -31479.2 -16262.9 -7.41206 
1278 2 16.672 10.396 6.4 6.02228 -178976 -179891 42939.6 -12767.2 902.967 -11199.3 -7.41959 
1279 2 17.423 9.193 6.4 6.02059 -139586 -121094 -157666 7807.92 -2334.46 -43.4835 -7.40755 
1280 2 16.756 7.941 6.4 6.02192 -176509 -161867 34261.4 17981.1 19161.9 -10643.2 -7.41908 
1281 2 17.506 6.738 6.4 6.02798 -156382 -176425 -146629 3678.82 -9661.79 -2102.45 -7.40825 
1282 2 16.839 5.487 6.4 6.02215 -172056 -161697 10709.6 -19040.6 32196.4 -9465.36 -7.4175 
1283 2 17.589 4.283 6.4 6.01817 -100782 -169879 -124756 -23728.7 -19295.8 -3590.29 -7.40913 
1284 2 16.923 3.032 6.4 6.02294 -125351 -209972 -22751 -9377.54 38004.5 -7905.98 -7.41592 
1285 2 17.673 1.829 6.4 6.02677 -154523 -185957 -93917.8 3242.21 -29045.7 -4181.8 -7.41185 
1286 2 17.006 0.578 6.4 6.02182 -150558 -156378 -59587.3 -17283.6 36146.8 -5596.01 -7.41317 
461 1 18.09 10.444 3 6.02218 -178471 -177226 45843.1 11017.7 -98.9417 -22.2896 -7.42026 
512 1 19.507 10.396 3 6.02798 -157687 -170848 -157695 -6476.95 418.235 -1928.4 -7.40785 
513 1 20.174 9.145 3 6.0205 -167162 -146774 37089.1 27958.3 10981.3 16406.5 -7.41914 
514 1 19.423 7.941 3 6.02072 -137185 -129182 -152819 26667.7 -5162.71 1439.73 -7.40747 
515 1 20.09 6.69 3 6.02683 -183484 -193806 20690.3 2176.28 26772.7 15745 -7.41835 
516 1 19.34 5.487 3 6.02191 -145323 -146102 -136672 -24271.3 -13855.5 4846.54 -7.40875 
517 1 20.007 4.235 3 6.02192 -167208 -157733 -8053.61 -16072.3 36046.8 14179.2 -7.4165 
518 1 19.257 3.032 3 6.02413 -104592 -190420 -110178 -4436.25 -23962 7228.71 -7.4099 
519 1 19.924 1.781 3 6.0223 -156054 -176124 -43090 16658.6 37583.9 11644.2 -7.41433 
520 1 19.173 0.578 3 6.02143 -139420 -134775 -76713.8 -10072.5 -32891.4 8233.48 -7.41233 
563 1 22.341 10.3 3 6.02475 -181091 -157728 20739.1 15228.8 4197.65 30608.5 -7.4179 
564 1 21.591 9.096 3 6.01942 -144611 -144556 -150204 4397.82 1936.09 -925.492 -7.40783 
565 1 22.258 7.845 3 6.02208 -175317 -169936 12834.9 14583.2 20532.5 31005.5 -7.41826 
566 1 21.507 6.642 3 6.02199 -134350 -127919 -142891 -15320 -5652.14 6427.51 -7.40843 
567 1 22.174 5.39 3 6.02192 -170345 -155717 -8537.77 -12609.9 32017.4 29675.2 -7.41635 
568 1 21.424 4.187 3 6.02913 -153360 -183645 -124645 -10987.8 -15632.7 12879.1 -7.40943 
569 1 22.091 2.936 3 6.02913 -172042 -187972 -38030.2 6125.22 36130.9 26506.4 -7.41463 
570 1 21.341 1.733 3 6.02192 -145663 -153333 -97375.3 -27009.2 -26054.5 17917.6 -7.41111 
571 1 22.008 0.481 3 6.02088 -143120 -131647 -70879.3 5836.82 32960.3 22095.2 -7.4127 
614 1 23.758 10.252 3 6.02196 -152517 -137035 -136811 -32648.8 10652.4 -6233.74 -7.40885 
615 1 24.425 9 3 6.02557 -176692 -146523 -8388.27 -17116.7 14705 41325.3 -7.4167 
616 1 23.675 7.797 3 6.02798 -151803 -176598 -140425 -15755.8 5183.5 3784.51 -7.40899 
617 1 24.342 6.546 3 6.0205 -161501 -134352 -21109.2 33854.3 26725.7 40872.5 -7.41562 
618 1 23.591 5.342 3 6.02072 -132770 -134383 -133495 15980.4 -4374.23 13466.9 -7.40862 
619 1 24.258 4.091 3 6.02413 -127555 -183428 -43814.8 8209.03 32708.6 38241.2 -7.41404 
620 1 23.508 2.888 3 6.02192 -144816 -147962 -115972 -32704.8 -15776.6 21864 -7.41001 
621 1 24.175 1.636 3 6.02243 -159461 -146071 -71124.2 -8682.84 31412.6 33532.7 -7.4127 
622 1 23.425 0.433 3 6.02648 -156311 -183312 -90223.4 -14011.2 -26159.3 28618.2 -7.41148 
665 1 26.593 10.155 3 6.02059 -166601 -122421 -38222.3 -7118.09 10450 44889.7 -7.41469 
666 1 25.842 8.952 3 6.02303 -147282 -159508 -128289 -2786.65 17105.4 -1322.28 -7.40938 
667 1 26.509 7.701 3 6.02317 -174287 -144912 -43834 22449.9 21790.6 46321.6 -7.41398 
668 1 25.759 6.497 3 6.02075 -139043 -147883 -133563 -2236.52 8959.32 10061.2 -7.40905 
669 1 26.426 5.246 3 6.02678 -178698 -170160 -58636 7130.9 28619 45016.3 -7.41412 
670 1 25.676 4.043 3 6.02063 -99486.1 -162515 -128708 -25951.1 -2676.7 20923.5 -7.40928 
671 1 26.342 2.791 3 6.02042 -122192 -158429 -79778.5 4535.9 28852.4 41199.6 -7.41184 
672 1 25.592 1.588 3 6.02705 -155951 -179371 -113254 -15675.8 -15217.4 30406.1 -7.41037 
673 1 26.259 0.337 3 6.02762 -162478 -173538 -101616 15150.8 22255.9 35188.2 -7.41093 
1330 2 18.84 9.241 6.4 6.02568 -186930 -198545 42883.7 763.686 9204.13 6521.38 -7.41957 
1331 2 19.59 8.038 6.4 6.02192 -146944 -140449 -152938 14390.4 -4523.81 170.005 -7.40788 
1332 2 18.923 6.786 6.4 6.02578 -175544 -158379 26085.2 20586.2 25304.6 7495.79 -7.41879 
1333 2 19.673 5.583 6.4 6.02293 -109449 -195515 -137213 -12223.3 -13309.4 2732.75 -7.40918 
1334 2 19.007 4.332 6.4 6.01938 -124772 -180218 -3390.68 -21277 35345.5 8128.65 -7.41618 
1335 2 19.757 3.128 6.4 6.022 -145344 -152589 -111800 -17256.7 -23388.2 5395.57 -7.41007 
1336 2 19.09 1.877 6.4 6.02798 -165398 -191298 -39572 6071.28 37526.2 8401.24 -7.4149 
1337 2 19.84 0.674 6.4 6.02773 -154712 -186369 -79104.7 -889.563 -32414.3 8600.71 -7.4125 
1381 2 21.674 9.337 6.4 6.02683 -159147 -172302 -149817 -9559.91 3513.71 -1441.25 -7.40807 
1382 2 21.007 8.086 6.4 6.02072 -168111 -145874 26022.2 -27845.2 16893.9 23949.2 -7.41824 
1383 2 21.758 6.882 6.4 6.02057 -132907 -130373 -143509 -37029.4 -4122.2 4732.98 -7.40824 
1384 2 21.091 5.631 6.4 6.02413 -128339 -194779 3195.2 8513.28 29671.3 24208.8 -7.41714 
1385 2 21.841 4.428 6.4 6.02913 -151792 -181100 -127019 -7806.1 -14098.7 10752.2 -7.40967 
1386 2 21.174 3.177 6.4 6.02075 -160773 -158885 -28752.7 -5971.73 35457.3 23357.4 -7.4151 
1387 2 21.924 1.973 6.4 6.02371 -146745 -155406 -101898 -27831.5 -24637.2 16636.8 -7.41048 
1388 2 21.257 0.722 6.4 6.02221 -152090 -167225 -63666.3 -8117.09 33714.6 21300 -7.41333 
1432 2 23.091 9.385 6.4 6.02199 -168795 -135453 10496.1 8111.37 8944.09 36424.2 -7.41767 
1433 2 23.842 8.182 6.4 6.02208 -145875 -156110 -139963 -25725.2 7701.34 2711.2 -7.40905 
1434 2 23.175 6.931 6.4 6.01942 -170400 -157083 -4094.55 -8045.69 22794.3 37615.1 -7.41663 
1435 2 23.925 5.727 6.4 6.0244 -146288 -146789 -134806 -30455.9 -1731.95 11316.5 -7.40853 
1436 2 23.258 4.476 6.4 6.02913 -177393 -183535 -29171.9 10780.9 31059.6 36339 -7.41542 
1437 2 24.008 3.273 6.4 6.022 -144336 -146999 -120562 4365.82 -12997.6 19647.5 -7.40973 
1438 2 23.341 2.021 6.4 6.02087 -148860 -134590 -59402.6 16216.4 32091.3 33281.7 -7.4133 
1439 2 24.092 0.818 6.4 6.02225 -148503 -162044 -98233.2 -24706.8 -23917.9 27128.5 -7.41103 
1483 2 25.926 9.481 6.4 6.0205 -138222 -127510 -125440 -43031 20201.8 -2269.02 -7.40933 
1484 2 25.259 8.23 6.4 6.02798 -182660 -178114 -23339.9 7188.5 16459 45448.4 -7.41603 
1485 2 26.009 7.027 6.4 6.02672 -146891 -141068 -132595 4122.57 12701.1 8135.32 -7.40902 
1486 2 25.342 5.775 6.4 6.02192 -172493 -144264 -40366.5 30165.3 25846.1 45116.6 -7.41443 
1487 2 26.092 4.572 6.4 6.02567 -151785 -180351 -131058 -16757.2 1681.22 18098.9 -7.40908 
1488 2 25.425 3.321 6.4 6.02228 -161262 -164814 -64361.2 -815.464 29031 42394 -7.41308 
1489 2 26.176 2.118 6.4 6.02057 -137955 -126354 -120080 -10455.7 -10973.3 27327.7 -7.40982 
1490 2 25.509 0.866 6.4 6.02269 -151706 -143963 -90606.7 30865.5 25035.5 37494.2 -7.41151 
716 1 28.01 10.107 3 6.02567 -157290 -182306 -107154 -15256.6 29058.5 -7293.28 -7.41047 
717 1 28.677 8.856 3 6.02228 -173689 -149912 -71111.8 15208.1 18527.7 44620.8 -7.41267 
718 1 27.926 7.653 3 6.02059 -135095 -129042 -124564 -21590.7 22865.8 4436.5 -7.4094 
719 1 28.593 6.401 3 6.02557 -170773 -133791 -79668.9 -11997 25393.8 45414.6 -7.41217 
720 1 27.843 5.198 3 6.02913 -151291 -176303 -132384 -20152.8 12050.4 16424.2 -7.4095 
721 1 28.51 3.947 3 6.022 -164115 -136327 -94243.8 24606.3 26729.1 43742.3 -7.41139 
722 1 27.76 2.743 3 6.02068 -103780 -165189 -129738 11922.9 -1507.04 27630.7 -7.40863 
723 1 28.426 1.492 3 6.02293 -123136 -189916 -111466 22387.9 20940.9 39334.2 -7.41037 
724 1 27.676 0.289 3 6.02393 -156870 -171130 -116995 -20106.8 -14664.2 36689.6 -7.4105 
767 1 30.844 10.011 3 6.02913 -183733 -158101 -98258.7 -2700.79 17005.9 35928.7 -7.41101 
768 1 30.094 8.808 3 6.02192 -145290 -149666 -106761 -32470.5 35983.3 -1665.4 -7.41056 
769 1 30.761 7.556 3 6.02059 -162863 -108072 -101927 -2275.04 23621 38552.8 -7.41087 
770 1 30.01 6.353 3 6.02218 -142990 -163333 -127109 -1375.57 27023 9674.24 -7.40947 
771 1 30.677 5.102 3 6.02317 -167633 -133792 -112037 24793.8 25936.8 39234.6 -7.40986 
772 1 29.927 3.898 3 6.02075 -141838 -147115 -136945 -2611.11 13842.7 21146.7 -7.40865 
773 1 30.594 2.647 3 6.02913 -168887 -166463 -124667 7400.1 21270.5 37543.1 -7.4098 
774 1 29.844 1.444 3 6.02413 -105061 -178753 -136303 -18358.4 -1533.99 31166.5 -7.40876 
775 1 30.511 0.193 3 6.02032 -142080 -121023 -135587 39504.8 9284.06 33024.1 -7.40846 
818 1 32.261 9.963 3 6.02191 -150183 -152047 -84063.4 -29030.2 46332.4 -5752.51 -7.41191 
819 1 32.928 8.711 3 6.02191 -173859 -117508 -120593 -20497.3 22452.7 25285.7 -7.40974 
820 1 32.178 7.508 3 6.02568 -151787 -187256 -113281 -10236.9 40363.9 2751.44 -7.41013 
821 1 32.845 6.257 3 6.02228 -168823 -140670 -127170 16220.7 26050.7 27410.7 -7.40932 
822 1 32.094 5.054 3 6.02059 -134076 -130317 -134732 -16551.9 28946.6 12115 -7.40879 
823 1 32.761 3.802 3 6.02557 -163532 -127599 -137303 -13196.5 23252.4 27885.5 -7.40872 
824 1 32.011 2.599 3 6.02913 -154805 -173578 -145734 -15126.1 13199.2 21330.7 -7.40869 
825 1 32.678 1.348 3 6.022 -157982 -134567 -146501 18513.8 12201.3 26324.8 -7.40781 
826 1 31.928 0.144 3 6.02155 -148754 -138828 -145829 -700.041 -3917.75 28474.2 -7.40783 
860 1 35.095 9.866 3 6.02 -172770 -131030 -131102 -8298.06 20430 8737.98 -7.40918 
861 1 34.345 8.663 3 6.02688 -156707 -186448 -95312.3 -6065.16 49510.8 -1456.31 -7.4114 
862 1 35.012 7.412 3 6.02891 -173505 -152184 -135280 -2578.89 25403.3 10455.7 -7.40884 
863 1 34.262 6.209 3 6.02221 -142578 -151147 -124392 -24122.5 41264.3 3525.29 -7.40949 
864 1 34.929 4.957 3 6.02156 -150025 -104991 -143634 -5022.67 25404.4 11609 -7.40839 
865 1 34.178 3.754 3 6.02218 -144711 -161241 -145280 7186.56 27073.9 9076.1 -7.40837 
866 1 34.845 2.503 3 6.0228 -152361 -133402 -152896 19582.4 17135 11895.8 -7.40744 
867 1 34.095 1.299 3 6.02244 -147623 -140954 -154971 6067.16 8630.76 14165 -7.40755 
868 1 34.762 0.048 3 6.02703 -152820 -164246 -157561 1388.47 864.855 10904 -7.40785 
1534 2 27.343 9.53 6.4 6.01942 -172065 -140966 -50468.7 -11100.7 11818.9 46302 -7.4138 
1535 2 28.093 8.326 6.4 6.02475 -149213 -146585 -119878 -31780.2 27169.7 2500.43 -7.40942 
1536 2 27.426 7.075 6.4 6.02931 -183295 -169742 -60134.4 9057.39 21215.3 47682 -7.41345 
1537 2 28.176 5.872 6.4 6.02192 -95420.1 -145767 -131128 3544.04 17815.4 13281.5 -7.40875 
1538 2 27.509 4.62 6.4 6.02059 -156427 -122601 -77212.4 18414.1 25734.2 46501.3 -7.41234 
1539 2 28.26 3.417 6.4 6.02303 -144350 -161316 -132889 -29816.2 4880.7 23526.4 -7.40901 
1540 2 27.593 2.166 6.4 6.02568 -165930 -177885 -98163.5 14154.2 23632.6 42879.4 -7.41103 
1541 2 28.343 0.963 6.4 6.02122 -148824 -135980 -125658 5534.22 -9186.39 32501.8 -7.40963 
1585 2 30.177 9.626 6.4 6.02672 -151653 -145822 -98207.7 7240.3 39636.8 -3232.97 -7.41106 
1586 2 29.51 8.374 6.4 6.02188 -174926 -126574 -83939.9 24423.1 18161.6 43023.4 -7.41202 
1587 2 30.26 7.171 6.4 6.02293 -113231 -197942 -120632 -25147.5 33195.1 6724.85 -7.40949 
1588 2 29.594 5.92 6.4 6.02293 -134928 -183671 -95205.6 449.56 23518.8 43611 -7.4112 
1589 2 30.344 4.717 6.4 6.02196 -145351 -141101 -135086 4447.5 21767.8 16804.1 -7.40911 
1590 2 29.677 3.465 6.4 6.02191 -161752 -133902 -110662 31252.2 22960.9 42296.4 -7.41051 
1591 2 30.427 2.262 6.4 6.02621 -155169 -177484 -140191 -14255.8 6655.85 25866.3 -7.40854 
1592 2 29.76 1.011 6.4 6.02279 -152721 -153630 -126058 -1419.05 15207.4 38443.3 -7.40937 
1636 2 31.594 9.674 6.4 6.02688 -183985 -152331 -107015 3200.94 16582.2 32005.8 -7.41086 
1637 2 32.344 8.471 6.4 6.01892 -104367 -166694 -102037 -254.36 45271 1123.72 -7.41085 
1638 2 31.678 7.219 6.4 6.02042 -130285 -139727 -113227 14191.3 22517.3 33613.1 -7.40996 
1639 2 32.428 6.016 6.4 6.02688 -153948 -180265 -127156 -10354.3 36709.9 8846.82 -7.40952 
1640 2 31.761 4.765 6.4 6.02798 -176223 -161838 -124552 10475.5 23664.7 33969.6 -7.40944 
1641 2 32.511 3.562 6.4 6.02192 -145252 -144488 -143742 8056.5 22837.1 16162.9 -7.40822 
1642 2 31.844 2.31 6.4 6.02088 -149696 -115129 -136996 15846.9 17511.3 32623.7 -7.40877 
1643 2 32.595 1.107 6.4 6.02215 -149379 -149805 -149845 -21012 4896.15 22307.6 -7.40821 
1687 2 34.429 9.77 6.4 6.02268 -149911 -173731 -79918.1 -18945 52010.7 -774.93 -7.41198 
1688 2 33.762 8.519 6.4 6.02453 -131405 -156079 -126936 4684.73 21914.1 18555 -7.40894 
1689 2 34.512 7.316 6.4 6.02171 -145495 -150648 -111916 14531.1 46972.4 2853.36 -7.41029 
1690 2 33.845 6.064 6.4 6.022 -170294 -119627 -134704 25502.9 24943.7 19103.6 -7.4089 
1691 2 34.595 4.861 6.4 6.02664 -152774 -181132 -137192 -4998.23 35847.3 6169.07 -7.40888 
1692 2 33.928 3.61 6.4 6.02072 -153948 -113617 -145163 -25016.3 21422.6 18900.7 -7.40791 
1693 2 34.679 2.406 6.4 6.02071 -134513 -127485 -152816 -31971.2 18776.8 9044.3 -7.40776 
1694 2 34.012 1.155 6.4 6.02837 -160369 -164629 -153814 6265.46 9410.59 17476.6 -7.40804 
1733 2 35.846 9.818 6.4 6.02104 -176526 -126274 -132511 8320.31 20278.8 2167.83 -7.40917 
1734 2 35.929 7.364 6.4 6.02871 -177868 -147858 -137057 3583.35 25197.4 1377.56 -7.40868 
1735 2 36.012 4.909 6.4 6.0216 -154271 -100781 -145655 7057.64 25040.7 757.873 -7.40821 
1736 2 36.096 2.455 6.4 6.01958 -153578 -128317 -154967 -13457.6 16537.7 391.639 -7.40753 
44 1 1.417 20.84 3 6.02605 -160336 -171365 -157636 3556.92 -1199.75 -1891.08 -7.40747 
45 1 0.667 19.637 3 6.0215 -173640 -160521 43013.2 -21084.3 10134.8 4632.07 -7.41962 
46 1 1.334 18.385 3 6.02217 -161852 -124379 -152909 -18063.9 -2047.84 -4111.97 -7.40802 
47 1 0.584 17.182 3 6.02411 -183028 -212168 25843 12427.9 29124.4 2711.5 -7.41871 
48 1 1.25 15.931 3 6.02253 -135085 -173326 -143568 12537.8 1996.95 -5828.77 -7.40811 
49 1 0.5 14.728 3 6.021 -160685 -157966 -3952.4 -18379.9 43928.7 880.724 -7.41687 
50 1 1.167 13.476 3 6.02709 -172126 -116174 -135009 -21179.1 9032.4 -7122.29 -7.40888 
51 1 0.417 12.273 3 6.0285 -159302 -191354 -40356.4 -2402.53 51990.9 -226.454 -7.4148 
52 1 1.084 11.022 3 6.02057 -159888 -102473 -130874 25912 16462.7 -7647.7 -7.40903 
96 1 2.834 20.792 3 6.02059 -170194 -141551 34357.9 -6065.17 407.914 21813 -7.41911 
97 1 3.501 19.54 3 6.02192 -156966 -133664 -146551 -10748.5 -6785.02 -7356.25 -7.40804 
98 1 2.751 18.337 3 6.02798 -187341 -192766 26056.4 131.245 19161.5 18167.8 -7.41854 
99 1 3.418 17.086 3 6.02688 -173974 -159626 -137270 5213.62 -4323.99 -12808.2 -7.4089 
100 1 2.668 15.883 3 6.02042 -130088 -173859 3352.12 -4118.82 35812 13498.2 -7.41699 
101 1 3.334 14.631 3 6.01892 -126921 -138298 -126985 -6982.78 2241.08 -17670 -7.40935 
102 1 2.584 13.428 3 6.02688 -172767 -187182 -29061.4 4958.71 46962.3 8762.06 -7.41555 
103 1 3.251 12.177 3 6.02451 -171774 -122553 -120574 17532.1 10516.8 -20983.9 -7.40958 
104 1 2.501 10.973 3 6.02075 -149814 -157838 -64557.7 20370.8 51200.8 3969.64 -7.41315 
147 1 5.669 20.696 3 6.0205 -141670 -123730 -135509 40166.4 -13060.1 -6205.52 -7.40872 
148 1 4.918 19.492 3 6.02072 -169182 -139908 10631.6 32419.3 7904.09 32687 -7.41728 
149 1 5.585 18.241 3 6.02683 -170587 -166907 -124656 10258.4 -12778 -14899.3 -7.40955 
150 1 4.835 17.038 3 6.02191 -175571 -150911 -3315.34 -15407.1 24663.7 26480.2 -7.41677 
151 1 5.502 15.786 3 6.02191 -169080 -127523 -111662 -12512.6 -6978.23 -22984.8 -7.41024 
152 1 4.752 14.583 3 6.02413 -126131 -190209 -28658.1 6674.03 37874.6 19106 -7.41481 
153 1 5.419 13.332 3 6.02228 -170886 -144469 -101884 15574.4 2056.88 -29626.5 -7.4108 
154 1 4.668 12.129 3 6.02184 -148806 -134688 -59693.4 4520.64 44933.5 11128.9 -7.41327 
155 1 5.335 10.877 3 6.02557 -172692 -124770 -98240.7 -19593.5 11516.7 -34240.7 -7.41106 
198 1 7.086 20.647 3 6.02075 -175710 -149675 -16810.1 12078.1 -3031.53 42780.3 -7.41559 
199 1 7.753 19.396 3 6.02218 -156292 -153559 -111191 25131.9 -22359.1 -12756.8 -7.41074 
200 1 7.002 18.193 3 6.02199 -166211 -127775 -22585.4 -1033.23 12232.1 36771.1 -7.41561 
201 1 7.669 16.941 3 6.02192 -165533 -136835 -93869.8 -7901.27 -18142 -23150.3 -7.41116 
202 1 6.919 15.738 3 6.02913 -180222 -179691 -39601.5 6815.77 26037.3 28339.9 -7.41452 
203 1 7.586 14.487 3 6.02913 -181808 -167127 -79257.3 4904.24 -8794.63 -32348.9 -7.41212 
204 1 6.836 13.284 3 6.02192 -161193 -146955 -63931.3 -7115.48 35288.6 18564.4 -7.41309 
205 1 7.503 12.032 3 6.02059 -165149 -114076 -70854 -3585.73 2570.22 -39622.7 -7.41271 
206 1 6.752 10.829 3 6.02218 -154211 -162296 -90301.5 26758.6 37851.9 8371.85 -7.41164 
254 1 9.003 14.439 3 6.02191 -166890 -138490 -76751.9 -8542.21 23621.6 24330.2 -7.41232 
256 1 8.92 11.984 3 6.02568 -165497 -178021 -97053 13918.9 28538.7 13601.9 -7.41107 
869 2 0 20.888 6.4 6.02795 -188876 -189766 45770.9 2182.34 17.454 -28.3507 -7.41985 
870 2 0.083 18.433 6.4 6.01873 -131551 -177760 37207.2 -24654.5 19696.3 1253.98 -7.41887 
871 2 0.167 15.979 6.4 6.02647 -175433 -189038 12677.8 2705.98 37242.4 2343.9 -7.41827 
872 2 0.25 13.524 6.4 6.02492 -158430 -159293 -21249 -17066.5 48770.2 2587.82 -7.41552 
873 2 0.333 11.07 6.4 6.01805 -107960 -169487 -58547.3 9282.83 53276.5 2356.41 -7.41343 
913 2 2.167 19.733 6.4 6.02333 -146517 -208437 37129.1 -7512.08 8074.36 16399.6 -7.4195 