ITEM: TIMESTEP
75
ITEM: NUMBER OF ATOMS
1736
ITEM: BOX BOUNDS pp pp pp
0.0000000000000000e+00 3.6179139200000002e+01
0.0000000000000000e+00 6.2664107199999997e+01
0.0000000000000000e+00 1.5000000000000000e+01
ITEM: ATOMS id type x y z c_csym c_2[1] c_2[2] c_2[3] c_2[4] c_2[5] c_2[6] c_3 
53 1 0.345091 9.81738 2.88493 6.01904 -144569 -160050 16156.6 -26014.1 28882.5 -2564.34 -7.41384 
54 1 1.01158 8.56574 2.87645 6.01801 -167196 -134661 -10106.2 -23467.8 10128.7 -5427.51 -7.41169 
55 1 0.260969 7.36295 2.86817 6.0219 -144270 -159557 7494.02 -17993.4 24136 -2338.08 -7.4127 
56 1 0.926669 6.11094 2.8606 6.02021 -163924 -138785 -3550.9 -14649.9 11088.7 -4741.22 -7.41166 
57 1 0.175173 4.90863 2.85348 6.02484 -145606 -157821 2438.72 -9351.9 17319.1 -1706.98 -7.41189 
58 1 0.840181 3.65627 2.84794 6.02343 -159558 -143703 -727.699 -6528.07 9201.71 -3957.12 -7.41149 
59 1 0.0879959 2.45433 2.84326 6.02811 -148285 -155213 137.841 -2576.62 8868.4 -844.46 -7.41142 
60 1 0.752552 1.20176 2.84082 6.02856 -154386 -149071 -274.795 -1484.13 3730.53 -3011.02 -7.41133 
61 1 8.76804e-06 -2.76566e-06 2.83957 6.03134 -151626 -151695 -355.901 12.3067 -0.159737 0.0442638 -7.41128 
105 1 3.17817 9.7188 2.8872 6.01832 -183211 -118368 -10112.1 -27597.8 7603.83 -14484.3 -7.412 
106 1 2.42866 8.51536 2.87809 6.01618 -158862 -145107 8427.84 -18668.2 25478.5 -1498.66 -7.41309 
107 1 3.09428 7.26319 2.87148 6.01874 -177345 -125180 -2749.16 -19002.8 9898.26 -13961.6 -7.41203 
108 1 2.34371 6.06033 2.86256 6.01953 -155606 -147878 2619.48 -8962.18 19511.3 -3678.85 -7.41219 
109 1 3.00872 4.8079 2.85762 6.02103 -169850 -133413 648.693 -9932.42 9949.96 -12950.4 -7.41186 
110 1 2.2572 3.60556 2.85019 6.02294 -153502 -149865 -12.8932 -364.302 11767.7 -5340.38 -7.41162 
111 1 2.92179 2.35297 2.84795 6.02533 -161031 -142510 958.275 -3045.31 6759.43 -11459.8 -7.41161 
112 1 2.16957 1.151 2.84326 6.02598 -152195 -151302 -432.365 4659.96 2957.63 -6525.89 -7.41138 
156 1 4.59518 9.66888 2.89032 6.01016 -174854 -128737 5037.02 -18838.7 24688 1489.45 -7.41324 
157 1 5.26079 8.41657 2.88509 6.01571 -190271 -112220 1883.32 -21467.2 7828.93 -21914.8 -7.41277 
158 1 4.51127 7.21307 2.87555 6.01368 -167816 -135224 -750.511 -7566.26 19504.1 -3080.19 -7.41236 
159 1 5.17635 5.96059 2.87154 6.01865 -180916 -122393 5030.17 -11175.9 9893.21 -20808.3 -7.41259 
160 1 4.4257 4.75771 2.86251 6.01817 -161662 -141355 -2752.82 3370.03 12472.2 -6923.35 -7.4118 
161 1 5.09039 3.50512 2.86066 6.0227 -169769 -133893 4543.29 -2013.55 9190.88 -18931.1 -7.41225 
162 1 4.33878 2.30276 2.85345 6.02155 -156304 -146873 -1981.2 11274.6 4264.38 -10071.4 -7.41156 
163 1 5.00335 1.05019 2.85453 6.0228 -157390 -146182 1715.32 3151.81 5111.78 -16167.1 -7.41187 
207 1 7.42627 9.57123 2.89924 6.01033 -200485 -102913 11003.9 -22752.4 4636.08 -27585.8 -7.41385 
208 1 6.67774 8.36711 2.89022 6.00983 -179514 -122676 -8450.64 -6555.69 17924.2 -826.108 -7.41229 
209 1 7.34302 7.11464 2.8874 6.01456 -190404 -113433 13284.5 -11153.4 9030.66 -26793.7 -7.41367 
210 1 6.5933 5.91116 2.87794 6.01425 -170389 -131712 -9386.67 7056.69 11495.8 -6194.6 -7.41182 
211 1 7.25821 4.65863 2.87662 6.01939 -178489 -125735 11356.1 385.278 10929.2 -24654 -7.41323 
212 1 6.50735 3.45576 2.86806 6.01833 -162194 -140317 -6728.02 18212.3 3851.79 -10706.3 -7.41167 
213 1 7.17209 2.20325 2.86903 6.01964 -164864 -139105 6274.27 8720.7 9508.74 -21559.1 -7.41265 
214 1 6.42035 1.00087 2.86252 6.01981 -154677 -148280 -1893.5 24121.8 -4005.6 -14458.3 -7.41183 
258 1 8.84321 9.52244 2.90441 6.00857 -188688 -112671 -20278.3 -6755.31 15172.4 2252.94 -7.41192 
260 1 8.75996 7.06605 2.89417 6.01252 -177589 -123407 -20283.4 9489 9589.14 -4057.96 -7.41158 
262 1 8.67515 4.61026 2.88467 6.01708 -167824 -133672 -15574.9 23951.3 2387.49 -9354.61 -7.41157 
264 1 8.58906 2.15504 2.87796 6.01863 -158914 -143173 -7740.08 33789.9 -5223.5 -13837.9 -7.41188 
874 2 0.405397 8.6151 6.52338 6.01943 -139094 -164889 11356.7 22923.8 26815.9 2861.13 -7.41323 
875 2 0.490341 6.16096 6.53934 6.0227 -140972 -162541 4543.26 14513.7 20990.1 1505.75 -7.41225 
876 2 0.576847 3.70682 6.55205 6.02533 -144413 -158994 958.215 6532.33 13304.4 -123.978 -7.41161 
877 2 0.664491 1.2526 6.55918 6.02854 -148983 -154344 -274.846 1561.59 4472.33 -1725.41 -7.41132 
878 2 8.09665e-06 -2.38947e-07 6.56043 6.03132 -151564 -151686 -355.89 13.0866 0.216193 0.0527772 -7.41128 
921 2 2.48995 9.91656 6.5126 6.01461 -122870 -180818 13285 27659.1 27719.1 5576.16 -7.41367 
922 2 1.82258 8.66554 6.52206 6.01434 -147411 -154511 -9386.49 20232.2 11113.2 -6858.82 -7.41182 
923 2 2.57387 7.46314 6.52846 6.01868 -127342 -175959 5029.78 19635.3 22967 1836.41 -7.4126 
924 2 1.90746 6.21162 6.53749 6.01818 -149234 -153673 -2752.53 10468.4 12231.6 -7339.52 -7.4118 
925 2 2.65942 5.00957 6.54238 6.02102 -133793 -169304 648.478 10827.8 16189.7 -2142.29 -7.41186 
926 2 1.99392 3.75757 6.54981 6.0229 -150388 -152909 -12.6106 1454.41 10508.1 -7521.24 -7.41162 
927 2 2.74635 2.55575 6.55206 6.0234 -142042 -161270 -727.557 3618.77 8027.89 -5990.5 -7.41149 
928 2 2.08153 1.30336 6.55674 6.02809 -151155 -152259 138.002 -4297.1 5165.24 -7258.03 -7.41142 
929 2 2.83407 0.101586 6.55555 6.02582 -151437 -152115 -133.855 574.911 -278.712 -9191.31 -7.41144 
972 2 3.90727 9.96664 6.50978 6.0098 -131082 -170907 -8450.52 21317.5 9677.9 -15110.2 -7.41229 
973 2 4.65858 8.76425 6.51491 6.01573 -113152 -189331 1883.58 22966.6 22893.6 4177.65 -7.41277 
974 2 3.99109 7.5134 6.52445 6.01378 -136863 -166205 -750.735 10264.5 12420.4 -15350.9 -7.41237 
975 2 4.74299 6.31131 6.52852 6.01887 -121721 -180794 -2749.74 13037.5 17040 -1590.99 -7.41203 
976 2 4.07656 5.05987 6.53744 6.01953 -141956 -161541 2619.72 -1131.63 12941.2 -15057.6 -7.41219 
977 2 4.82891 3.85798 6.5394 6.0202 -132403 -170388 -3551.07 3563.02 9650.52 -7232.42 -7.41166 
978 2 4.16342 2.60601 6.54652 6.02479 -146731 -156882 2439.02 -9936.25 10137.8 -14145.4 -7.41189 
979 2 4.91593 1.40417 6.54549 6.02073 -144618 -158739 -1591.32 -2512.94 1730.53 -12245.8 -7.41163 
980 2 4.25109 0.15181 6.54981 6.02304 -151411 -151986 286.211 -13824.3 3916.8 -12494 -7.41163 
1023 2 6.74452 10.0642 6.50096 6.01295 -101453 -200438 -5351.47 25457.1 20897.7 7564.79 -7.41268 
1024 2 6.07592 8.81398 6.50968 6.01009 -123974 -179707 5037.23 10529.6 11054.6 -22124.7 -7.41324 
1025 2 6.82766 7.61177 6.5128 6.01829 -110756 -190793 -10112.2 14315.2 16345.7 656.588 -7.412 
1026 2 6.16021 6.36095 6.52191 6.01629 -132365 -171488 8427.05 -3361.96 14037 -21316.5 -7.41309 
1027 2 6.91238 5.15891 6.52355 6.01811 -122592 -179281 -10106.7 2419.95 9765.13 -6058.47 -7.41168 
1028 2 6.24604 3.90747 6.53183 6.02192 -140142 -163680 7493.2 -15600.4 14092.4 -19733.8 -7.4127 
1029 2 6.99842 2.7055 6.53108 6.01709 -136026 -166531 -6341.65 -7010.64 2286.75 -12226.7 -7.41174 
1030 2 6.33297 1.45354 6.53744 6.02087 -147424 -155973 3461.49 -23221.2 10538.1 -17461.3 -7.41222 
1031 2 7.08524 0.251461 6.53376 6.01688 -150342 -152818 -278.748 -11221.8 -4709.95 -17452.9 -7.4121 
1074 2 8.16196 10.1134 6.49547 6.00762 -113251 -191764 14995.3 12241 7559.66 -26705.1 -7.41438 
1075 2 8.91342 8.91095 6.49752 6.01872 -103319 -197522 -21380.2 15382.8 14189.9 3658.33 -7.41169 
1076 2 8.24498 7.66071 6.50555 6.01371 -123926 -181211 18167.6 -4133.16 13475.5 -25811.4 -7.41429 
1077 2 8.99683 6.45844 6.50685 6.01792 -114811 -186024 -20816.4 1187.73 8749.13 -3552.12 -7.41147 
1078 2 8.32957 5.20754 6.51507 6.01904 -133753 -170918 16154.7 -19724.7 16662.7 -23731.1 -7.41384 
1080 2 8.41552 2.75385 6.5219 6.01758 -142472 -161272 10001.3 -31363.2 16140.5 -20966.1 -7.41316 
1082 2 8.50226 0.299656 6.52443 6.01784 -150593 -152145 1404.7 -36484.6 11931.5 -17677.7 -7.41245 
259 1 9.50884 8.27007 2.90302 6.01113 -196382 -108940 25792.4 -10492.5 7011.99 -29883.8 -7.41504 
261 1 9.42524 5.81364 2.89352 6.01648 -184889 -120453 22155.6 3327.98 11837.8 -28073.3 -7.41452 
263 1 9.34019 3.35787 2.88555 6.01696 -171618 -133035 14418.6 14987.1 13309.6 -24946.7 -7.41375 
265 1 9.25411 0.902778 2.88095 6.01304 -157244 -146363 4290.17 21234.5 10901.1 -20943.3 -7.41289 
309 1 11.674 9.42673 2.91636 6.01019 -196332 -110969 41365.9 -9940.22 3363.93 -28512.6 -7.41655 
310 1 10.9258 8.22229 2.9091 6.0136 -181561 -118518 -34734.8 9671.63 7165.78 -1097.6 -7.41107 
311 1 11.5916 6.97011 2.9092 6.01479 -187316 -119796 36811.4 6069.67 11397.8 -27939.9 -7.41604 
312 1 10.8422 5.76628 2.90105 6.01736 -171212 -129079 -28439.8 27512.1 581.12 -6694.46 -7.41121 
313 1 11.5077 4.51408 2.90183 6.015 -175994 -130322 26603.4 20988.2 16117.9 -25519.6 -7.41511 
314 1 10.7571 3.31082 2.89416 6.01935 -162291 -138951 -17669.6 41271.8 -6856.04 -11441.4 -7.4117 
315 1 11.4225 2.05868 2.89635 6.01005 -162996 -141685 12882.1 31352 16514.5 -22080.2 -7.41398 
316 1 10.6711 0.855858 2.89024 6.01598 -154215 -147837 -4598.83 48163.7 -13807.6 -15556.4 -7.41247 
360 1 13.091 9.37956 2.92077 6.01693 -179938 -118996 -50433.5 6598.95 4544.12 1788.02 -7.41037 
361 1 13.7576 8.12774 2.92163 6.01563 -183793 -125492 53057.3 7177.98 9131.56 -22835.9 -7.41756 
362 1 13.0086 6.92358 2.91508 6.01983 -170996 -128495 -43953.4 27161 -1079.72 -3275.06 -7.41061 
363 1 13.6747 5.67169 2.91574 6.01346 -175930 -132331 41794.2 25247.6 17244.8 -21893.9 -7.4166 
364 1 12.9246 4.46807 2.9089 6.02073 -163208 -137282 -31074.7 44895.9 -8178.57 -7699.77 -7.41125 
365 1 13.5904 3.21615 2.91019 6.00835 -165921 -140267 25283.4 39755.8 20839.8 -19682.3 -7.41527 
366 1 12.8395 2.01297 2.90429 6.01415 -156358 -144953 -14525.3 56361.4 -15323.7 -11554.6 -7.41221 
367 1 13.5052 0.761109 2.90687 6.00581 -155099 -148946 6300.9 46922.7 19483.9 -16800.1 -7.41383 
411 1 15.9234 9.28596 2.92927 6.0187 -172676 -137954 66285.4 5364.42 5117.47 -12780.8 -7.41871 
412 1 15.1746 8.08169 2.92497 6.02367 -165247 -133214 -58838 21687.9 -2033.66 -328.665 -7.40993 
413 1 15.8415 6.83023 2.9254 6.01391 -169985 -139749 56596.4 25779.6 16214.3 -13446.3 -7.41792 
414 1 15.0917 5.6264 2.92016 6.0212 -159991 -139654 -45835.9 42707.7 -8502.45 -3402.36 -7.41062 
415 1 15.7581 4.37479 2.9204 6.00699 -164543 -143274 39386.9 44089.8 23021.5 -12863.3 -7.41655 
416 1 15.0075 3.17137 2.91553 6.01382 -155762 -145239 -27223.1 58703.5 -15622.1 -6182.55 -7.4117 
417 1 15.6735 1.91967 2.91645 6.00451 -157340 -147915 18080.4 56141.8 24446.5 -11618.7 -7.41492 
418 1 14.9222 0.716543 2.91293 6.00818 -152369 -150052 -6075.71 66349.7 -21995.2 -8761.83 -7.41305 
462 1 17.3406 9.23989 2.92974 6.02779 -153108 -144272 -68295.4 11307.2 -1629.46 477.883 -7.40945 
463 1 18.0084 7.98896 2.9298 6.01627 -158021 -152585 66064.8 21392.4 13102.6 -1560.34 -7.41871 
464 1 17.2586 6.78513 2.92652 6.0218 -151486 -147255 -58026.6 33720.4 -7140.73 -154.349 -7.41002 
465 1 17.9257 5.53393 2.92559 6.00824 -157780 -150901 51188.8 42474.6 22603.6 -2399.47 -7.41752 
466 1 17.1752 4.33043 2.92224 6.01379 -150990 -149581 -39963.7 53359.4 -13938.2 -815.538 -7.41107 
467 1 17.8417 3.07899 2.92135 6.00408 -155625 -150824 30237.4 58810.5 26745.2 -2764.81 -7.4159 
468 1 17.0905 1.87575 2.91901 6.0084 -150960 -151041 -17689.1 65908.7 -20697.5 -1632.61 -7.41246 
469 1 17.7567 0.624176 2.91899 6.00454 -152354 -151793 6603.46 66575.7 25515.3 -2903.52 -7.41416 
1079 2 9.08172 4.00536 6.5147 6.01439 -128124 -173293 -15259.1 -11663.2 1812.46 -10224.4 -7.41164 
1081 2 9.1677 1.55163 6.51914 6.01228 -142436 -159931 -6267.42 -19970.2 -5300.13 -16061.8 -7.41214 
1125 2 11.0001 10.2091 6.48483 6.01886 -102208 -198138 -35310.9 16609.3 10615.4 6519.76 -7.41115 
1126 2 10.3308 8.95926 6.49057 6.01181 -118429 -188379 31686 -2379.7 10543.9 -27416.9 -7.4157 
1127 2 11.0822 7.75666 6.4915 6.02002 -111326 -188628 -35043.2 703.273 6709.02 -503.59 -7.41099 
1128 2 10.4141 6.50623 6.49847 6.01678 -129324 -176990 28895.7 -21097.8 17310.4 -25423.4 -7.41526 
1129 2 11.1658 5.30374 6.49855 6.01414 -122936 -177325 -28231.4 -15378.5 601.431 -7156.56 -7.41126 
1130 2 10.4989 4.05268 6.50548 6.01374 -138537 -166240 20644.9 -36789.3 20193.8 -22548.9 -7.41443 
1131 2 11.2508 2.85023 6.50383 6.00989 -136037 -165413 -16572 -28094 -6402.61 -13018.2 -7.41192 
1132 2 10.5848 1.59864 6.50963 6.01319 -146509 -156673 8804.08 -46582.2 18761.9 -19228.5 -7.41343 
1133 2 11.3366 0.396089 6.50573 6.00835 -149592 -153465 -2185.18 -34015.6 -12761.5 -17950.5 -7.41286 
1176 2 12.4175 10.2569 6.47904 6.01098 -118319 -190403 46824.4 2080.41 4632.46 -24951.1 -7.4171 
1177 2 13.1683 9.0539 6.47949 6.02288 -114502 -184592 -50557.6 1690.99 4063.31 2202.13 -7.41033 
1178 2 12.4995 7.80377 6.48416 6.0159 -128520 -179673 44671.9 -18564.5 15068 -23548.6 -7.4168 
1179 2 13.2507 6.60089 6.48471 6.01661 -122792 -176530 -43850.9 -17042.5 -1005.43 -3632.35 -7.41064 
1180 2 12.583 5.35017 6.4903 6.01165 -137246 -169283 35193.6 -37919.8 21804 -21119.8 -7.41592 
1181 2 13.3346 4.1474 6.48993 6.01066 -133012 -167472 -30440.8 -33859.3 -7593.47 -8907.44 -7.4114 
1182 2 12.6679 2.89616 6.49524 6.00912 -144324 -160074 20584.2 -52447 23689.8 -18208.9 -7.4147 
1183 2 13.4196 1.69341 6.49315 6.00662 -143943 -158063 -12937.5 -44828.7 -14363.8 -13284.7 -7.4125 
1184 2 12.7536 0.441762 6.49727 6.00982 -150428 -152270 3324.89 -59070.2 21057.4 -15018.8 -7.4134 
1227 2 15.2546 10.3507 6.47231 6.02538 -125584 -172537 -63211.5 4796.52 1844.21 3203.16 -7.40972 
1228 2 14.5856 9.10064 6.474 6.01686 -133325 -176618 59977.2 -11758.5 9379.28 -17416.6 -7.41817 
1229 2 15.336 7.89729 6.47495 6.02125 -129103 -169028 -58806.3 -15417.3 -2143.97 -701.25 -7.40994 
1230 2 14.6679 6.64673 6.47835 6.01235 -140418 -168213 51328.6 -33433.4 19876.1 -15638.5 -7.41742 
1231 2 15.4189 5.44356 6.47935 6.01398 -135197 -164338 -45588.9 -35561.4 -8178.86 -4453.11 -7.41069 
1232 2 14.7517 4.19253 6.48326 6.00778 -145555 -160841 35448.5 -52087.7 25557.5 -13525.4 -7.41612 
1233 2 15.5031 2.9895 6.48326 6.00857 -142453 -158986 -26496.1 -51287.2 -14990.2 -7583.51 -7.41185 
1234 2 14.8367 1.73809 6.48661 6.00614 -149155 -154955 15449.2 -63962.8 25915.9 -11217.2 -7.41458 
1235 2 15.5882 0.535097 6.48492 6.00533 -149853 -153322 -4544.32 -58803.6 -21108.3 -9921.88 -7.4133 
1278 2 16.672 10.3975 6.46905 6.02026 -144300 -166783 69670.8 -1384.74 1152.52 -7869.14 -7.419 
1279 2 17.4214 9.19362 6.47025 6.02651 -142388 -155014 -68292.5 -9797.43 -1717.72 213.727 -7.40945 
1280 2 16.7533 7.94297 6.47113 6.01559 -148872 -161388 64463.6 -23215 14205.9 -6336.21 -7.41857 
1281 2 17.5034 6.73935 6.47341 6.01959 -143528 -155220 -57992.9 -31865.6 -7106.33 -1051.47 -7.41003 
1282 2 16.836 5.48834 6.47539 6.00821 -151412 -156876 49922.3 -44519.6 23459.7 -4993.92 -7.4174 
1283 2 17.5868 4.28498 6.47754 6.01206 -145903 -154586 -39841.5 -51402.6 -13794.1 -2111.18 -7.4111 
1284 2 16.9202 3.03365 6.47954 6.00465 -152076 -154035 29343.6 -60823.2 27278.7 -3806.21 -7.4158 
1285 2 17.6715 1.83048 6.48055 6.00724 -148915 -153331 -17393.5 -63870.1 -20487.5 -2739.6 -7.41252 
1286 2 17.0053 0.578945 6.48171 6.0054 -151552 -152274 6045.55 -68549.4 25821.3 -2660.25 -7.41408 
461 1 18.0896 10.444 2.93168 6.02311 -155600 -155534 71471.7 0.701853 0.0898484 -0.276531 -7.41915 
512 1 19.5069 10.3974 2.92974 6.02779 -136720 -160704 -68295.4 -1836.56 400.866 -1649.95 -7.40945 
513 1 20.1756 9.1471 2.92927 6.01869 -141988 -168610 66285.6 12416.5 8509.63 10821.5 -7.41871 
514 1 19.4256 7.94347 2.92775 6.02293 -138044 -159903 -63187.3 19415.9 -3753.67 537.08 -7.40973 
515 1 20.0935 6.69275 2.92561 6.0116 -146789 -162271 56459.2 34487 19745.2 9249.07 -7.4179 
516 1 19.3429 5.48936 2.92375 6.01491 -141299 -158086 -48814 40498.5 -9893.1 2636.29 -7.41055 
517 1 20.0099 4.23824 2.92104 6.00638 -149643 -157183 38956.6 53677 26115.6 7692.92 -7.4165 
518 1 19.2587 3.03505 2.91996 6.00887 -145735 -155686 -28406.4 56826.2 -16725.7 4292.09 -7.4118 
519 1 19.9252 1.78362 2.91773 6.00526 -150875 -153693 17215 65997.9 26964.6 6110.47 -7.41484 
520 1 19.1737 0.580532 2.9182 6.00541 -150352 -152833 -5188.93 64627.3 -22826.1 5347.45 -7.41333 
563 1 22.3432 10.304 2.9254 6.01387 -124971 -184729 56597.1 201.233 3537.91 20764.8 -7.41792 
564 1 21.5929 9.10075 2.92497 6.02366 -122396 -175930 -58838.5 2915.92 1301.24 -1596.5 -7.40993 
565 1 22.2615 7.85051 2.92163 6.01564 -133786 -175250 53057.4 21647.8 15210.8 19326.2 -7.41756 
566 1 21.5107 6.64737 2.92077 6.01695 -128540 -170346 -50433.4 23023.1 -3820.23 3041.71 -7.41037 
567 1 22.1783 5.39662 2.91636 6.01018 -140845 -166245 41364.1 42005.1 23010.5 17170.1 -7.41655 
568 1 21.427 4.19363 2.91613 6.01074 -136633 -163788 -34779.6 41086.1 -10387.4 7208.27 -7.41128 
569 1 22.0938 2.9424 2.91184 6.00718 -146248 -158614 24161.3 57372.2 25640.5 14677.8 -7.41516 
570 1 21.3422 1.73948 2.91312 6.00636 -145345 -156870 -14893.2 52813.7 -17094.1 10555.6 -7.41254 
571 1 22.0083 0.487908 2.90984 6.00755 -150650 -152416 4264.53 64497.9 23449.1 11969.5 -7.41368 
614 1 23.7607 10.2566 2.92016 6.02118 -107681 -191918 -45836.5 -12579 7197.06 -5662.15 -7.41062 
615 1 24.43 9.0068 2.91574 6.01348 -121243 -186838 41794.7 6332.16 10338 25881.1 -7.4166 
616 1 23.6789 7.80397 2.91508 6.01986 -115486 -183910 -43953.7 4792.15 3375.41 702.395 -7.41061 
617 1 24.347 6.55356 2.9092 6.01478 -131418 -175683 36810.8 26294 18497.8 23840.5 -7.41604 
618 1 23.5955 5.35086 2.9091 6.01359 -125745 -174179 -34734.7 22381 -2633.1 6755.02 -7.41107 
619 1 24.2626 4.09985 2.90302 6.01112 -139894 -165324 25791 43149 22374.1 21014.6 -7.41504 
620 1 23.5109 2.89721 2.90441 6.00859 -137448 -163796 -20278 36231.8 -9537.53 12013.7 -7.41192 
621 1 24.1771 1.64571 2.89924 6.01031 -146900 -156261 11002.8 53723 21571 17807.6 -7.41385 
622 1 23.4254 0.442992 2.90268 6.00646 -149516 -153468 -3001.58 42779.1 -15793.9 16338.6 -7.41306 
665 1 26.5987 10.1616 2.91019 6.00834 -112282 -194016 25283.6 -8680.7 6624.95 27888.5 -7.41527 
666 1 25.8474 8.95904 2.9089 6.02071 -104707 -195642 -31074.9 -11248.2 10756.1 -3233.64 -7.41125 
667 1 26.516 7.7089 2.90183 6.01498 -123478 -182691 26603.9 9346.65 14041 26718.5 -7.41511 
668 1 25.7643 6.50646 2.90105 6.01732 -115718 -184491 -28439.9 4450.72 5506.41 3850.63 -7.41121 
669 1 26.4318 5.25567 2.89352 6.01649 -133567 -171580 22155.5 26311.9 18392.3 24288.2 -7.41452 
670 1 25.6798 4.05331 2.89417 6.0125 -128646 -172267 -20283.5 18656.1 -1280.93 10334.1 -7.41158 
671 1 26.3462 2.80192 2.8874 6.01457 -142389 -161515 13284.5 38899 18688.9 21217.6 -7.41367 
672 1 25.5941 1.59954 2.89022 6.00978 -142446 -159702 -8449.93 27839.5 -8247.62 15936.4 -7.41229 
673 1 26.2598 0.347686 2.88509 6.01572 -150414 -152181 1883.62 44521.4 15065.3 17737.3 -7.41277 
1330 2 18.8387 9.23962 6.46905 6.02025 -162376 -148723 69670.9 -9073.56 6238.5 4932.46 -7.419 
1331 2 19.5878 8.03552 6.47231 6.02536 -156676 -141416 -63211.3 -22720.7 -3696.56 -4.76513 -7.40972 
1332 2 18.9205 6.78433 6.47246 6.01232 -162230 -147682 59295.9 -30513.3 17780.4 5970.98 -7.41816 
1333 2 19.6706 5.5806 6.47652 6.01877 -154137 -145414 -48948 -44235.8 -10076.8 1504.2 -7.41051 
1334 2 19.0039 4.32918 6.47706 6.0058 -159402 -148299 41077.1 -49521.6 24755.1 6158.19 -7.41673 
1335 2 19.7547 3.1258 6.48068 6.01168 -152593 -148671 -28794 -60712.5 -17077.9 2976.98 -7.41171 
1336 2 19.0885 1.87422 6.48068 6.00377 -155049 -150189 18627.3 -61908.3 26176.3 5909.54 -7.41502 
1337 2 19.8398 0.671061 6.48292 6.00687 -151613 -151132 -6007.69 -68511.5 -23308.9 4508.72 -7.41319 
1381 2 21.6719 9.33274 6.47495 6.02124 -172476 -125846 -58806.5 -9555.34 1679.01 -1505.91 -7.40994 
1382 2 21.0049 8.08121 6.474 6.01686 -175999 -134079 59977.6 -12940.4 10394 16830.7 -7.41817 
1383 2 21.7541 6.8771 6.47949 6.02287 -165677 -133547 -50557.1 -31188.1 -3939.16 2418.29 -7.41033 
1384 2 21.0876 5.62545 6.47904 6.01095 -170469 -138230 46823.9 -32344.5 19292.9 16487.3 -7.4171 
1385 2 21.8378 4.42182 6.48483 6.01882 -159796 -140572 -35310 -49851.8 -10954.3 5934.05 -7.41115 
1386 2 21.1717 3.17006 6.48401 6.00604 -162770 -143660 28031.1 -47713.3 23316.8 15073.8 -7.41562 
1387 2 21.9227 1.96682 6.48889 6.01163 -154838 -146687 -16187.8 -61841.7 -17956.4 9074.61 -7.4123 
1388 2 21.2568 0.715084 6.48697 6.00495 -154110 -150072 6698.12 -55185.3 22133.7 13099.4 -7.41403 
1432 2 23.0889 9.37943 6.47835 6.01236 -190181 -118421 51329.4 4582.43 3605.4 25031.7 -7.41742 
1433 2 23.8373 8.17499 6.48471 6.01664 -177864 -121476 -43850.8 -14742.7 3648.43 945.417 -7.41064 
1434 2 23.1711 6.92302 6.48416 6.01587 -182961 -125378 44671.8 -12945.5 12860 24823.7 -7.4168 
1435 2 23.9206 5.71914 6.4915 6.02004 -168771 -131299 -35043.2 -33813.1 -2918.62 6062.67 -7.41099 
1436 2 23.2548 4.46712 6.49057 6.01183 -172987 -133924 31684.6 -29175 18471.8 22840 -7.4157 
1437 2 24.0053 3.26377 6.49752 6.01869 -160794 -140203 -21380.1 -48477.6 -10263.6 10460.1 -7.4117 
1438 2 23.3397 2.01178 6.49547 6.00758 -161481 -143472 14994.1 -40184.5 19347.6 19898.9 -7.41438 
1439 2 24.0911 0.808829 6.50096 6.01295 -153672 -148255 -5350.53 -55615.1 -17000.6 14315.5 -7.41268 
1483 2 25.9201 9.47439 6.48993 6.01067 -188244 -112290 -30440.9 2086.65 11510.6 -2122.33 -7.4114 
1484 2 25.2542 8.22214 6.4903 6.01166 -194087 -112514 35194.6 5058.62 7388.18 29442.8 -7.41592 
1485 2 26.0031 7.01802 6.49855 6.01415 -177136 -123244 -28231.3 -15766.1 5896.13 4099.48 -7.41126 
1486 2 25.3375 5.76575 6.49847 6.01676 -183342 -123033 28895.8 -10192.8 13362.3 27702.9 -7.41526 
1487 2 26.0876 4.56225 6.50685 6.01789 -167312 -133625 -20816.5 -31401.9 -1299 9352.92 -7.41147 
1488 2 25.4223 3.31 6.50555 6.01369 -170538 -134703 18167.1 -22803.1 15615.3 24575.6 -7.41429 
1489 2 26.1733 2.10703 6.5128 6.0183 -158550 -143156 -10112.3 -41810.6 -8742.68 13827.8 -7.412 
1490 2 25.5081 0.854901 6.50968 6.01009 -156718 -147023 5036.63 -29374.8 13632.9 20635.7 -7.41324 
716 1 28.0161 10.1128 2.90428 6.01415 -99000.5 -202366 -14524.7 -23219.9 17669 -7494.16 -7.41221 
717 1 28.685 8.86282 2.89635 6.01004 -119839 -184781 12882.1 -6350.5 10865.1 25342.1 -7.41398 
718 1 27.9333 7.66055 2.89415 6.01936 -108878 -192082 -17669.2 -10547.7 13336.1 -216.708 -7.4117 
719 1 28.6011 6.4099 2.88554 6.01701 -129666 -174895 14418.5 9204.17 14948.9 24000.3 -7.41375 
720 1 27.849 5.20776 2.88467 6.0171 -121312 -180025 -15574.9 2711.09 6906.58 6745.08 -7.41157 
721 1 28.5156 3.95647 2.87662 6.01943 -138583 -165513 11355.9 22681.7 15885.9 21792.2 -7.41323 
722 1 27.7633 2.75437 2.87794 6.01428 -135270 -166812 -9386.82 13167.5 -383.192 13053.5 -7.41182 
723 1 28.4289 1.50255 2.87154 6.01867 -146708 -156544 5030.01 30955.3 13073.7 18971.7 -7.41259 
724 1 27.6768 0.300324 2.87555 6.01373 -149961 -152989 -750.519 17841.2 -7084.64 18431.6 -7.41236 
767 1 30.8539 10.0158 2.89427 6.00832 -122898 -179898 -2185.32 -18644.5 9164.61 20027.6 -7.41286 
768 1 30.1024 8.81351 2.89024 6.01598 -107692 -194346 -4598.47 -21244.6 20376.3 -4180.08 -7.41247 
769 1 30.7703 7.5629 2.88095 6.01305 -130741 -172922 4290.57 -5840.12 12687.4 19912.1 -7.41289 
770 1 30.0183 6.36082 2.87796 6.01863 -117753 -184176 -7739.86 -10074.5 14595.2 2395.3 -7.41188 
771 1 30.685 5.10958 2.86902 6.01963 -137897 -165830 6274.66 6863.87 13916 19014.7 -7.41265 
772 1 29.9327 3.90764 2.86805 6.01831 -129952 -172363 -6727.83 402.314 7346.2 8689.05 -7.41167 
773 1 30.5984 2.65584 2.86066 6.0227 -144658 -159000 4543.22 16536.3 11799.3 17425.5 -7.41225 
774 1 29.846 1.45391 2.86251 6.01817 -143511 -159513 -2752.73 7079.95 -240.189 14262.8 -7.4118 
775 1 30.511 0.201665 2.85762 6.02104 -151145 -152090 648.819 20810.4 6240.25 15091.7 -7.41186 
818 1 32.2712 9.96598 2.89037 6.01321 -113744 -189352 8805.14 -27636.5 26033.4 -6634.27 -7.41343 
819 1 32.9391 8.71527 2.88086 6.0123 -138118 -164102 -6267.29 -17574.8 11259.8 12621 -7.41214 
820 1 32.1875 7.513 2.87557 6.01785 -120215 -182559 1404.81 -18878.3 21274.9 -1493.91 -7.41245 
821 1 32.8543 6.26173 2.86624 6.01687 -142528 -160652 -278.395 -6666.3 12760.2 12805.5 -7.4121 
822 1 32.1022 5.05974 2.86252 6.01977 -128917 -173898 -1893.38 -9303.39 14523.8 3760.41 -7.41183 
823 1 32.768 3.80793 2.85453 6.02283 -146285 -157213 1715.19 3286.91 11445.5 12510.8 -7.41187 
824 1 32.0155 2.60611 2.85345 6.02157 -139460 -163641 -1981.07 -1557.17 6590.14 8729 -7.41156 
825 1 32.6805 1.35385 2.84795 6.02532 -149619 -153709 958.573 9551.5 6544.43 11584.1 -7.41161 
826 1 31.928 0.152004 2.85019 6.02291 -151111 -152272 -12.4396 1811.23 -1258.88 12861.2 -7.41162 
860 1 35.107 9.86767 2.8853 6.01436 -151805 -149385 -15258.7 -25520.2 9759.71 3544.11 -7.41164 
861 1 34.3563 8.66497 2.8781 6.01759 -129289 -174257 10002.4 -23780.1 26226.9 -3494.76 -7.41316 
862 1 35.023 7.41356 2.86891 6.01705 -152719 -149666 -6341.23 -16717.2 11732.1 4133.27 -7.41174 
863 1 34.2715 6.21128 2.86256 6.02084 -133765 -169596 3461.27 -15249.2 20391.2 -395.358 -7.41222 
864 1 34.9372 4.9594 2.85451 6.02081 -152901 -150272 -1591.7 -7373.75 11470.3 4624.65 -7.41163 
865 1 34.1851 3.75745 2.85019 6.02307 -139934 -163379 286.113 -7176.04 12778.8 2855.54 -7.41163 
866 1 34.8501 2.50516 2.84445 6.0258 -152409 -150958 -134.038 -7.15216 7820.41 4837.56 -7.41144 
867 1 34.0976 1.30339 2.84326 6.02595 -147344 -155912 -432.175 -1969.29 4172.21 5824.81 -7.41138 
868 1 34.7621 0.0508373 2.84082 6.0286 -151609 -151682 -274.895 3048.69 742.426 4735.94 -7.41132 
1534 2 27.337 9.52266 6.49524 6.00911 -201592 -102992 20583.8 19317.2 3924.1 29620.6 -7.4147 
1535 2 28.0854 8.31838 6.50383 6.00992 -182414 -118995 -16571.4 1416.38 14475.6 964.191 -7.41192 
1536 2 27.42 7.06594 6.50548 6.01372 -191167 -113556 20644.7 6358.08 9431 28762.5 -7.41443 
1537 2 28.1696 5.86231 6.5147 6.01438 -172224 -129240 -15258.9 -13699.3 7948.22 6681.48 -7.41164 
1538 2 27.5045 4.60985 6.51507 6.01901 -178767 -125936 16154.7 -6323.3 12219.9 26295.5 -7.41384 
1539 2 28.2552 3.40683 6.52355 6.01811 -163045 -138805 -10106.7 -25781.4 364.406 11485.4 -7.41168 
1540 2 27.5903 2.15442 6.52191 6.0163 -164812 -139295 8426.55 -15262 11440.6 22815.1 -7.41309 
1541 2 28.3419 0.951886 6.52852 6.01884 -154786 -147744 -2749.82 -32016.5 -7142.57 15553 -7.41203 
1585 2 30.1678 9.61975 6.50573 6.00838 -181868 -121016 -2184.62 15339.1 21926.9 -2077.22 -7.41286 
1586 2 29.5023 8.36734 6.50963 6.01318 -194410 -108650 8804.14 18822.9 7271.91 25861.6 -7.41343 
1587 2 30.2515 7.16364 6.51914 6.01223 -172904 -129459 -6266.97 2380.98 16559.9 3440.43 -7.41214 
1588 2 29.5865 5.91112 6.5219 6.01755 -183785 -120019 10001.8 7445.02 10086.7 24460.9 -7.41316 
1589 2 30.3369 4.70805 6.53108 6.01709 -165008 -137522 -6341.49 -9710.27 9445.65 8093.31 -7.41174 
1590 2 29.6722 3.45548 6.53183 6.02195 -171316 -132561 7493.23 -2408.47 10043.3 22071.6 -7.4127 
1591 2 30.4236 2.25296 6.5394 6.02022 -157863 -145018 -3551.12 -18202.2 1438.29 11973.5 -7.41166 
1592 2 29.7589 1.00047 6.53744 6.01956 -157635 -145832 2619.74 -7943.79 6569.79 18736.1 -7.41219 
1636 2 31.5848 9.66937 6.50976 6.01596 -191140 -110812 -4598.82 26831.6 6568.73 19734.9 -7.41247 
1637 2 32.3339 8.46568 6.51905 6.01296 -167500 -136032 4291.3 15296.5 23588.1 1030.39 -7.41289 
1638 2 31.6685 7.21334 6.52443 6.01781 -183384 -119334 1405.11 17535.1 9343.63 19171.3 -7.41245 
1639 2 32.4188 6.01026 6.53376 6.01687 -161866 -141288 -278.673 4494.44 17470.2 4647.69 -7.4121 
1640 2 31.7539 4.75774 6.53744 6.02088 -173967 -129497 3461.73 7820.56 9852.81 17857.1 -7.41222 
1641 2 32.5051 3.55522 6.54549 6.02072 -157288 -145880 -1591.43 -4844.63 9740.49 7621.18 -7.41163 
1642 2 31.8406 2.30261 6.54652 6.02479 -162974 -140615 2439.16 592.81 7180.94 15852.3 -7.41189 
1643 2 32.5926 1.10052 6.55206 6.02334 -153371 -149996 -727.457 -10122.6 1173.67 9947.79 -7.41149 
1687 2 34.4171 9.76776 6.51445 6.01689 -155668 -149021 14420.3 24165.9 28259.2 946.412 -7.41375 
1688 2 33.7509 8.51585 6.52204 6.01852 -176365 -125684 -7739.11 23669.3 9372.39 11442.6 -7.41188 
1689 2 34.5012 7.31283 6.53097 6.01964 -152893 -150878 6274.78 15443 23425.6 2544.71 -7.41265 
1690 2 33.8358 6.06061 6.53748 6.01983 -170708 -132197 -1893.49 14811.5 10518.7 10698.3 -7.41183 
1691 2 34.587 4.85812 6.54546 6.02283 -151619 -151791 1714.89 6447.6 16557.1 3656.73 -7.41187 
1692 2 33.9221 3.60564 6.54981 6.02306 -163707 -139569 285.933 6676.05 8861.87 9638.89 -7.41162 
1693 2 34.6741 2.40357 6.55555 6.0258 -151359 -152132 -134.06 -558.834 8099.22 4354.55 -7.41144 
1694 2 34.0096 1.15096 6.55674 6.02807 -155711 -147759 138.016 1692.71 3703.21 8102.36 -7.41142 
1733 2 35.8342 9.81802 6.51533 6.01704 -162934 -138332 -15574.6 26804.4 9294.62 2608.55 -7.41157 
1734 2 35.9183 7.3634 6.53194 6.01836 -161391 -140913 -6727.64 18608.7 11197.9 2017.44 -7.41167 
1735 2 36.004 4.90887 6.54655 6.02158 -158921 -144151 -1981.24 9743.9 10854.2 1342.3 -7.41156 
1736 2 36.0912 2.4544 6.55674 6.0259 -155510 -147909 -432.293 2743.67 7130.47 701.054 -7.41138 
44 1 1.41694 20.8415 2.92975 6.0265 -160395 -137130 -68292.6 541.162 -673.656 -1594.75 -7.40945 
45 1 0.6685 19.6371 2.93095 6.02023 -159964 -151098 69670.6 -10499.5 7391.34 2936.66 -7.419 
46 1 1.3367 18.3863 2.9277 6.02535 -164972 -133155 -63212 -18044.1 -1852.1 -3198.6 -7.40972 
47 1 0.588581 17.1819 2.92601 6.01683 -155724 -154372 59977.2 -24624.5 19772.6 585.732 -7.41818 
48 1 1.25678 15.931 2.92051 6.02285 -168522 -130683 -50557.3 -29615.9 124.037 -4620.72 -7.41033 
49 1 0.50851 14.7268 2.91584 6.0159 -150966 -157433 44670.9 -31425.5 27927.4 -1274.97 -7.4168 
50 1 1.17637 13.4758 2.9085 6.01999 -169851 -130053 -35043.3 -33215.2 3790.47 -5558.7 -7.41099 
51 1 0.42752 12.272 2.90153 6.01675 -146906 -159381 28896.2 -31182.3 30672.4 -2278.68 -7.41526 
52 1 1.09477 11.0207 2.89315 6.01796 -169355 -131559 -20816.8 -30379.5 7449.86 -5800.45 -7.41147 
96 1 2.83411 20.7948 2.92887 6.01557 -178380 -131881 64463.2 -6254.64 1615.96 15471.3 -7.41857 
97 1 3.50143 19.5433 2.9266 6.01957 -179887 -118731 -57993.3 -10937.6 -4464.03 -5628.79 -7.41003 
98 1 2.7539 18.3385 2.92754 6.01231 -177788 -132123 59295.3 -21539.8 14061.2 12413.2 -7.41816 
99 1 3.42135 17.0871 2.92348 6.01878 -185912 -113621 -48947.8 -25969.6 -3736.01 -9478.41 -7.41051 
100 1 2.67399 15.8824 2.92096 6.01099 -174188 -134452 46823.5 -30146.8 23924.1 8464.82 -7.4171 