C:\Data\mick_graphene_paper\3_data\1_kc_fitting\fit_bootstrap\QMC_00_kT0.004\lmp_tmp\data_lammps00000119n2ph1i (written by ASE) 

4 	 atoms 
2  atom types
0.0      2.4620000000000002  xlo xhi
0.0       2.132154544117288  ylo yhi
0.0                      15  zlo zhi
     1.2310000000000001                       0                       0  xy xz yz


Atoms 

     1   0   1   0.0                       0                       0      6.0999999999999996
     2   0   1   0.0                       0      1.4214363627448587      6.0999999999999996
     3   1   1   0.0                       0      1.4214363627448587      8.8999999999999986
     4   1   1   0.0      1.2310000000000001     0.71071818137242937      8.8999999999999986
