ITEM: TIMESTEP
223
ITEM: NUMBER OF ATOMS
37448
ITEM: BOX BOUNDS pp pp pp
0.0000000000000000e+00 1.6827448400000000e+02
0.0000000000000000e+00 2.9145995699999997e+02
0.0000000000000000e+00 1.8399999600000001e+01
ITEM: ATOMS id type x y z c_csym c_2[1] c_2[2] c_2[3] c_2[4] c_2[5] c_2[6] c_3 
1 1 7.0487e-06 3.44431e-07 7.34057 6.04763 -8908.23 -9009.53 -177.825 14.5201 0.030589 0.0764841 -7.41134 
2 1 2.14929 1.19516 7.34137 6.04605 -10632.7 -6835.13 -142.987 -860.721 1880.33 -3461.73 -7.41136 
3 1 3.56894 1.17246 7.34241 6.04351 -9676.58 -7948.98 -230.504 4770.57 1442.95 -5164.81 -7.41139 
4 1 6.40807 1.1275 7.34588 6.04149 -12214.5 -4974.32 112.595 3667.83 2557.09 -9728.3 -7.41152 
5 1 7.82773 1.1058 7.3482 6.03961 -11085.1 -5822.24 -445.123 16849.7 -93.881 -10382.4 -7.41155 
80 1 0.0396083 2.45894 7.34137 6.04502 -10686.1 -7193.24 -193.657 -1255.88 3609.93 -81.9259 -7.41136 
81 1 1.45927 2.43606 7.34163 6.045 -8640.1 -8926.07 -166.122 175.056 3828.92 -2080.71 -7.41137 
82 1 2.18866 3.65423 7.34292 6.04328 -14403.9 -2990.12 -147.97 -3234.75 5192.85 -3746.3 -7.41141 
83 1 3.60831 3.63155 7.34393 6.04181 -11510.3 -5923.83 -292.983 2353.72 5406.85 -4705.93 -7.41143 
84 1 4.29835 2.39065 7.34368 6.04434 -14661.3 -3014 54.9146 -319.095 3787.5 -7001.13 -7.41145 
85 1 5.71799 2.36836 7.3454 6.041 -12532 -4757.89 -490.374 9158.37 2711.24 -7577.67 -7.41146 
86 1 6.44701 3.5868 7.3473 6.04273 -19894.6 2723.32 540.893 1377.45 5623.46 -10419 -7.4116 
87 1 7.86664 3.5651 7.34955 6.03803 -16681.9 -12.1137 -1082.12 14402.2 3639.01 -9356.73 -7.41154 
88 1 8.55678 2.32427 7.34999 6.0396 -17701.9 578.478 719.248 7606.2 4710.18 -12810.2 -7.41169 
238 1 0.0788113 4.91792 7.34368 6.0422 -12217.7 -5309.12 -341.508 -4943.41 6674.41 -146.929 -7.41142 
239 1 1.49847 4.89507 7.34393 6.0433 -8380.03 -9015.97 3.85605 -3385.06 7849.14 -1945.49 -7.41145 
240 1 2.22746 6.11346 7.34588 6.04078 -18189.5 917.819 -356.934 -7924.77 7880.27 -3948.72 -7.41148 
241 1 3.64709 6.09081 7.34683 6.03955 -13534.4 -3867.46 -127.809 -2415.61 9350.39 -4172.63 -7.41153 
242 1 4.33731 4.84997 7.34589 6.04169 -20273.4 2886.5 130.356 -3897.69 6704.97 -7417.52 -7.41152 
243 1 5.75693 4.82769 7.34753 6.03857 -16270.5 -878.618 -694.777 5539.54 6608.91 -6755.65 -7.41151 
244 1 6.4854 6.04646 7.35002 6.03963 -27405.8 10259.2 754.273 -3305.92 8080.52 -10912.4 -7.41169 
245 1 7.90499 6.02477 7.35214 6.03457 -22247.7 5820.25 -1483.85 9568.4 7409.7 -8196.81 -7.41159 
246 1 8.59514 4.78389 7.35194 6.03968 -26862.2 9833.37 1410.64 4018.38 7322.81 -13568.1 -7.4118 
396 1 0.11724 7.37694 7.34729 6.03919 -13685.1 -3549.11 -761.548 -10689.2 9051.86 -205.978 -7.4115 
397 1 1.53691 7.35413 7.34753 6.04167 -8209.54 -8940.73 460.617 -9137.81 11730.2 -1781.62 -7.41159 
398 1 2.26532 8.57284 7.34998 6.03878 -21398.8 4619.71 -898.67 -14537.1 9853.01 -4087.64 -7.41157 
399 1 3.68495 8.55024 7.35085 6.03711 -15236 -1842.47 380.739 -9113.09 13083.3 -3574.87 -7.41169 
400 1 4.37552 7.30954 7.34933 6.03938 -25535.9 8507.31 -70.7557 -9573.19 8950.32 -7699.12 -7.41161 
401 1 5.79513 7.2873 7.35087 6.03523 -19857.7 2986.17 -604.106 -367.913 10411.5 -5832.96 -7.41162 
402 1 6.52288 8.50646 7.35379 6.03674 -34171.8 17390.7 617.97 -9997.78 9851.8 -11236.2 -7.41179 
403 1 7.94246 8.48479 7.35578 6.03078 -27413.8 11243.4 -1519.89 2557.93 11039.7 -6932.01 -7.4117 
404 1 8.6328 7.24396 7.35502 6.0358 -35431.2 18764.5 1804.26 -1666.85 9289.91 -14105.8 -7.41191 
6 1 10.6668 1.06266 7.35374 6.03472 -13351 -3528.14 531.927 14563.9 4004.99 -14525.4 -7.4118 
7 1 12.0864 1.04261 7.3568 6.03589 -12064.6 -4053.54 -790.216 33736 -2415.53 -14070 -7.41178 
8 1 14.9254 1.00206 7.36326 6.02713 -14055.9 -2413.25 1018.1 30144.9 6041.69 -17614.7 -7.41213 
9 1 16.3451 0.984081 7.36651 6.02944 -12779.2 -2780.55 -1202.57 53401.6 -5186.42 -16258.8 -7.41205 
89 1 9.9764 2.30332 7.35271 6.0378 -15488.2 -1219.76 -1150.76 23934.1 585.777 -11827.6 -7.41164 
90 1 10.7049 3.52215 7.35493 6.03794 -24139.1 7202.48 1746.92 12326.6 6727.14 -15570.8 -7.41192 
91 1 12.1246 3.50208 7.35786 6.0354 -20577.2 4770.79 -2318.09 31254.7 976.956 -12668.7 -7.41171 
92 1 12.815 2.26147 7.35876 6.03256 -19711.5 3271.55 1643.56 21096.5 6306.37 -16903 -7.41203 
93 1 14.2346 2.2424 7.3619 6.03424 -17388.9 1540.54 -2038.9 42459.2 -2188.71 -14592 -7.41186 
94 1 14.9626 3.46167 7.36409 6.03075 -27046.9 10331.2 3248.29 27930.2 8434.15 -18926.4 -7.41231 
95 1 16.3822 3.44366 7.36714 6.03299 -23251.3 8187.82 -3801.63 50960 -2143.58 -14666 -7.4119 
96 1 17.0732 2.20339 7.36832 6.02492 -20971.3 4953.57 2675.56 38393.8 8397.15 -19319.9 -7.4124 
97 1 18.4928 2.18652 7.3714 6.02752 -18472.5 3651.09 -3010.24 62884.5 -5230.7 -16090.3 -7.41208 
247 1 10.0147 4.76294 7.35454 6.03497 -22565.2 6100.31 -2100.01 20260.8 4217.09 -10514.2 -7.41163 
248 1 10.7426 5.98215 7.35728 6.03599 -34565.2 17700.4 2727.17 7565.16 8856.41 -16365.3 -7.41206 
249 1 12.1622 5.96206 7.36006 6.0312 -28885.4 13536 -3597.32 26310.6 4483.36 -11126.9 -7.41168 
250 1 12.8525 4.72132 7.36036 6.03528 -31566.8 14929.9 3244.63 17460.5 8575.05 -17965.4 -7.41219 
251 1 14.2721 4.70222 7.36333 6.03282 -26898.1 11452.7 -3982.6 38758.8 1121.62 -13006.4 -7.41177 
252 1 14.9993 5.92193 7.36601 6.03171 -39554.2 22860.5 5225.22 23067.3 10243 -19991.3 -7.41251 
253 1 16.4189 5.90385 7.36886 6.0294 -33446.1 19056 -6142.33 45935 1082.28 -12957.1 -7.41179 
254 1 17.1096 4.66339 7.36944 6.02775 -34524.3 18168.4 5347.02 34745.4 10371.1 -20606.9 -7.41263 
255 1 18.5291 4.64646 7.37226 6.03177 -29486.9 15210.7 -6062.41 59239.2 -2221.22 -14405.4 -7.41192 
405 1 10.0524 7.223 7.35748 6.03041 -29302.6 13262 -2734.17 14109.5 7833 -9073.05 -7.41167 
406 1 10.7794 8.44267 7.36062 6.03159 -44250.7 27555 3326.35 699.063 10330.8 -16934.6 -7.4122 
407 1 12.1989 8.42255 7.36324 6.02634 -36787.5 21798.3 -4478.32 19094 7940.14 -9474.01 -7.41172 
408 1 12.8893 7.18176 7.36302 6.03213 -42750 26229.3 4520.87 11671.2 10218.3 -18782.3 -7.41236 
409 1 14.3089 7.1626 7.36582 6.02741 -36005.9 21170.4 -5589.19 32436 4500.52 -11303.1 -7.41173 
410 1 15.0352 8.38281 7.36892 6.02813 -51283.6 34720.4 6788.31 16022.3 11413.3 -20825.1 -7.4127 
411 1 16.4547 8.36465 7.3716 6.02382 -43183.3 29446.3 -8056.01 38566.8 4340.37 -11151.4 -7.41174 
412 1 17.1454 7.12407 7.37163 6.02797 -47514.2 31014.9 7672.32 28801.7 11727.2 -21665.5 -7.41286 
413 1 18.5649 7.10704 7.37423 6.02606 -40191.2 26604 -8764.85 52839.8 923.844 -12625.8 -7.4118 
10 1 19.1842 0.946588 7.37297 6.0193 -14232.1 -1475.46 1504.54 48713.9 8415.99 -19242.7 -7.41246 
11 1 20.6038 0.9309 7.37604 6.02155 -13073.7 -1803.42 -1607.63 74201.7 -8085.56 -17281.4 -7.41232 
12 1 23.443 0.896679 7.38193 6.01165 -14114.8 -760.064 1941.65 68864.5 10860.6 -19748.5 -7.41276 
13 1 24.8627 0.883358 7.38463 6.01355 -13055.7 -965.914 -1952.44 95003.3 -10861.5 -17457.5 -7.41255 
14 1 27.702 0.852457 7.38971 6.00452 -13984.7 -332.933 2286.15 89471.3 13155.5 -19378.3 -7.41301 
98 1 19.2202 3.40628 7.37324 6.02315 -28638.4 12314.9 4837.23 46548.4 10548.4 -20709.3 -7.41271 
99 1 20.6398 3.39054 7.37602 6.02597 -24768.8 10398.7 -5321.06 71854.3 -5342.36 -15638.5 -7.41209 
100 1 21.3313 2.15069 7.3774 6.01725 -21657 5916.8 3690.96 57951.3 10724.8 -20392.9 -7.41276 
101 1 22.751 2.13616 7.38013 6.01965 -19006.7 5136.55 -3932.69 83851 -8232.45 -16655.4 -7.4123 
102 1 23.4779 3.35641 7.38141 6.01557 -29124.8 13405 6336.27 66758.1 12802.1 -21259.5 -7.41308 
103 1 24.8974 3.34303 7.38371 6.01813 -25267.6 11713.8 -6701.97 92781.6 -8356.44 -15864.2 -7.41226 
104 1 25.5896 2.10364 7.38535 6.00986 -21888.7 6455.13 4587.36 78533.8 13032.8 -20428.1 -7.41307 
105 1 27.0092 2.09146 7.38762 6.01182 -19293.6 5941.16 -4715.8 104387 -10989.2 -16535.5 -7.41249 
106 1 27.7356 3.3122 7.38819 6.00835 -29047.7 13638.9 7605.59 87427 14952.1 -20841.1 -7.41339 
256 1 19.2558 5.86668 7.3746 6.02495 -42482.4 25960.6 7906.7 41638.3 12102.8 -21962.5 -7.41298 
257 1 20.6753 5.85085 7.37709 6.0284 -36121.8 22518.4 -8776.81 66842.8 -2365.7 -13907.2 -7.4119 
258 1 21.3666 4.61077 7.37784 6.02008 -36119 19830.9 7457.59 54320.6 12479.5 -21798.2 -7.41305 
259 1 22.7861 4.59616 7.38023 6.02471 -30783.6 17568.4 -8077.89 80264.2 -5471.93 -14987.5 -7.41205 
260 1 23.5123 5.81688 7.38202 6.0173 -43626.1 27395.9 10469.9 61827.3 14175.7 -22596.2 -7.41341 
261 1 24.9318 5.80338 7.38395 6.02237 -37147.2 24399.5 -11206.2 87840.7 -5586.38 -14198.8 -7.412 
262 1 25.6237 4.56374 7.3849 6.01262 -36620.9 20420.2 9360.81 74942.4 14631 -21848 -7.41342 
263 1 27.0432 4.55147 7.38675 6.01695 -31242.3 18641.2 -9830.42 100910 -8429.94 -14959.5 -7.41218 
264 1 27.7688 5.77267 7.38787 6.01003 -43629.4 27479.6 12677.7 82539.7 16200 -22165.3 -7.41377 
414 1 19.2907 8.32778 7.37706 6.0243 -55524.6 38991.6 10541 34405.9 13020.8 -23007.4 -7.41323 
415 1 20.7101 8.31182 7.37933 6.02296 -46971.1 34202.1 -11792.9 59376 702.784 -12095.4 -7.41177 
416 1 21.4013 7.07158 7.37945 6.02235 -50069.3 33437.5 10870.8 48274 13620.3 -23009.4 -7.41335 
417 1 22.8208 7.05684 7.38153 6.02509 -42272.6 29857.7 -11876.4 73900.9 -2530.38 -13242.7 -7.41185 
418 1 23.546 8.27808 7.38388 6.01997 -57332.7 40887.4 14166.3 54500.9 14913.2 -23756.1 -7.41372 
419 1 24.9654 8.26441 7.38551 6.02195 -48524.9 36760 -15278.6 80395.2 -2685.55 -12462.1 -7.41179 
420 1 25.6572 7.0246 7.38572 6.01484 -50973.2 34192.1 13789.8 68855.1 15625 -23109.2 -7.41378 
421 1 27.0766 7.01217 7.38719 6.02019 -43024.6 31270.3 -14615.9 94630.1 -5661.71 -13314.6 -7.41191 
422 1 27.8013 8.23389 7.38896 6.01265 -57513.7 40930.9 17327.3 75178.3 16820.5 -23344.4 -7.41414 
15 1 29.1216 0.841461 7.39197 6.00587 -12912.7 -229.953 -2212.06 114920 -13348.9 -17001.1 -7.41275 
16 1 31.9612 0.813787 7.39617 5.99819 -14082.3 74.8471 2513.78 109425 15161.5 -18320 -7.4132 
17 1 33.3808 0.804982 7.39799 5.99882 -13116.2 287.369 -2382.11 133153 -15460.3 -16060.9 -7.41291 
18 1 36.2205 0.780328 7.40138 5.99232 -14188.8 451.521 2624.39 127861 16822.9 -16762.6 -7.41334 
107 1 29.1552 3.30113 7.39001 6.01045 -25137.4 12506.7 -7831.73 112826 -11034.9 -15522.5 -7.4124 
108 1 29.8481 2.06222 7.39196 6.00302 -21662.2 6800.75 5290.31 98973.6 15126.9 -19644.4 -7.41331 
109 1 31.2677 2.05231 7.39378 6.00438 -19243.8 6359.64 -5312.42 123610 -13382.9 -15888.2 -7.41264 
110 1 31.9936 3.27351 7.39364 6.00179 -28829.1 13416.7 8564.44 107454 16839.5 -19667.3 -7.41362 
111 1 33.4131 3.26463 7.39504 6.00331 -25005.8 12675.5 -8662.38 131201 -13308.2 -14735.2 -7.41251 
112 1 34.1067 2.0262 7.3973 5.99675 -21524.8 6823.66 5769.17 118257 16904.6 -18238.7 -7.41349 
113 1 35.5263 2.01839 7.39873 5.99767 -19207.9 6587.45 -5715.31 140903 -15369.8 -14837.7 -7.41276 
114 1 36.2517 3.24003 7.39796 5.99548 -28228.5 12997.3 9198.87 125948 18397.8 -17954 -7.4138 
265 1 29.1883 5.76147 7.38927 6.01526 -37040.7 25220.9 -13225.7 107979 -8438.08 -13977.8 -7.41208 
266 1 29.8809 4.52232 7.39049 6.00567 -36278.2 20430.5 10903.7 95449.9 16607.5 -20996.1 -7.41372 
267 1 31.3005 4.5123 7.39187 6.00947 -31088 18832.4 -11203.9 120228 -10993.2 -14450.7 -7.41228 
268 1 32.0256 5.73396 7.39232 6.00342 -43118.6 26694.2 14387.4 102619 17996.5 -20907.3 -7.41406 
269 1 33.445 5.72493 7.3933 6.00859 -36542 24995 -14738.7 126480 -10866 -13344.4 -7.41215 
270 1 34.1384 4.48627 7.39485 5.99946 -35525.3 19774.7 12018.3 114834 18290.7 -19466 -7.41394 
271 1 35.5579 4.47835 7.39588 6.00259 -30443 18537.9 -12169.8 137627 -13131 -13563.2 -7.41236 
272 1 36.2826 5.70041 7.39574 5.99758 -41870.3 25440.3 15569 121221 19484 -19065.8 -7.41426 
423 1 29.2208 8.22249 7.38999 6.0183 -48476.4 37625 -18211.9 100579 -5686.93 -12365.3 -7.41181 
424 1 29.9132 6.98315 7.39038 6.00784 -50488.1 33841.5 16193.2 89365.4 17504.3 -22221.2 -7.41412 
425 1 31.3327 6.97296 7.39135 6.01325 -42694.2 31265.7 -16792.7 114054 -8378.7 -12946.4 -7.41196 
426 1 32.0569 8.19512 7.39251 6.00599 -56621.4 39572.5 19816.9 95266.7 18546.8 -22032.9 -7.41448 
427 1 33.4763 8.18588 7.3931 6.01162 -47502.5 37091.3 -20440.5 119164 -8255.14 -11887.6 -7.41183 
428 1 34.1695 6.94704 7.3938 6.00154 -49095.5 32525.3 17972.3 108784 19121.9 -20596.8 -7.41439 
429 1 35.589 6.93893 7.39443 6.00689 -41431.5 30430 -18350.1 131592 -10660.2 -12223.7 -7.412 
430 1 36.3128 8.16147 7.39505 6.00009 -54794.8 37552.6 21579 113962 19993.3 -20092.5 -7.41472 
19 1 37.6401 0.773525 7.40281 5.99259 -13276.5 833.806 -2470.28 149302 -17171.3 -14770.4 -7.41303 
20 1 40.4799 0.751624 7.40548 5.98704 -14430.3 874.804 2638.07 144348 18143.8 -14906.2 -7.41343 
21 1 41.8995 0.746601 7.40658 5.98726 -13571.9 1405.05 -2493.36 163218 -18503 -13261.9 -7.41312 
22 1 44.7395 0.727144 7.40864 5.98262 -14297.7 1568.23 2583.98 158615 19162.8 -12930.7 -7.41349 
23 1 46.159 0.723666 7.40947 5.9828 -13593 1920.61 -2468.16 174833 -19500.9 -11656.1 -7.41318 
115 1 37.6712 3.23315 7.39904 5.99688 -24518.3 12491.7 -9203.22 147460 -15161.6 -13612.8 -7.4126 
116 1 38.3655 1.99517 7.40156 5.99093 -21219.6 6779.71 6039.34 135791 18340.2 -16420.8 -7.41362 
117 1 39.7851 1.98926 7.40266 5.99177 -19017.5 6675.34 -5947.07 156016 -16952.4 -13506.3 -7.41286 
118 1 40.5101 3.21129 7.40143 5.98999 -27413.6 12454 9549.38 142497 19628.4 -15925 -7.41391 
119 1 41.9296 3.20619 7.40227 5.9913 -23826 12136.8 -9502.06 161451 -16619.2 -12271.7 -7.41267 
120 1 42.6245 1.96864 7.40493 5.98601 -20714.7 6746.14 6141.93 151202 19458.2 -14395.4 -7.41371 
121 1 44.0441 1.96439 7.40578 5.98674 -18527.8 6895.89 -6043.92 168771 -18167.3 -12016.5 -7.41292 
122 1 44.7686 3.18678 7.40426 5.98538 -26300.7 11969.2 9681.86 156814 20567.3 -13778.6 -7.41398 
123 1 46.1882 3.18322 7.40491 5.98655 -22906.4 11590.5 -9617.1 173093 -17725.7 -10822.4 -7.41272 
273 1 37.702 5.69338 7.39645 6.00218 -35456.7 24128.8 -15752.6 142887 -12862.3 -12391.8 -7.41221 
274 1 38.3961 4.45519 7.39832 5.99406 -34440 18782.5 12724.5 132471 19645.8 -17493.9 -7.41409 
275 1 39.8156 4.44916 7.3991 5.99646 -29484.5 17892.7 -12767.9 152830 -14850.7 -12402.7 -7.41243 
276 1 40.5398 5.67159 7.39852 5.99257 -40030.1 23955.5 16277.1 137840 20656.9 -16888.4 -7.41439 
277 1 41.9593 5.66634 7.39906 5.99632 -33776.2 22915 -16343.7 156954 -14452.6 -11222.7 -7.41225 
278 1 42.654 4.42859 7.40117 5.98938 -32898.4 17692.1 13092.1 147938 20693.8 -15305.3 -7.4142 
279 1 44.0735 4.42422 7.40179 5.99115 -28062 17041.4 -13073.5 165679 -16188.5 -11078.1 -7.41248 
280 1 44.7974 5.64699 7.40091 5.98841 -37756.1 22245.6 16615.7 152229 21546.8 -14590.8 -7.41448 
281 1 46.2169 5.64327 7.40137 5.99122 -31739.2 21347.1 -16612.8 168718 -15678.5 -9936.39 -7.4123 
431 1 37.7322 8.15422 7.39539 6.00557 -45840.6 35531.5 -21961.9 135700 -10387.1 -11108.9 -7.41185 
432 1 38.4261 6.91586 7.39644 5.99608 -47194.5 30622.2 19142.7 126539 20430.3 -18497.4 -7.41457 
433 1 39.8456 6.90964 7.39689 6.00122 -39617.4 29072.8 -19341.2 146947 -12516.8 -11238.1 -7.41204 
434 1 40.569 8.13253 7.39709 5.99499 -51922 35130.5 22679.7 130689 21143.1 -17793.3 -7.41488 
435 1 41.9885 8.12705 7.39733 6.00022 -43212.7 33383 -22877.7 149907 -12108.5 -10118.1 -7.41188 
436 1 42.683 6.88915 7.39869 5.99147 -44651.7 28463.1 19802 142119 21442.7 -16169.4 -7.41469 
437 1 44.1025 6.88459 7.39906 5.99632 -37209.8 27183.1 -19877.1 159914 -13982.3 -10085.7 -7.41208 
438 1 44.8257 8.10777 7.39896 5.99072 -48570.4 32315.8 23255.3 145192 22019.1 -15367.1 -7.41497 
439 1 46.2451 8.10383 7.39919 5.99566 -40105.9 30848.7 -23328 161860 -13457.2 -9003.61 -7.41191 
24 1 48.9991 0.706339 7.41105 5.97912 -14205.3 2153.31 2487.03 170602 19933.8 -10972 -7.41353 
25 1 50.4187 0.704174 7.41167 5.97916 -13475.7 2577.46 -2411.46 184269 -20224.9 -10051.1 -7.41322 
26 1 53.2589 0.688663 7.41287 5.97637 -14529.6 2566.21 2368.07 180462 20510.4 -9115.71 -7.41354 
27 1 54.6785 0.68759 7.41333 5.97631 -13841.3 2981.17 -2337.52 191692 -20732.6 -8509.68 -7.41325 
124 1 46.8837 1.94606 7.40761 5.98197 -20200 6671.22 6125.09 164350 20305.5 -12329.3 -7.41376 
125 1 48.3032 1.94323 7.40826 5.98256 -18059.1 6945.9 -6044.36 179302 -19068.8 -10474.5 -7.41297 
126 1 49.0274 3.16593 7.4066 5.98157 -24959.8 11354.1 9662.9 168849 21269 -11661.7 -7.41402 
127 1 50.4469 3.16369 7.40713 5.98259 -21660 11171.4 -9606.81 182549 -18541 -9357.09 -7.41276 
128 1 51.143 1.92687 7.40975 5.97864 -19586.6 6781.67 6033.29 175256 20937.6 -10338 -7.41378 
129 1 52.5625 1.92525 7.41025 5.97916 -17676.4 6732.07 -5983.41 187714 -19716.7 -8959.34 -7.413 
130 1 53.2864 3.14822 7.4086 5.97858 -23998.1 10534.6 9549.64 178696 21785.3 -9665.44 -7.41404 
131 1 54.7059 3.14707 7.40904 5.9794 -20720.9 10473.6 -9518.3 190036 -19123.6 -7937.58 -7.41279 
132 1 55.4024 1.91055 7.41148 5.97614 -18936.1 6569.08 5899.25 184037 21406.7 -8485.24 -7.41379 
282 1 46.9122 4.40594 7.40361 5.98498 -31256.9 16428.3 13210.1 161129 21480.4 -13082.3 -7.41425 
283 1 48.3317 4.403 7.40412 5.98662 -26505.2 16029.8 -13167 176283 -17197.2 -9687.97 -7.41252 
284 1 49.0553 5.62604 7.4031 5.98468 -35296.7 20491.2 16690.1 164403 22206.1 -12331.4 -7.41452 
285 1 50.4748 5.62365 7.40351 5.98693 -29421.4 19737.8 -16659.4 178294 -16598.9 -8618.77 -7.41233 
286 1 51.1707 4.38669 7.40576 5.98136 -29485.4 15288.7 13162 172106 22059.1 -10948.4 -7.41428 
287 1 52.5902 4.38496 7.4062 5.9829 -24988.2 14722.5 -13121.8 184756 -17935.9 -8307.56 -7.41256 
288 1 53.3136 5.60823 7.40517 5.98129 -32987.9 18483.7 16596.6 174318 22685.5 -10207.4 -7.41454 
289 1 54.733 5.60694 7.40556 5.98335 -27209.4 17944.6 -16566.2 185855 -17270.6 -7328.84 -7.41236 
290 1 55.4294 4.3703 7.40772 5.97843 -27512.9 13952 13015.3 180989 22482.2 -8970.07 -7.41429 
440 1 46.9403 6.86637 7.40078 5.98766 -41904.9 26062 20078.1 155445 22200.8 -13808.6 -7.41475 
441 1 48.3598 6.86325 7.40112 5.99154 -34667 25097.9 -20082.6 170638 -15107 -8855.95 -7.41211 
442 1 49.0827 8.08667 7.40087 5.98724 -45050.8 29335.9 23449.9 157472 22669.2 -12983.4 -7.41502 
443 1 50.5022 8.08406 7.40112 5.99182 -36722.3 28081.6 -23454.4 171550 -14488.7 -7842.28 -7.41194 
444 1 51.198 6.84699 7.40284 5.9846 -38831.9 23657.6 20093.1 166516 22755.1 -11546.5 -7.41478 
445 1 52.6175 6.84508 7.40318 5.98744 -31858.5 22655.6 -20067.9 179224 -15947 -7618.55 -7.41215 
446 1 53.3402 8.06869 7.40288 5.98446 -41457.1 26121.4 23398.6 167559 23141.1 -10744.5 -7.41504 
447 1 54.7597 8.06719 7.40317 5.9881 -33300.1 25199.7 -23375.1 179291 -15257.9 -6690.25 -7.41197 
448 1 55.456 6.83047 7.40491 5.98142 -35665.9 21171.2 19949.4 175536 23156.6 -9453.54 -7.41479 
28 1 57.5187 0.673593 7.41425 5.97425 -14291.7 3232.83 2243.63 188328 20941.9 -7405.59 -7.41355 
29 1 58.9383 0.673414 7.41459 5.97408 -13697.9 3501.59 -2255.23 197408 -21075.5 -7066.78 -7.41327 
30 1 61.7786 0.660658 7.4153 5.97276 -14175.9 3697.48 2121.22 194519 21265.9 -5853.36 -7.41355 
31 1 63.1982 0.661193 7.41554 5.97241 -13508 4096.08 -2171.16 201732 -21295.6 -5732.96 -7.41328 
133 1 56.8219 1.90992 7.41188 5.97645 -16958.1 6791.29 -5886.5 194241 -20167.9 -7520.71 -7.41303 
134 1 57.5456 3.13311 7.41034 5.97614 -22617.5 9939.05 9389.42 186616 22165.1 -7834.14 -7.41404 
135 1 58.9651 3.13287 7.41071 5.97683 -19494.6 9770.87 -9388.62 195796 -19526.5 -6599.51 -7.41281 
136 1 59.662 1.89659 7.4129 5.97422 -18288.3 6462.61 5749.97 191068 21754.1 -6796.85 -7.41379 
137 1 61.0815 1.89677 7.41322 5.97437 -16341 6713.9 -5774.29 199241 -20469 -6179.78 -7.41304 
138 1 61.8049 3.12015 7.41189 5.97426 -21104.9 9280.42 9211.24 192816 22445.4 -6178.71 -7.41403 
139 1 63.2244 3.12062 7.41221 5.97482 -17995.9 9176.73 -9243.66 200072 -19793.2 -5356.09 -7.41283 
140 1 63.9216 1.88455 7.4141 5.97276 -17361.5 6491.84 5601.86 196543 22014.9 -5273.78 -7.41378 
141 1 65.3412 1.88536 7.41436 5.97275 -15571 6477.72 -5660.14 202962 -20659.2 -4940.58 -7.41306 
291 1 56.8489 4.36956 7.40812 5.97982 -23083.9 13568.4 -12994.8 191374 -18462.3 -6985.46 -7.41258 
292 1 57.5721 5.59302 7.40718 5.97852 -30444.4 16663.2 16411.3 182329 23032.5 -8263.64 -7.41454 
293 1 58.9915 5.59264 7.40756 5.98044 -24855.7 16082.9 -16396.3 191696 -17747.6 -6102.66 -7.41239 
294 1 59.6884 4.35628 7.40955 5.97614 -25638.9 12625.6 12821.6 188060 22789.4 -7173.27 -7.41428 
295 1 61.1079 4.35635 7.40991 5.97738 -21246.2 12346.7 -12828.3 196383 -18823.9 -5745.23 -7.4126 
296 1 61.8308 5.57996 7.40914 5.97633 -27630.6 14805.9 16185.5 188586 23284 -6510.93 -7.41453 
297 1 63.2503 5.5803 7.40951 5.97806 -22122.2 14307.3 -16195.9 196037 -18074.7 -4955.55 -7.41241 
298 1 63.9475 4.34417 7.41127 5.97432 -23532.1 11416.2 12616.9 193548 23015.7 -5557.09 -7.41427 
299 1 65.367 4.34489 7.41161 5.97542 -19311.7 11000.5 -12653 200107 -19061.5 -4593.06 -7.41262 
449 1 56.8755 6.82956 7.40526 5.98401 -28814.9 20379.7 -19923.2 185991 -16560.3 -6420.82 -7.41218 
450 1 57.5981 8.05332 7.40501 5.98179 -37675.4 23130.9 23205.9 175732 23480.3 -8698.16 -7.41504 
451 1 59.0175 8.05274 7.40534 5.98481 -29717.7 22201.8 -23179.9 185258 -15818.2 -5583.27 -7.412 
452 1 59.7143 6.81632 7.40701 5.97883 -32463.1 18653.1 19724.1 182688 23443.8 -7556.22 -7.41478 
453 1 61.1338 6.81623 7.40738 5.98119 -25679.2 18029.6 -19712.4 191096 -16994.2 -5287.74 -7.4122 
454 1 61.8563 8.0401 7.40724 5.97926 -33677.9 20137.7 22947.2 182116 23723.1 -6854.61 -7.41503 
455 1 63.2758 8.04024 7.40761 5.98205 -25879.3 19274.2 -22936 189709 -16214.8 -4538.48 -7.41202 
456 1 63.973 6.80409 7.40914 5.97669 -29180.3 16252.6 19472.7 188272 23651.1 -5852.1 -7.41477 
457 1 65.3925 6.80464 7.40952 5.97888 -22597.3 15540.9 -19483.6 194905 -17290.6 -4227.9 -7.41222 
32 1 66.0386 0.649429 7.41609 5.97164 -14275.9 4080.09 2007.67 199396 21511.3 -4451.57 -7.41355 
33 1 67.4582 0.650522 7.41627 5.97116 -13674.9 4342.55 -2090.41 204938 -21425.4 -4503.28 -7.41329 
34 1 70.2986 0.639526 7.4167 5.9706 -14041.2 4442.29 1904.82 203082 21699.4 -3181.48 -7.41354 
35 1 71.7181 0.641038 7.41684 5.97026 -13473.7 4555.59 -2013.55 207092 -21488.8 -3364.39 -7.41329 
36 1 74.5586 0.630604 7.41717 5.96987 -13999.4 4523.82 1812.58 205782 21844.3 -2016.07 -7.41354 
142 1 66.0644 3.10889 7.4133 5.9728 -19948.8 8515.63 9037.44 197659 22653.7 -4688.7 -7.41402 
143 1 67.4839 3.10992 7.41358 5.97324 -16930.3 8320.1 -9100.94 203275 -19957.7 -4205.06 -7.41284 
144 1 68.1814 1.87403 7.41513 5.97172 -16725.2 6185.31 5463.04 200812 22211.6 -3899.32 -7.41378 
145 1 69.601 1.87532 7.41534 5.97153 -14869.7 6282.22 -5551.4 205618 -20766.1 -3794.99 -7.41306 
146 1 70.324 3.09895 7.41458 5.9717 -18541.6 7779.11 8879.96 201339 22811.3 -3342.72 -7.41401 
147 1 71.7436 3.10041 7.41483 5.97204 -15615.3 7454.29 -8970.42 205439 -20045.8 -3135.74 -7.41285 
148 1 72.4413 1.86464 7.41602 5.97068 -16079.9 5864.56 5340.46 203971 22362.2 -2649.34 -7.41377 
149 1 73.8608 1.8663 7.41619 5.97065 -14302 5798.94 -5452.71 207338 -20811.8 -2726.35 -7.41307 
150 1 74.5838 3.08999 7.41576 5.97091 -17295.4 6780.76 8743.75 204017 22930.6 -2110.74 -7.41401 
300 1 66.0899 5.56861 7.41107 5.97458 -25162 12860.1 15957.6 193490 23466.1 -4936.76 -7.41452 
301 1 67.5094 5.56951 7.41142 5.97614 -19737.3 12415 -15995.6 199284 -18286.3 -3888.32 -7.41242 
302 1 68.2069 4.33358 7.41291 5.97292 -21622 10023 12421.8 197815 23182.5 -4102.73 -7.41426 
303 1 69.6264 4.33479 7.41322 5.97387 -17392.6 9747.48 -12487.4 202778 -19204.2 -3523.51 -7.41263 
304 1 70.3492 5.55858 7.41294 5.97321 -22620.9 11030.3 15749.9 197231 23600.5 -3517.58 -7.4145 
305 1 71.7687 5.55991 7.41328 5.97454 -17329.2 10452.2 -15814.6 201470 -18410.1 -2892.6 -7.41244 
306 1 72.4665 4.32414 7.41446 5.97186 -19847 8613.66 12251.3 200998 23307.5 -2783.04 -7.41425 
307 1 73.886 4.32571 7.41475 5.97264 -15701.3 8254.97 -12341.7 204520 -19275.2 -2522.73 -7.41264 
308 1 74.6087 5.54954 7.41476 5.97217 -20137.8 9047.04 15573.4 199920 23698.8 -2220.85 -7.41449 
458 1 66.1149 8.02859 7.40955 5.97721 -29926.8 17098 22676.2 187085 23895.1 -5200.41 -7.41501 
459 1 67.5344 8.02931 7.40994 5.97962 -22217.5 16363.7 -22686.9 193005 -16482.6 -3559.68 -7.41204 
460 1 68.232 6.79338 7.41128 5.97498 -26005.8 13841.8 19228.8 192589 23799.7 -4321.01 -7.41475 
461 1 69.6515 6.79443 7.41165 5.97685 -19518.2 13137.3 -19266.6 197615 -17479.3 -3238.79 -7.41224 
462 1 70.3739 8.01842 7.41189 5.97551 -26312.6 14117.7 22426.3 190885 24017.8 -3710.08 -7.41499 
463 1 71.7934 8.01957 7.41229 5.97763 -18737.4 13376.2 -22461.4 195279 -16650.4 -2641.18 -7.41206 
464 1 72.4913 6.78382 7.41339 5.97362 -23075.9 11344.7 19015.5 195816 23907 -2933.38 -7.41474 
465 1 73.9108 6.78523 7.41376 5.9752 -16638.9 10700.4 -19077.7 199407 -17584.7 -2309.37 -7.41225 
466 1 74.6332 8.00923 7.41424 5.97417 -22619 11152.5 22215.4 193662 24102.9 -2349.74 -7.41498 
37 1 75.9782 0.632407 7.41727 5.9697 -13353.8 4727.86 -1940.9 208432 -21502.9 -2295.51 -7.41329 
38 1 78.8187 0.622345 7.41752 5.96943 -13808.1 4700.8 1732.01 207652 21956 -926.486 -7.41353 
39 1 80.2382 0.624324 7.41759 5.96938 -13280.3 4653.94 -1872.79 209008 -21479.1 -1272.91 -7.4133 
40 1 83.0787 0.614453 7.41778 5.96922 -13830.1 4496.27 1660.35 208701 22039.2 118.225 -7.41353 
151 1 76.0033 3.09175 7.41598 5.97117 -14274 6630.58 -8856.45 206764 -20075.1 -2129.89 -7.41286 
152 1 76.7012 1.85608 7.4168 5.96996 -15117.2 5543.7 5235.73 206209 22478 -1494.12 -7.41377 
153 1 78.1208 1.85797 7.41694 5.97007 -13337.8 5433.77 -5365.47 208289 -20810.1 -1713.75 -7.41307 
154 1 78.8437 3.0817 7.41685 5.97018 -15916.2 5951.95 8635.11 205855 23022.2 -961.24 -7.414 
155 1 80.2633 3.08363 7.41705 5.97044 -13056.1 5496.68 -8763.43 207324 -20058.3 -1166.19 -7.41286 
156 1 80.9612 1.84803 7.41748 5.9695 -14674 4958.32 5149.51 207675 22566.2 -401.776 -7.41376 
157 1 82.3808 1.85004 7.4176 5.96967 -12936.8 4716.3 -5290.22 208445 -20770.4 -732.903 -7.41308 
158 1 83.1037 3.07377 7.41786 5.96956 -14832.4 4705.18 8551.27 206890 23089.6 139.225 -7.414 
309 1 76.0283 5.55117 7.41509 5.9732 -14788.2 8600.17 -15661.9 202788 -18464.2 -1952.95 -7.41245 
310 1 76.7262 4.31552 7.41593 5.9711 -17647.4 7277.56 12111.2 203243 23401.7 -1565.72 -7.41424 
311 1 78.1457 4.31732 7.4162 5.97162 -13520.9 6881.89 -12222.1 205441 -19289.1 -1572.23 -7.41265 
312 1 78.8685 5.54115 7.41652 5.97136 -17581 7194.89 15438.6 201753 23771.6 -1012.64 -7.41448 
313 1 80.288 5.54297 7.41683 5.97218 -12415.2 6434.74 -15545.3 203333 -18462.5 -1050.63 -7.41246 
314 1 80.9861 4.3074 7.41733 5.97039 -16096.5 5662.16 12005.6 204696 23471.4 -416.382 -7.41424 
315 1 82.4057 4.30933 7.41757 5.97087 -12028.3 5117.05 -12130.3 205596 -19256.1 -650.247 -7.41266 
316 1 83.1285 5.53313 7.41821 5.97072 -15354.5 4926.56 15344.1 202773 23821.8 142.572 -7.41448 
467 1 76.0528 8.01069 7.41463 5.97598 -15023.9 10555.1 -22274.6 196632 -16736.9 -1770.7 -7.41207 
468 1 76.7508 6.77508 7.41547 5.97257 -19720.8 9000.8 18843.6 198067 23984.1 -1655.01 -7.41473 
469 1 78.1704 6.77674 7.41583 5.97388 -13312.5 8323.46 -18928.3 200337 -17622.4 -1423.66 -7.41226 
470 1 78.8929 8.0007 7.41655 5.97308 -18921.5 8321.31 22058.1 195509 24161.2 -1083.15 -7.41497 
471 1 80.3124 8.00235 7.41693 5.97467 -11524.8 7407.36 -22137 197185 -16757.3 -932.03 -7.41208 
472 1 81.0107 6.76685 7.41749 5.97176 -17067.2 6372.23 18720.9 199506 24036.6 -449.481 -7.41472 
473 1 82.4302 6.76864 7.41783 5.97285 -10718.3 5577.66 -18821.6 200488 -17603.3 -562.688 -7.41227 
474 1 83.1528 7.99254 7.41881 5.97231 -15609.5 5116.74 21954.8 196521 24195.5 126.806 -7.41496 
41 1 84.4983 0.616494 7.41782 5.96932 -13244.4 4435.62 -1806.84 208807 -21423.4 -269.678 -7.4133 
42 1 87.3388 0.606634 7.41795 5.96909 -13334 4283.69 1597.45 208988 22096.4 1148.75 -7.41353 
43 1 88.7584 0.608631 7.41796 5.96933 -12705.5 4156.57 -1741.54 207907 -21338.5 742.302 -7.4133 
44 1 91.5989 0.598608 7.41802 5.96922 -12772.5 3879.05 1541.15 208527 22125.5 2194.52 -7.41352 
45 1 93.0185 0.600449 7.418 5.96961 -12186.8 3585.47 -1675.49 206134 -21222.6 1792.39 -7.41331 
159 1 84.5233 3.07577 7.41803 5.96996 -11868.2 4332.06 -8688.94 207084 -20001.8 -220.133 -7.41287 
160 1 85.2213 1.8402 7.41807 5.96912 -13777 4266.49 5080.6 208294 22630.3 659.421 -7.41376 
161 1 86.6408 1.84222 7.41816 5.96946 -11963.1 4040.42 -5225.18 207876 -20697.1 242.782 -7.41308 
162 1 87.3638 3.06591 7.41878 5.96916 -13123.9 3573.52 8494.72 207135 23135.9 1223.9 -7.41399 
163 1 88.7834 3.06786 7.41892 5.96973 -10161.9 3050.73 -8633.88 206114 -19908.4 733.937 -7.41287 
164 1 89.4814 1.8323 7.41857 5.96898 -12652.3 3512.8 5029.08 208232 22670.3 1721.4 -7.41376 
165 1 90.901 1.83422 7.41863 5.96946 -10864.5 3127.76 -5169.02 206522 -20590.2 1240.71 -7.41308 
166 1 91.6241 3.05784 7.4196 5.96904 -11548.8 2178.03 8461.29 206638 23158.7 2324.49 -7.41399 
167 1 93.0437 3.05964 7.41971 5.96975 -8612.81 1473.72 -8594.06 204307 -19776.7 1722.47 -7.41287 
317 1 84.548 5.53502 7.41849 5.97142 -10071.9 4323.32 -15463.4 203069 -18412.1 -163.865 -7.41246 
318 1 85.2462 4.29951 7.41865 5.96975 -13974.4 4012.01 11933.8 205290 23520.7 698.768 -7.41423 
319 1 86.6658 4.30145 7.41887 5.97039 -9824.97 3490.45 -12066.4 204961 -19181.4 267.146 -7.41266 
320 1 87.3886 5.52518 7.41982 5.97008 -12466.6 2845.65 15293.7 202962 23853 1280.21 -7.41448 
321 1 88.8082 5.52702 7.42007 5.97094 -7181.06 2095.94 -15418.1 202030 -18315.9 730.356 -7.41246 
322 1 89.5064 4.29153 7.41988 5.96936 -11735.5 2289.62 11897.2 205143 23548.8 1814.25 -7.41423 
323 1 90.926 4.29338 7.42006 5.97014 -7618.65 1569.17 -12028.4 203554 -19064.7 1204.79 -7.41266 
324 1 91.6491 5.51701 7.42133 5.9697 -9832.3 449.337 15282.6 202410 23862.4 2434.26 -7.41448 
325 1 93.0687 5.5187 7.42154 5.9707 -4551.95 -495.085 -15403.8 200148 -18173.1 1655.68 -7.41246 
475 1 84.5724 7.99426 7.41918 5.97365 -8101.01 4315.35 -22048.6 196880 -16719.2 -106.41 -7.41208 
476 1 85.2708 6.75883 7.41945 5.9712 -13806 3768.29 18647.3 200080 24069.4 719.066 -7.41472 
477 1 86.6904 6.76063 7.41977 5.97212 -7375.12 2996.5 -18759.1 199785 -17533.5 294.509 -7.41227 
478 1 87.413 7.98445 7.42101 5.97179 -11535.3 2065.64 21910.7 196647 24209.3 1317.33 -7.41496 
479 1 88.8327 7.98612 7.42134 5.97293 -4005.58 1127.12 -22012.4 195750 -16625.9 726.517 -7.41208 
480 1 89.5311 6.75074 7.42132 5.97056 -10416.5 1107.72 18625.1 199861 24081 1887.28 -7.41472 