ITEM: TIMESTEP
0
ITEM: NUMBER OF ATOMS
37448
ITEM: BOX BOUNDS pp pp pp
0.0000000000000000e+00 1.6827448400000000e+02
0.0000000000000000e+00 2.9145995699999997e+02
0.0000000000000000e+00 1.8399999600000001e+01
ITEM: ATOMS id type x y z c_csym c_2[1] c_2[2] c_2[3] c_2[4] c_2[5] c_2[6] c_3 
1 1 0 0 7.5 6.04901 4999.67 4908.68 -158684 22.7797 -0.063678 0.29614 -7.40754 
2 1 2.13893 1.21416 7.5 6.04911 4613.59 6100.07 -158447 -1268.44 2104.11 -3695.15 -7.40755 
3 1 3.55889 1.20378 7.5 6.04919 6049.82 4617.7 -158163 2187.69 1905.7 -5901.37 -7.40757 
4 1 6.39882 1.18302 7.5 6.04919 4678.69 5788.42 -157031 -3800.92 2488.53 -10889.1 -7.40763 
5 1 7.81878 1.17265 7.5 6.04919 6009 4384.46 -156414 4760.38 1209.12 -12678.9 -7.40767 
80 1 0.0179742 2.45945 7.5 6.04903 3451.05 6382.73 -158459 -34.0271 4095.18 -22.023 -7.40756 
81 1 1.43794 2.44907 7.5 6.0491 6705.8 3859.44 -158375 927.519 4210.58 -2343.35 -7.40755 
82 1 2.1569 3.6736 7.5 6.0491 3021.95 7535.63 -157994 -1297.29 6087.56 -3829.82 -7.40758 
83 1 3.57687 3.66323 7.5 6.0492 7460.53 3066.16 -157724 2302.85 6189.94 -5672.68 -7.40759 
84 1 4.27786 2.42831 7.5 6.0492 3851.73 6659.88 -157721 -2559.58 4248.39 -7464.89 -7.40759 
85 1 5.69782 2.41794 7.5 6.0492 6743.27 3730.6 -157318 3577.12 3732.41 -9164.32 -7.40762 
86 1 6.41679 3.64247 7.5 6.0492 3077.81 7188.15 -156484 -3754.93 6398.51 -11249.2 -7.40767 
87 1 7.83675 3.63209 7.5 6.0492 7428.54 2885.12 -156118 4933.7 5411.21 -12153.5 -7.40769 
88 1 8.53775 2.39718 7.5 6.0492 3912.06 6200.64 -155550 -5009.83 4790.96 -14559.4 -7.40772 
238 1 0.0359484 4.91889 7.5 6.04903 1848.83 7887.27 -157811 -66.6441 7970.62 -41.8591 -7.40759 
239 1 1.45591 4.90852 7.5 6.0491 8074.23 2360.95 -157656 979.936 8545.57 -2262.49 -7.40759 
240 1 2.17488 6.13305 7.5 6.0491 1400.13 9029.87 -157138 -1285 9817.47 -3941.89 -7.40763 
241 1 3.59484 6.12267 7.5 6.0492 8769.99 1591.97 -156786 2378.38 10525.3 -5415.6 -7.40765 
242 1 4.29583 4.88776 7.5 6.0492 2248.16 8142.37 -157027 -2508.3 8084.32 -7691.7 -7.40763 
243 1 5.7158 4.87738 7.5 6.0492 8117.26 2265.61 -156693 3684.78 8018.56 -8761.98 -7.40765 
244 1 6.43477 6.10192 7.5 6.0492 1449.33 8648.61 -155542 -3656.7 10055.9 -11548 -7.40772 
245 1 7.85473 6.09154 7.5 6.0492 8747.46 1465.2 -155334 5058.02 9669.19 -11565.3 -7.40774 
246 1 8.55572 4.85663 7.5 6.0492 2299.29 7631.79 -154722 -4879.24 8521.77 -14990 -7.40777 
396 1 0.0539226 7.37834 7.5 6.04903 216.54 9377.11 -156784 -98.8125 11562.7 -58.9107 -7.40766 
397 1 1.47388 7.36796 7.5 6.0491 9318.53 884.99 -156427 1027.78 12896.1 -2171.72 -7.40766 
398 1 2.19285 8.5925 7.5 6.0491 -237.553 10504.6 -155929 -1268.15 13236.6 -4032 -7.4077 
399 1 3.61281 8.58212 7.5 6.0492 9951.03 141.002 -155333 2444.38 14843.8 -5131.6 -7.40774 
400 1 4.31381 7.34721 7.5 6.0492 612.22 9615.92 -155957 -2448.4 11637.8 -7876.47 -7.4077 
401 1 5.73377 7.33683 7.5 6.0492 9368.63 824.993 -155565 3778.24 12323.6 -8314.77 -7.40772 
402 1 6.45274 8.56136 7.5 6.0492 -195.199 10092.3 -154252 -3545.92 13404.8 -11786.9 -7.4078 
403 1 7.8727 8.55099 7.5 6.0492 9938.2 70.1857 -154044 5163.4 13916.5 -10918.3 -7.40781 
404 1 8.5737 7.31607 7.5 6.0492 653.952 9057.09 -153529 -4732.14 11972.2 -15342.3 -7.40784 
6 1 10.6587 1.15189 7.5 6.04919 4746.85 5243.23 -154271 -6219.27 3290.23 -17573.8 -7.4078 
7 1 12.0787 1.14152 7.5 6.04919 5983.54 3953.04 -153440 7183.39 43.4287 -18849.6 -7.40785 
8 1 14.9186 1.12076 7.5 6.04919 4823.09 4498.55 -150300 -8447.32 4486.91 -23469 -7.40804 
9 1 16.3386 1.11038 7.5 6.04919 5976.78 3352.03 -149378 9383.59 -1552.85 -24174.1 -7.40809 
89 1 9.95771 2.3868 7.5 6.0492 6715.66 3430.19 -155038 6112.9 2740.47 -15533.7 -7.40775 
90 1 10.6767 3.61134 7.5 6.0492 3134.26 6573.2 -153541 -6101.93 7065.14 -18151.6 -7.40784 
91 1 12.0966 3.60096 7.5 6.0492 7417.28 2540.98 -153389 7407.54 4105.1 -18048.3 -7.40785 
92 1 12.7976 2.36605 7.5 6.0492 3976.79 5507.59 -152049 -7308.8 5712.72 -20989.3 -7.40793 
93 1 14.2176 2.35567 7.5 6.0492 6707.22 2961.15 -151644 8457.16 1270.05 -21178.1 -7.40796 
94 1 14.9366 3.58021 7.5 6.0492 3194.53 5729.55 -149303 -8269.43 8076.43 -24251.7 -7.4081 
95 1 16.3565 3.56983 7.5 6.0492 7428.67 2057.25 -149665 9648.67 2321.46 -23126.9 -7.40808 
96 1 17.0575 2.33492 7.5 6.0492 4049.53 4621.91 -147381 -9391.78 6992.63 -26511.9 -7.40821 
97 1 18.4775 2.32454 7.5 6.0492 6720.26 2350.49 -147289 10541.6 -626.949 -25906.1 -7.40822 
247 1 9.97568 4.84625 7.5 6.0492 8101.71 2037.05 -154615 6271.07 6917.13 -14827.6 -7.40778 
248 1 10.6947 6.07079 7.5 6.0492 1493.92 7968.38 -152430 -5924.68 10588.6 -18634.3 -7.40791 
249 1 12.1146 6.06041 7.5 6.0492 8751.08 1212.15 -152866 7574.43 8230.75 -17155.5 -7.40788 
250 1 12.8156 4.8255 7.5 6.0492 2349.94 6856.05 -151004 -7108.49 9281.85 -21616.6 -7.408 
251 1 14.2356 4.81512 7.5 6.0492 8109.99 1673.19 -151523 8657.4 5285.54 -20197.4 -7.40796 
252 1 14.9545 6.03965 7.5 6.0492 1537.84 7030.23 -147944 -8025.09 11415.8 -24912.9 -7.40818 
253 1 16.3745 6.02928 7.5 6.0492 8780.92 849.316 -149500 9850.04 6270.54 -21967.1 -7.40809 
254 1 17.0755 4.79436 7.5 6.0492 2404.55 5860.01 -146040 -9134.23 10356.7 -27324.8 -7.40829 
255 1 18.4955 4.78399 7.5 6.0492 8142.85 1194.56 -147560 10775 3188.34 -24688.7 -7.4082 
405 1 9.99366 7.3057 7.5 6.0492 9365.47 670.941 -153701 6406.27 11120.3 -14045.9 -7.40783 
406 1 10.7126 8.53023 7.5 6.0492 -162.522 9351.27 -150986 -5727.51 13807.4 -19023.8 -7.408 
407 1 12.1326 8.51985 7.5 6.0492 9956.68 -89.7244 -151852 7713.52 12356.6 -16177.1 -7.40794 
408 1 12.8336 7.28494 7.5 6.0492 690.592 8204.25 -149611 -6884.51 12573.5 -22135.4 -7.40808 
409 1 14.2535 7.27456 7.5 6.0492 9390.6 414.902 -150929 8827.24 9338.71 -19116.6 -7.408 
410 1 14.9725 8.4991 7.5 6.0492 -135.154 8324.91 -146273 -7754.53 14455.2 -25454.7 -7.40828 
411 1 16.3925 8.48872 7.5 6.0492 10004.8 -328.819 -148864 10017.2 10234.1 -20702.1 -7.40812 
412 1 17.0935 7.25381 7.5 6.0492 726.732 7103.93 -144373 -8846.63 13446.3 -28007 -7.40839 
413 1 18.5134 7.24343 7.5 6.0492 9443.01 71.4739 -147379 10972.1 7055.14 -23354.9 -7.40821 
10 1 19.1785 1.08963 7.5 6.04919 4910.44 3595.04 -145295 -10423 6045.56 -28380.3 -7.40834 
11 1 20.5984 1.07925 7.5 6.04919 5991.15 2610.75 -144402 11302.5 -3528.23 -28504.2 -7.40839 
12 1 23.4384 1.0585 7.5 6.04919 5011.76 2567.63 -139463 -12094.4 7923.48 -32210.7 -7.40869 
13 1 24.8583 1.04812 7.5 6.04919 6028.72 1752.32 -138706 12892.3 -5821.36 -31786.1 -7.40873 
14 1 27.6982 1.02736 7.5 6.04919 5128.23 1439.94 -133015 -13424 10069.6 -34954 -7.40908 
98 1 19.1965 3.54907 7.5 6.0492 3262.59 4700.8 -143953 -10197.7 9413.9 -29350.1 -7.40842 
99 1 20.6164 3.5387 7.5 6.0492 7463.52 1456.37 -145108 11597.7 125.954 -27248.2 -7.40835 
100 1 21.3174 2.30379 7.5 6.0492 4133.65 3584.36 -141742 -11200.9 8600.38 -30978.6 -7.40855 
101 1 22.7374 2.29341 7.5 6.0492 6756.69 1622.81 -142153 12313.9 -2886.15 -29620.1 -7.40853 
102 1 23.4563 3.51794 7.5 6.0492 3343.17 3529.7 -137707 -11835.2 11050.5 -33344.7 -7.40879 
103 1 24.8763 3.50756 7.5 6.0492 7521.57 754.171 -139901 13207.3 -2404.94 -30362.6 -7.40866 
104 1 25.5773 2.27265 7.5 6.0492 4232.09 2428.34 -135350 -12692.5 10496.6 -34337.2 -7.40894 
105 1 26.9973 2.26228 7.5 6.0492 6816.04 791.2 -136427 13734.5 -5435 -32311 -7.40887 
106 1 27.7162 3.48681 7.5 6.0492 3439 2244.38 -130788 -13143.7 12949.8 -36224.3 -7.40921 
256 1 19.2144 6.00852 7.5 6.0492 1586.28 5883.14 -142275 -9899.97 12533.1 -30180.7 -7.40852 
257 1 20.6344 5.99814 7.5 6.0492 8835.92 392.273 -145388 11824.6 3867.62 -25866.8 -7.40833 
258 1 21.3354 4.76323 7.5 6.0492 2468.02 4690.16 -140034 -10900.2 11731.1 -31961.3 -7.40865 
259 1 22.7553 4.75285 7.5 6.0492 8199.6 617.551 -142892 12570 704.435 -28209.8 -7.40848 
260 1 23.4743 5.97739 7.5 6.0492 1644.79 4573.35 -135643 -11499.6 13928.9 -34330.7 -7.40892 
261 1 24.8943 5.96701 7.5 6.0492 8913.51 -151.339 -140695 13451.1 1112.67 -28809.3 -7.40861 
262 1 25.5953 4.7321 7.5 6.0492 2544.88 3385.5 -133212 -12362.8 13381 -35468.5 -7.40906 
263 1 27.0152 4.72172 7.5 6.0492 8277.93 -51.9025 -137699 14005 -2079.21 -30754.4 -7.40879 
264 1 27.7342 5.94626 7.5 6.0492 1717.94 3136.06 -128279 -12784 15581.1 -37346.1 -7.40936 
414 1 19.2324 8.46797 7.5 6.0492 -107.219 7065.55 -140307 -9570.28 15357.5 -30874.2 -7.40864 
415 1 20.6524 8.45759 7.5 6.0492 10079.3 -639.613 -145216 12012.2 7640.55 -24368.5 -7.40834 
416 1 21.3534 7.22268 7.5 6.0492 768.722 5808.35 -138026 -10564.6 14590.3 -32799.9 -7.40878 
417 1 22.7733 7.2123 7.5 6.0492 9519.38 -352.504 -143205 12786.3 4362.01 -26674.9 -7.40846 
418 1 23.4923 8.43683 7.5 6.0492 -72.2315 5623.76 -133316 -11127.6 16517.1 -35170.6 -7.40906 
419 1 24.9122 8.42646 7.5 6.0492 10175.2 -1022.91 -141063 13653.7 4679.46 -27134.8 -7.40859 
420 1 25.6132 7.19155 7.5 6.0492 821.949 4360.2 -130802 -11994.3 15996.3 -36451.1 -7.40921 
421 1 27.0332 7.18117 7.5 6.0492 9615.38 -857.722 -138568 14234 1359.59 -29072.5 -7.40874 
422 1 27.7522 8.4057 7.5 6.0492 -24.3903 4039.63 -125537 -12384.5 17926 -38320.7 -7.40953 
15 1 29.1182 1.01699 7.5 6.04919 6089.65 787.677 -132487 14122.6 -8364.26 -34046.8 -7.40911 
16 1 31.9581 0.996231 7.5 6.04919 5258.97 218.456 -126158 -14385.9 12426.4 -36673.5 -7.40949 
17 1 33.3781 0.985854 7.5 6.04919 6171.55 -287.412 -125932 14973.4 -11085.5 -35368.6 -7.4095 
18 1 36.218 0.965099 7.5 6.04919 5401.26 -1102.58 -119079 -14967.5 14931.5 -37472.4 -7.40992 
107 1 29.1362 3.47643 7.5 6.0492 7600.71 -46.1304 -134227 14448.3 -5189.21 -32499.3 -7.409 
108 1 29.8372 2.24152 7.5 6.0492 4346.43 1172.76 -128421 -13832.8 12633.5 -36617.4 -7.40935 
109 1 31.2571 2.23114 7.5 6.0492 6896.29 -144.47 -130298 14780.4 -8196.89 -34038 -7.40924 
110 1 31.9761 3.45568 7.5 6.0492 3551.5 859.593 -123411 -14095.1 15066.3 -38048.1 -7.40966 
111 1 33.3961 3.4453 7.5 6.0492 7696.52 -954.68 -128259 15302.8 -8144.02 -33740.3 -7.40936 
112 1 34.0971 2.21039 7.5 6.0492 4475.6 -179.852 -121158 -14602.7 14956.1 -37904.9 -7.40979 
113 1 35.517 2.20001 7.5 6.0492 6993.01 -1197.17 -123938 15438.9 -11094.7 -34898.8 -7.40962 
114 1 36.236 3.42455 7.5 6.0492 3679.06 -627.506 -115777 -14674.4 17346.1 -38915.6 -7.41012 
265 1 29.1542 5.93588 7.5 6.0492 9009.14 -785.677 -135593 14702.1 -1899.13 -30824.3 -7.40892 
266 1 29.8552 4.70097 7.5 6.0492 2638.19 1970.65 -125800 -13486.6 15272.2 -37871 -7.40951 
267 1 31.2751 4.69059 7.5 6.0492 8373.44 -820.775 -132151 15057.5 -5073.5 -32381.7 -7.40913 
268 1 31.9941 5.91512 7.5 6.0492 1808.57 1590.37 -120411 -13724.1 17456.2 -39280 -7.40984 
269 1 33.414 5.90475 7.5 6.0492 9116.53 -1527.22 -130237 15561.5 -5074.31 -31992 -7.40924 
270 1 34.115 4.66983 7.5 6.0492 2748.72 453.976 -118012 -14250.5 17360 -39249.5 -7.40998 
271 1 35.535 4.65946 7.5 6.0492 8479.97 -1707.66 -126406 15718.5 -8191.99 -33187.5 -7.40947 
272 1 36.254 5.88399 7.5 6.0492 1916.97 -59.7553 -112248 -14301.4 19508.7 -40226.1 -7.41033 
423 1 29.1721 8.39533 7.5 6.0492 10285.5 -1490.62 -136555 14914.1 1458.02 -29030.3 -7.40886 
424 1 29.8731 7.16041 7.5 6.0492 891.314 2790.9 -122934 -13099.7 17643.1 -38978.5 -7.40968 
425 1 31.2931 7.15004 7.5 6.0492 9724.05 -1459.6 -133626 15293.8 -1851.49 -30605.1 -7.40904 
426 1 32.0121 8.37457 7.5 6.0492 40.6151 2337.64 -117205 -13311.5 19562 -40369.7 -7.41003 
427 1 33.432 8.36419 7.5 6.0492 10402.2 -2065.32 -131835 15780.5 -1920.68 -30131.5 -7.40915 
428 1 34.133 7.12928 7.5 6.0492 978.838 1112.92 -114648 -13856.7 19496.1 -40455.9 -7.41018 
429 1 35.553 7.1189 7.5 6.0492 9837.79 -2180.65 -128520 15959.2 -5176.22 -31364.7 -7.40935 
430 1 36.2719 8.34344 7.5 6.0492 124.54 526.882 -108539 -13886.2 21388 -41403.8 -7.41055 
19 1 37.638 0.954722 7.5 6.04919 6269.74 -1488.05 -119208 15439.3 -13912.7 -35857.4 -7.40991 
20 1 40.4779 0.933967 7.5 6.04919 5549.56 -2539.6 -111944 -15165.7 17519.8 -37461.2 -7.41035 
21 1 41.8979 0.92359 7.5 6.04919 6377.91 -2832.66 -112463 15521.6 -16774.5 -35612.9 -7.41032 
22 1 44.7378 0.902835 7.5 6.04919 5697.33 -4104.81 -104900 -14987.4 20125.5 -36731.7 -7.41077 
23 1 46.1578 0.892457 7.5 6.04919 6488.61 -4333.13 -105824 15231.9 -19602.2 -34706.9 -7.41072 
115 1 37.656 3.41417 7.5 6.0492 7802.89 -1991.33 -122151 15767.7 -11189.2 -34190.1 -7.40973 
116 1 38.357 2.17926 7.5 6.0492 4616.24 -1639.17 -113745 -14992.3 17403.6 -38309.1 -7.41024 
117 1 39.7769 2.16888 7.5 6.0492 7099.94 -2386.93 -117495 15710.8 -14053.5 -34999 -7.41001 
118 1 40.4959 3.39341 7.5 6.0492 3818.17 -2226.2 -108065 -14876.1 19728.7 -38934.9 -7.41058 
119 1 41.9158 3.38304 7.5 6.0492 7912.27 -3177.92 -116036 15846.1 -14249.6 -33946 -7.4101 
120 1 42.6168 2.14812 7.5 6.0492 4762.76 -3218.85 -106343 -15003.8 19911.7 -37933.1 -7.41069 
121 1 44.0368 2.13775 7.5 6.0492 7209.66 -3731.61 -111102 15602.1 -17001.9 -34425.2 -7.4104 
122 1 44.7558 3.36228 7.5 6.0492 3962.69 -3947.76 -100431 -14705.3 22149.6 -38196.5 -7.41104 
123 1 46.1757 3.3519 7.5 6.0492 8017.04 -4528.33 -110031 15550.2 -17255.4 -33077.2 -7.41046 
273 1 37.6739 5.87361 7.5 6.0492 9227.89 -2400.33 -124769 16028.2 -8325.52 -32413.1 -7.40957 
274 1 38.3749 4.6387 7.5 6.0492 2874.7 -1169.09 -110042 -14641.6 19590.1 -39709.1 -7.41046 
275 1 39.7949 4.62833 7.5 6.0492 8589.89 -2736.36 -120600 15989 -11354 -33274.3 -7.40982 
276 1 40.5139 5.85286 7.5 6.0492 2040.91 -1820.19 -103980 -14508.8 21682.9 -40287.9 -7.41083 
277 1 41.9338 5.84248 7.5 6.0492 9334.9 -3429.79 -119307 16106.3 -11573.8 -32180.6 -7.4099 
278 1 42.6348 4.60757 7.5 6.0492 3011.87 -2907.94 -102066 -14660.2 21901.3 -39350.2 -7.41094 
279 1 44.0548 4.59719 7.5 6.0492 8695.24 -3927.25 -114851 15877.6 -14486 -32725.3 -7.41017 
280 1 44.7737 5.82173 7.5 6.0492 2175.7 -3696.71 -95779.3 -14348.5 23915.7 -39552.9 -7.41133 
281 1 46.1937 5.81135 7.5 6.0492 9429.8 -4630.8 -113956 15808.9 -14748.9 -31359.7 -7.41023 
431 1 37.6919 8.33306 7.5 6.0492 10515.8 -2775.93 -127029 16251.5 -5362.81 -30533.2 -7.40944 
432 1 38.3929 7.09815 7.5 6.0492 1084.75 -671.71 -106148 -14250.4 21507.7 -40982 -7.4107 
433 1 39.8129 7.08777 7.5 6.0492 9947.59 -3049.54 -123374 16232.1 -8528.79 -31448.5 -7.40966 
434 1 40.5318 8.31231 7.5 6.0492 227.084 -1392.84 -99740.4 -14100.5 23353.2 -41519.6 -7.41109 
435 1 41.9518 8.30193 7.5 6.0492 10617.3 -3649.85 -122242 16333.9 -8786.2 -30322.4 -7.40973 
436 1 42.6528 7.06702 7.5 6.0492 1205.74 -2569.26 -97620.4 -14278 23619.7 -40652.3 -7.41121 
437 1 44.0727 7.05664 7.5 6.0492 10045.2 -4087.31 -118291 16122.1 -11833.8 -30934.8 -7.40996 
438 1 44.7917 8.28117 7.5 6.0492 344.593 -3423.64 -90993.2 -13953.3 25396 -40799.9 -7.41162 
439 1 46.2117 8.2708 7.5 6.0492 10699.3 -4702.47 -117564 16038.9 -12120.1 -29559 -7.41001 
24 1 48.9977 0.871702 7.5 6.04919 5836.87 -5800.69 -98076.2 -14445.3 22683.5 -35341 -7.41119 
25 1 50.4176 0.861325 7.5 6.04919 6594.7 -5984.44 -99410.7 14584.1 -22330.1 -33173.5 -7.41111 
26 1 53.2576 0.84057 7.5 6.04919 5961.56 -7605.54 -91597.1 -13559.2 25131.1 -33309.1 -7.41158 
27 1 54.6775 0.830193 7.5 6.04919 6690.1 -7757.23 -93336.7 13599.7 -24896.1 -31012.8 -7.41147 
124 1 46.8767 2.11699 7.5 6.0492 4908.27 -4926.09 -99095.6 -14645.3 22414.6 -36852.5 -7.41112 
125 1 48.2967 2.10661 7.5 6.0492 7314.73 -5236.68 -104874 15127.3 -19872.8 -33229.6 -7.41077 
126 1 49.0157 3.33115 7.5 6.0492 4105.91 -5789.38 -93021.3 -14174.1 24542.5 -36757.7 -7.41149 
127 1 50.4356 3.32077 7.5 6.0492 8110.25 -6038.8 -104240 14893.9 -20142.4 -31615.5 -7.41081 
128 1 51.1366 2.08586 7.5 6.0492 5045.42 -6751.15 -92136.9 -13934.5 24847.5 -35105.8 -7.41155 
129 1 52.5566 2.07548 7.5 6.0492 7408.74 -6886.19 -98919.8 14302.5 -22603.2 -31427.1 -7.41114 
130 1 53.2755 3.30002 7.5 6.0492 4240.34 -7730.05 -85972.8 -13302.3 26842.5 -34639.9 -7.41192 
131 1 54.6955 3.28964 7.5 6.0492 8187.09 -7680.72 -98764.5 13897.4 -22851.1 -29558.7 -7.41114 
132 1 55.3965 2.05473 7.5 6.0492 5167.68 -8659.83 -85596.1 -12892.1 27148.1 -32698.4 -7.41194 
282 1 46.8947 4.57644 7.5 6.0492 3154.17 -4766.44 -94240.1 -14312.8 24227.7 -38246.9 -7.41142 
283 1 48.3147 4.56606 7.5 6.0492 8788.64 -5286.94 -109263 15397.4 -17521.5 -31589.5 -7.41051 
284 1 49.0336 5.7906 7.5 6.0492 2314.94 -5684.84 -87802.3 -13832.2 26140 -38077.3 -7.41181 
285 1 50.4536 5.78022 7.5 6.0492 9506.17 -6000.47 -108807 15148.7 -17788 -29979 -7.41054 
286 1 51.1546 4.54531 7.5 6.0492 3294.51 -6732.24 -86710.8 -13616.7 26502.7 -36438.4 -7.41188 
287 1 52.5745 4.53493 7.5 6.0492 8864.74 -6800.19 -103930 14565.3 -20399.6 -29879.5 -7.41083 
288 1 53.2935 5.75946 7.5 6.0492 2451.86 -7759.11 -80201.4 -12979.3 28289.1 -35883.8 -7.41227 
289 1 54.7135 5.74909 7.5 6.0492 9560.49 -7510.85 -103947 14144.7 -20633.7 -28034.3 -7.41083 
290 1 55.4145 4.51417 7.5 6.0492 3425.76 -8769.38 -79622.3 -12593.1 28662 -33931.9 -7.41231 
440 1 46.9127 7.03588 7.5 6.0492 1337.48 -4578.08 -89235.2 -13945.1 25766.7 -39538.2 -7.41172 
441 1 48.3326 7.02551 7.5 6.0492 10123.3 -5302.87 -113361 15641.4 -15025.1 -29868.6 -7.41026 
442 1 49.0516 8.25004 7.5 6.0492 471.795 -5556.93 -82468.1 -13456.1 27449 -39298.7 -7.41213 
443 1 50.4716 8.23966 7.5 6.0492 10756 -5931.4 -113075 15379.5 -15303 -28267.9 -7.41028 
444 1 51.1726 7.00475 7.5 6.0492 1472.94 -6683.89 -81153.3 -13268.1 27880.7 -37678.4 -7.41221 
445 1 52.5925 6.99437 7.5 6.0492 10178.1 -6679.1 -108668 14806 -18043.9 -28259.5 -7.41055 
446 1 53.3115 8.21891 7.5 6.0492 602.283 -7764.64 -74331.6 -12626.4 29444.1 -37039.4 -7.41263 
447 1 54.7315 8.20853 7.5 6.0492 10785.7 -7308.31 -108847 14372.3 -18279.2 -26442.9 -7.41053 
448 1 55.4324 6.97362 7.5 6.0492 1605.18 -8847.98 -73533.2 -12268.4 29895.7 -35082.4 -7.41268 
28 1 57.5175 0.809438 7.5 6.04919 6065.79 -9473.5 -85585.2 -12352.5 27409.3 -30628.2 -7.41194 
29 1 58.9374 0.799061 7.5 6.04919 6770.93 -9594.26 -87717.6 12301.3 -27242.6 -28205 -7.41181 
30 1 61.7773 0.778306 7.5 6.04919 6146.82 -11329.2 -80165.4 -10854.9 29463.3 -27281.9 -7.41227 
31 1 63.1973 0.767928 7.5 6.04919 6835.59 -11413 -82673 10719 -29316.6 -24731.6 -7.41212 
133 1 56.8165 2.04435 7.5 6.0492 7487.34 -8637.45 -93346.9 13150.3 -25134.6 -29004.4 -7.41147 
134 1 57.5354 3.26888 7.5 6.0492 4359.96 -9720.08 -79422.5 -12114.4 28988.5 -31838.2 -7.41232 
135 1 58.9554 3.25851 7.5 6.0492 8245.4 -9397.78 -93705.2 12581.9 -25325.7 -26885.2 -7.41145 
136 1 59.6564 2.0236 7.5 6.0492 5270.07 -10590.5 -79604 -11546.6 29258.6 -29617 -7.41231 
137 1 61.0763 2.01322 7.5 6.0492 7548.71 -10420.3 -88265.5 11695 -27412.2 -25938.6 -7.41178 
138 1 61.7953 3.23775 7.5 6.0492 4459.94 -11684.5 -73510.2 -10641.8 30925 -28339.8 -7.41268 
139 1 63.2153 3.22737 7.5 6.0492 8285.77 -11108.5 -89167.3 10975.3 -27514.1 -23574.9 -7.41173 
140 1 63.9163 1.99246 7.5 6.0492 5349.94 -12456.7 -74294.1 -9929.38 31126.9 -25850.9 -7.41263 
141 1 65.3362 1.98209 7.5 6.0492 7593.85 -12142.3 -83789.5 9968.49 -29385.9 -22219.3 -7.41205 
291 1 56.8344 4.5038 7.5 6.0492 8920.46 -8425.1 -98946.2 13400.9 -23063.7 -27580.2 -7.41113 
292 1 57.5534 5.72833 7.5 6.0492 2579.38 -9869.49 -73128 -11815.4 30300 -32970.2 -7.4127 
293 1 58.9734 5.71795 7.5 6.0492 9592.78 -9105.79 -99463 12815.7 -23232.1 -25502.9 -7.4111 
294 1 59.6744 4.48304 7.5 6.0492 3542.25 -10814.1 -73120.2 -11271.8 30646.4 -30717.8 -7.4127 
295 1 61.0943 4.47266 7.5 6.0492 8956.14 -10093.1 -94407.5 11927 -25460.7 -24667.3 -7.41141 
296 1 61.8133 5.6972 7.5 6.0492 2691.4 -11939.8 -66736.9 -10372.8 32116.6 -29328.4 -7.41309 
297 1 63.2333 5.68682 7.5 6.0492 9605.83 -10706 -95446.2 11188.6 -25531.5 -22363.4 -7.41135 
298 1 63.9342 4.45191 7.5 6.0492 3639.25 -12779.3 -67352.8 -9685.13 32403.5 -26790.1 -7.41305 
299 1 65.3542 4.44153 7.5 6.0492 8975.37 -11712.8 -90413 10173.7 -27540.3 -21128.6 -7.41165 
449 1 56.8524 6.96324 7.5 6.0492 10208 -8176.26 -104290 13633.1 -20835.6 -26091.1 -7.41081 
450 1 57.5714 8.18778 7.5 6.0492 728.972 -9994.14 -66750.2 -11491.8 31316.9 -34023.2 -7.41309 
451 1 58.9913 8.1774 7.5 6.0492 10790 -8778.68 -104955 13034.3 -20996.4 -24060.5 -7.41077 
452 1 59.6923 6.94249 7.5 6.0492 1727.59 -11005.2 -66535.4 -10976.4 31751.2 -31744.6 -7.4131 
453 1 61.1123 6.93211 7.5 6.0492 10216 -9725.33 -100309 12144.9 -23347.9 -23338.3 -7.41105 
454 1 61.8313 8.15664 7.5 6.0492 845.243 -12166.9 -59893.5 -10083.5 33011 -30247.1 -7.41351 
455 1 63.2512 8.14627 7.5 6.0492 10774.5 -10264.4 -101474 11389.8 -23403 -21099.3 -7.41098 
456 1 63.9522 6.91136 7.5 6.0492 1834.56 -13066.5 -60323 -9425.38 33395.1 -27664.4 -7.41348 
457 1 65.3722 6.90098 7.5 6.0492 10207.5 -11239.1 -96809.4 10367.6 -25530.2 -19988.5 -7.41126 
32 1 66.0372 0.747174 7.5 6.04919 6203.87 -13078.7 -75464.4 -9099.73 31243.9 -23266.8 -7.41256 
33 1 67.4572 0.736796 7.5 6.04919 6885.27 -13110.8 -78324.6 8885.94 -31070.9 -20597.7 -7.41238 
34 1 70.2971 0.716041 7.5 6.04919 6239.12 -14613.5 -71605.7 -7127.12 32707.8 -18613.8 -7.41279 
35 1 71.7171 0.705664 7.5 6.04919 6922.29 -14580 -74790.4 6842.97 -32465.5 -15849.3 -7.4126 
36 1 74.557 0.684909 7.5 6.04919 6255.54 -15830.1 -68701.8 -4981.29 33818.5 -13400.7 -7.41297 
142 1 66.0552 3.20662 7.5 6.0492 4538.54 -13526.2 -68377.2 -8918.9 32603.2 -24146.1 -7.41299 
143 1 67.4752 3.19624 7.5 6.0492 8311.8 -12714.4 -85257.9 9109.58 -29368.4 -19630.1 -7.41196 
144 1 68.1762 1.96133 7.5 6.0492 5406.83 -14155.1 -69799.6 -8077.8 32707.2 -21414 -7.4129 
145 1 69.5961 1.95095 7.5 6.0492 7625.87 -13697.5 -80032.6 8005.99 -31011.2 -17868.6 -7.41228 
146 1 70.3151 3.17549 7.5 6.0492 4593.9 -15136.6 -64160.6 -6987.03 33982 -19292.8 -7.41325 
147 1 71.735 3.16511 7.5 6.0492 8327.72 -14107.2 -82081.4 7025.3 -30846.2 -15094.1 -7.41216 
148 1 72.436 1.9302 7.5 6.0492 5442.97 -15576.9 -66246.1 -6034.51 33961.1 -16362.1 -7.41312 
149 1 73.856 1.91982 7.5 6.0492 7649.38 -14979.7 -77101.5 5852.08 -32250.4 -12955.8 -7.41246 
150 1 74.575 3.14436 7.5 6.0492 4628.39 -16409.4 -60985.2 -4889.66 35028.2 -13863.5 -7.41344 
300 1 66.0732 5.66607 7.5 6.0492 2784.33 -13870.4 -61183.8 -8686.94 33690.8 -24965.3 -7.41343 
301 1 67.4931 5.65569 7.5 6.0492 9605.52 -12214.4 -91988.5 9293.08 -27483 -18617 -7.41155 
302 1 68.1941 4.42078 7.5 6.0492 3714.45 -14560.2 -62467.3 -7872.69 33889.3 -22168.1 -7.41335 
303 1 69.6141 4.4104 7.5 6.0492 8983.68 -13181.2 -87061.7 8175.39 -29256.3 -16984.2 -7.41185 
304 1 70.3331 5.63493 7.5 6.0492 2855.31 -15553.2 -56619.6 -6799.44 34983.8 -19922.6 -7.41371 
305 1 71.753 5.62456 7.5 6.0492 9599.46 -13527.5 -89180 7170.16 -29041.7 -14304.3 -7.41172 
306 1 72.454 4.38964 7.5 6.0492 3767.4 -16046.4 -58602.4 -5875.49 35067.7 -16913 -7.41359 
307 1 73.874 4.37927 7.5 6.0492 8987.62 -14394.9 -84447.4 5977.2 -30568.2 -12299.9 -7.41201 
308 1 74.5929 5.6038 7.5 6.0492 2903.84 -16878.8 -53180.7 -4754.01 35965.2 -14289.7 -7.41392 
458 1 66.0911 8.12551 7.5 6.0492 945.603 -14183.9 -53932 -8439.95 34479.4 -25724.4 -7.41387 
459 1 67.5111 8.11514 7.5 6.0492 10747.3 -11671.4 -98480.9 9467.54 -25448.8 -17560 -7.41116 
460 1 68.2121 6.88022 7.5 6.0492 1921.87 -14926.1 -55057.4 -7655.84 34784.8 -22867.4 -7.4138 
461 1 69.6321 6.86985 7.5 6.0492 10190.7 -12616.6 -93875.6 8336.79 -27334.3 -16060.2 -7.41144 
462 1 70.351 8.09438 7.5 6.0492 1025.91 -15934.6 -49029.7 -6601.38 35685.3 -20503.5 -7.41417 
463 1 71.771 8.084 7.5 6.0492 10718.4 -12900.2 -96051 7308.11 -27086 -13481.4 -7.41131 
464 1 72.472 6.84909 7.5 6.0492 1987.1 -16473.3 -50890 -5708.97 35887.1 -17421 -7.41406 
465 1 73.892 6.83871 7.5 6.0492 10174.7 -13758 -91587.1 6096.15 -28716.6 -11616.2 -7.41158 
466 1 74.6109 8.06325 7.5 6.0492 1083.61 -17310.8 -45334.9 -4612.1 36601.3 -14679.9 -7.4144 
37 1 75.977 0.674532 7.5 6.04919 6950.59 -15715.6 -72176.6 4635.65 -33468.4 -10583.2 -7.41276 
38 1 78.8169 0.653777 7.5 6.04919 6257.82 -16635.9 -66844.3 -2713.05 34547.5 -7756.82 -7.41308 
39 1 80.2368 0.643399 7.5 6.04919 6972.64 -16434.6 -70568.2 2316.69 -34057.2 -4946.17 -7.41286 
40 1 83.0768 0.622645 7.5 6.04919 6249.29 -16968.9 -66095.2 -375.803 34874.5 -1856.18 -7.41313 
151 1 75.9949 3.13398 7.5 6.0492 8340.21 -15187.3 -79731.8 4768.8 -31912.3 -10059.6 -7.4123 
152 1 76.6959 1.89907 7.5 6.0492 5459.85 -16621.3 -63742.5 -3846.57 34857.4 -10801.6 -7.41327 
153 1 78.1159 1.88869 7.5 6.0492 7667.66 -15893.7 -75087.5 3555.4 -33074.7 -7601.01 -7.41258 
154 1 78.8349 3.11322 7.5 6.0492 4643.89 -17252.1 -58952.4 -2676.61 35716.2 -7993.07 -7.41356 
155 1 80.2548 3.10285 7.5 6.0492 8353.75 -15871.6 -78284.5 2395.02 -32541.2 -4668.07 -7.41239 
156 1 80.9558 1.86793 7.5 6.0492 5461.74 -17210 -62370.9 -1565.29 35373.1 -4888.7 -7.41336 
157 1 82.3758 1.85756 7.5 6.0492 7685.39 -16369.7 -74057.9 1172.9 -33465.2 -1969.56 -7.41264 
158 1 83.0947 3.08209 7.5 6.0492 4642.67 -17600.6 -58130.9 -398.391 36028.1 -1861.01 -7.41361 
309 1 76.0129 5.59342 7.5 6.0492 9595.32 -14547.9 -87102 4866.51 -30169.2 -9514.16 -7.41185 
310 1 76.7139 4.35851 7.5 6.0492 3798.86 -17136.4 -55877.8 -3741.36 35910.9 -11137.2 -7.41375 
311 1 78.1339 4.34814 7.5 6.0492 8993.63 -15262.1 -82650 3629.22 -31443.5 -7191.22 -7.41212 
312 1 78.8528 5.57267 7.5 6.0492 2929.96 -17756 -50978 -2598.7 36612.4 -8207.02 -7.41405 
313 1 80.2728 5.56229 7.5 6.0492 9599.62 -15196.1 -85820.3 2439.77 -30836.5 -4382.6 -7.41193 
314 1 80.9738 4.32738 7.5 6.0492 3810.26 -17750.2 -54383.7 -1518.48 36398.7 -5002.02 -7.41384 
315 1 82.3938 4.317 7.5 6.0492 9006.26 -15715.1 -81728.8 1191.03 -31860.9 -1817.54 -7.41218 
316 1 83.1127 5.54154 7.5 6.0492 2934.89 -18118.2 -50086.5 -382.458 36910.1 -1859.01 -7.41411 
467 1 76.0309 8.05287 7.5 6.0492 10697.6 -13857.3 -94252.5 4959.22 -28272.8 -8948.29 -7.41142 
468 1 76.7319 6.81796 7.5 6.0492 2029.14 -17605.6 -47950.9 -3631.87 36677.2 -11443.5 -7.41424 
469 1 78.1518 6.80758 7.5 6.0492 10167.5 -14575.5 -90012.4 3698.89 -29641.4 -6767.31 -7.41167 
470 1 78.8708 8.03212 7.5 6.0492 1117.32 -18219.2 -42967.5 -2518.23 37208.1 -8399.58 -7.41454 
471 1 80.2908 8.02174 7.5 6.0492 10692.7 -14466.9 -93140.8 2480.99 -28977 -4090.95 -7.41148 
472 1 80.9918 6.78683 7.5 6.0492 2047.94 -18242.6 -46338.3 -1470.77 37137.6 -5101.2 -7.41434 
473 1 82.4117 6.77645 7.5 6.0492 10175 -15003.9 -89202.5 1206.11 -30084 -1666.28 -7.41172 
474 1 83.1307 8.00098 7.5 6.0492 1126.8 -18594.8 -42008.4 -367.307 37492.2 -1851.33 -7.4146 
41 1 84.4967 0.612267 7.5 6.04919 6990.57 -16681 -70020.3 -58.3872 -34220.1 876.31 -7.41289 
42 1 87.3367 0.591512 7.5 6.04919 6232.38 -16800.6 -66480 1973.08 34788.6 4098.72 -7.41311 
43 1 88.7566 0.581135 7.5 6.04919 7004.05 -16437.3 -70552.7 -2430.26 -33955.7 6678.93 -7.41286 
44 1 91.5965 0.56038 7.5 6.04919 6207.52 -16143.6 -67984.8 4277.31 34288.7 9898.42 -7.41301 
45 1 93.0165 0.550003 7.5 6.04919 7010.92 -15723.6 -72147.6 -4741.22 -33274 12259.4 -7.41276 
159 1 84.5147 3.07171 7.5 6.0492 8370.9 -16107.8 -77788.9 -37.5463 -32718.5 901.007 -7.41242 
160 1 85.2157 1.8368 7.5 6.0492 5450.73 -17296.1 -62178 754.974 35493.5 1183.22 -7.41337 
161 1 86.6357 1.82642 7.5 6.0492 7702.93 -16371.4 -74048.6 -1237.32 -33414.7 3743.51 -7.41264 
162 1 87.3546 3.05096 7.5 6.0492 4626.33 -17426.4 -58548.9 1889.96 35954.1 4324.7 -7.41359 
163 1 88.7746 3.04058 7.5 6.0492 8391.94 -15877 -78262.8 -2466.2 -32442.2 6448.97 -7.41239 
164 1 89.4756 1.80567 7.5 6.0492 5428.46 -16870.9 -63170.2 3059 35212.5 7202.41 -7.41331 
165 1 90.8956 1.79529 7.5 6.0492 7719.09 -15900.2 -75060.7 -3613.33 -32927.4 9334.72 -7.41258 
166 1 91.6145 3.01983 7.5 6.0492 4595.74 -16741.5 -60191.4 4135.98 35492.4 10349.4 -7.41349 
167 1 93.0345 3.00945 7.5 6.0492 8413.65 -15201.1 -79691 -4829.74 -31722.8 11780.4 -7.4123 
317 1 84.5327 5.53116 7.5 6.0492 9616.01 -15420.9 -85377.8 -48.9949 -31027 917.822 -7.41196 
318 1 85.2337 4.29625 7.5 6.0492 3803.16 -17840.5 -54171.6 740.246 36518 1293.84 -7.41386 
319 1 86.6536 4.28587 7.5 6.0492 9027.29 -15718.6 -81715.9 -1275.94 -31811 3632.98 -7.41218 
320 1 87.3726 5.5104 7.5 6.0492 2919.35 -17938.4 -50537.2 1843.23 36849.2 4541.77 -7.41408 
321 1 88.7926 5.50003 7.5 6.0492 9644.84 -15205.4 -85790.7 -2532.64 -30737.7 6196.1 -7.41193 
322 1 89.4936 4.26512 7.5 6.0492 3778.64 -17398.8 -55248.6 2983.67 36263 7533.83 -7.41379 
323 1 90.9135 4.25474 7.5 6.0492 9055.15 -15273.8 -82612.8 -3706.21 -31298.2 8964.16 -7.41212 
324 1 91.6325 5.47927 7.5 6.0492 2884.51 -17227.3 -52314 4028.11 36427.3 10776.4 -7.41397 
325 1 93.0525 5.4689 7.5 6.0492 9682.53 -14569.1 -87046.3 -4947.15 -29980.2 11264.6 -7.41185 
475 1 84.5507 7.99061 7.5 6.0492 10708.4 -14680.1 -92752.4 -62.2772 -29179.4 925.776 -7.41151 
476 1 85.2517 6.75569 7.5 6.0492 2044.03 -18336.7 -46107.9 723.691 37256.8 1402.77 -7.41435 
477 1 86.6716 6.74532 7.5 6.0492 10199.7 -15009.5 -89185.2 -1315.85 -30033.8 3506.53 -7.41172 
478 1 87.3906 7.96985 7.5 6.0492 1112.4 -18408.8 -42491.3 1792.47 37445.5 4748.57 -7.41457 
479 1 88.8105 7.95947 7.5 6.0492 10745.2 -14480.8 -93101.5 -2599.49 -28876.5 5919.58 -7.41149 
480 1 89.5115 6.72456 7.5 6.0492 2018.25 -17879.6 -47267.8 2903.38 37029 7847.96 -7.41428 
481 1 90.9315 6.71418 7.5 6.0492 10239.7 -14593.4 -89962.4 -3799.02 -29495 8563.28 -7.41168 
482 1 91.6505 7.93872 7.5 6.0492 1075.05 -17673.9 -44398.9 3913.03 37064.7 11177.9 -7.41445 
483 1 93.0704 7.92834 7.5 6.0492 10799.2 -13887.4 -94178.3 -5062.84 -28080.5 10711.6 -7.41142 
46 1 95.8564 0.529248 7.5 6.04919 6174.09 -15046.4 -70557.3 6480.8 33384 15349.9 -7.41286 
47 1 97.2764 0.51887 7.5 6.04919 7006.66 -14598.8 -74751.7 -6934.53 -32194.7 17440.8 -7.4126 
48 1 100.116 0.498116 7.5 6.04919 6129.56 -13591.6 -74112.8 8532.55 32093.6 20296.4 -7.41264 
49 1 101.536 0.487738 7.5 6.04919 6986.62 -13147.1 -78282.6 -8959.27 -30746.6 22088.4 -7.41239 
168 1 93.7355 1.77454 7.5 6.0492 5394.86 -15966.1 -65312.5 5291.75 34533.6 12962.1 -7.41318 
169 1 95.1554 1.76416 7.5 6.0492 7729.95 -14995.4 -77060.5 -5897.59 -32018.9 14615.2 -7.41246 
170 1 95.8744 2.98869 7.5 6.0492 4550.65 -15596.6 -63001.4 6285.72 34650 16015.1 -7.41332 
171 1 97.2944 2.97832 7.5 6.0492 8430.86 -14134.5 -82026.8 -7068.75 -30582.5 16724.7 -7.41216 
172 1 97.9954 1.7434 7.5 6.0492 5348.87 -14649 -68532 7400.72 33469.4 18283 -7.41298 
173 1 99.4153 1.73303 7.5 6.0492 7730.05 -13729.1 -79983.3 -8033.45 -30715.4 19430.4 -7.41228 
174 1 100.134 2.95756 7.5 6.0492 4490.57 -14074.3 -66885.6 8290.86 33442.9 21160.3 -7.41308 