ITEM: TIMESTEP
0
ITEM: NUMBER OF ATOMS
1352
ITEM: BOX BOUNDS pp pp pp
0.0000000000000000e+00 3.1928000000000001e+01
0.0000000000000000e+00 5.5300918199999998e+01
0.0000000000000000e+00 1.5000000000000000e+01
ITEM: ATOMS id type x y z c_csym c_2[1] c_2[2] c_2[3] c_2[4] c_2[5] c_2[6] c_3 
47 1 1.039 8.562 3 6.02218 -158577 -122829 -80404.9 -16726.8 23953.3 -9383.29 -7.41452 
48 1 0.283 7.363 3 6.01928 -126062 -140485 -42404.5 -27396.6 54476.7 -1958.12 -7.41688 
49 1 0.945 6.108 3 6.02403 -138908 -78415.7 -87051.9 -14148.1 28091.4 -9315.37 -7.41387 
50 1 0.189 4.908 3 6.02502 -123274 -156393 -79767.8 17820.4 42320.3 -1772.72 -7.41493 
51 1 0.85 3.654 3 6.02801 -143466 -134741 -98724.6 10650.1 24108.5 -8673.94 -7.41348 
52 1 0.094 2.454 3 6.02183 -166731 -133679 -103448 2347.41 22614.2 -1049.54 -7.41363 
53 1 0.756 1.2 3 6.02333 -128387 -123903 -108566 -1570.85 10104.3 -7223.58 -7.41297 
54 1 0 0 3 6.02606 -130655 -146534 -110876 15458.3 -2.80717 -22.1669 -7.41302 
93 1 2.456 8.508 3 6.02484 -125223 -127579 -26213.3 10263.3 54330.8 -398.855 -7.41757 
94 1 3.117 7.253 3 6.022 -168073 -140829 -66913.8 -32924 24915.6 -28605.3 -7.4156 
95 1 2.362 6.054 3 6.02288 -139795 -169171 -65126 -22985.6 46295.7 -6678.17 -7.41582 
96 1 3.023 4.799 3 6.02288 -144706 -97657.1 -78737.2 -4155.66 26329.5 -29105.4 -7.4144 
97 1 2.267 3.599 3 6.02264 -125377 -149598 -92917.7 26846.6 29905.6 -12286.4 -7.41436 
98 1 2.928 2.345 3 6.02372 -150578 -155879 -93221.3 -2577.58 18524.1 -27597.1 -7.414 
99 1 2.173 1.145 3 6.02128 -135531 -165885 -105253 8153.83 8523.9 -16568.4 -7.41377 
138 1 5.29 8.399 3 6.02379 -153925 -134246 -33482.5 12069.1 18344.1 -41230.8 -7.41771 
139 1 4.534 7.199 3 6.02414 -131138 -156056 -55589.5 31542.2 43508.9 -5216.29 -7.4162 
140 1 5.195 5.945 3 6.02052 -159563 -152807 -44340.1 -4530.15 25313.9 -43518.1 -7.41714 
141 1 4.44 4.745 3 6.02288 -131277 -136843 -81615.2 2412.5 30909.5 -15639.6 -7.41421 
142 1 5.101 3.49 3 6.02173 -147840 -135247 -62112.4 -24082.9 24342 -42974.7 -7.41601 
143 1 4.345 2.291 3 6.0206 -133347 -142988 -93941.4 -2575.13 12361 -24843.6 -7.41409 
144 1 5.006 1.036 3 6.02294 -137882 -131543 -80558 -27200.3 14175.6 -38774.8 -7.41462 
183 1 6.707 8.344 3 6.0217 -139287 -170882 -54928.9 16970.3 35967.4 52.2176 -7.41643 
184 1 7.368 7.09 3 6.02666 -151735 -146066 -228.64 9105.09 20677 -49708.9 -7.41942 
185 1 6.612 5.89 3 6.02368 -119438 -139239 -76180.8 18201.8 26752.7 -12829 -7.41481 
186 1 7.274 4.636 3 6.02183 -187774 -128218 -19389.3 -5279.32 26598.6 -50469.9 -7.41885 
187 1 6.518 3.436 3 6.02469 -120431 -120739 -84460.6 19059.1 11526.9 -24764.3 -7.41397 
188 1 7.179 2.181 3 6.0211 -142305 -147121 -44716.5 -26941.2 23910.4 -47434.8 -7.4167 
189 1 6.423 0.982 3 6.02062 -129174 -133229 -78671.8 -12180.7 -6285.87 -35018.8 -7.41467 
228 1 9.541 8.235 3 6.02403 -142517 -103512 45645.9 -14105.5 12220.6 -46445.3 -7.42164 
229 1 8.785 7.035 3 6.02502 -126102 -152690 -79122 33585.5 19907.8 -6596.11 -7.41496 
230 1 9.446 5.781 3 6.02801 -149968 -155854 28578.1 6591.2 24773 -49079.4 -7.42091 
231 1 8.69 4.581 3 6.02217 -166297 -137874 -82122.8 19631.7 7589.58 -19205.3 -7.41482 
232 1 9.352 3.327 3 6.02334 -134646 -139280 -251.454 -7658.52 29369.3 -47945.3 -7.4195 
233 1 8.596 2.127 3 6.02666 -128058 -155592 -71305.2 36273.3 -7705.77 -30478.9 -7.41527 
234 1 9.257 0.873 3 6.02073 -146059 -173482 -33941.4 -11170.7 24824.8 -43008.3 -7.41754 
681 2 0.378 8.617 6.4 6.02414 -133977 -161795 -19403.1 -17559.8 56988 2076.83 -7.41832 
682 2 0.472 6.163 6.4 6.02288 -131765 -141409 -61843.7 12717.8 49432.1 346.863 -7.41535 
683 2 0.567 3.709 6.4 6.0206 -130933 -145878 -93292.7 17484.7 33095.9 -2180.13 -7.41413 
684 2 0.661 1.254 6.4 6.02129 -137638 -160469 -108657 152.841 11390.1 -4981.55 -7.41345 
685 2 0 0 6.4 6.02684 -130960 -146215 -110876 -12756.6 1.94012 -28.7599 -7.41302 
723 2 1.795 8.671 6.4 6.022 -169439 -137040 -76327.2 30637.9 24498 -16804 -7.41506 
724 2 2.55 7.472 6.4 6.02288 -141094 -172464 -44062.7 38651.1 50357.5 -118.681 -7.41703 
725 2 1.889 6.217 6.4 6.02288 -148676 -92614.7 -81731.5 -2126.86 28967.2 -18825.5 -7.41423 
726 2 2.645 5.017 6.4 6.02264 -124109 -153964 -78709.9 -10385.4 38400.4 -8259.87 -7.41518 
727 2 1.984 3.763 6.4 6.02372 -156388 -149899 -92898.6 -7468.87 25577.7 -19848.6 -7.41403 
728 2 2.739 2.563 6.4 6.02156 -131102 -168109 -98815.2 9053.7 19551.4 -16533 -7.41414 
729 2 2.078 1.309 6.4 6.02412 -137559 -137914 -103319 -17961.7 12317.8 -19098.3 -7.41344 
730 2 2.834 0.109 6.4 6.02416 -132409 -146692 -102466 -6172.54 -1630.58 -23416.5 -7.41351 
768 2 4.629 8.781 6.4 6.01928 -128218 -139445 -33736.1 40462.1 44907 4721.45 -7.41738 
769 2 3.967 7.526 6.4 6.02403 -141574 -82667.3 -55623.3 10776.3 26254.4 -35039.5 -7.41568 
770 2 4.723 6.326 6.4 6.02502 -123106 -158576 -67050.2 -3451.04 37224.5 -7310.32 -7.41566 
771 2 4.062 5.072 6.4 6.02801 -148582 -137156 -65339.7 -17766.1 28949.1 -36695 -7.4154 
772 2 4.818 3.872 6.4 6.02183 -164151 -139420 -87061.2 12110.8 22049.8 -19754.8 -7.41455 
773 2 4.156 2.618 6.4 6.02333 -134751 -124288 -79753 -8922.82 22794.7 -35726.8 -7.41462 
774 2 4.912 1.418 6.4 6.02666 -125450 -152598 -90924.4 -749.864 3108.42 -30881.9 -7.41413 
775 2 4.251 0.164 6.4 6.02212 -143510 -161670 -91759.9 -11322 7619.29 -31766.8 -7.41444 
813 2 6.046 8.835 6.4 6.02368 -163999 -156063 -19830.6 -2413.84 19142.9 -44038.8 -7.41847 
814 2 6.801 7.635 6.4 6.0217 -135068 -173216 -62957.9 13926.9 31271.6 -1693.77 -7.41596 
815 2 6.14 6.381 6.4 6.02665 -151094 -141235 -26138.9 -18137 27560.4 -46793.2 -7.4179 
816 2 6.896 5.181 6.4 6.02368 -116245 -141456 -80463.4 15512.2 20056.5 -16072.4 -7.41457 
817 2 6.234 3.927 6.4 6.02183 -185430 -126702 -42059.3 -11863.3 28872 -46303.7 -7.4174 
818 2 6.99 2.727 6.4 6.0265 -125066 -157997 -81888.3 -2162.48 3913.04 -29563.1 -7.41445 
819 2 6.329 1.473 6.4 6.02281 -137692 -147812 -62449 -30849.1 21350.3 -42262.2 -7.41568 
820 2 7.085 0.273 6.4 6.02167 -120600 -104579 -68207.7 24874 -12514.5 -40470.3 -7.41496 
858 2 8.879 8.944 6.4 6.02406 -137893 -169899 -67978.2 17022.3 22059.6 5542.4 -7.41565 
859 2 8.218 7.69 6.4 6.02379 -154042 -145535 18725.8 -16826.7 21168.5 -48671.9 -7.42079 
860 2 8.974 6.49 6.4 6.02414 -126980 -154133 -81988.5 -1789.27 15052.9 -8867.42 -7.41466 
861 2 8.313 5.236 6.4 6.02052 -159139 -163716 3883.14 -8751.6 29792.8 -49103.4 -7.41997 
862 2 9.068 4.036 6.4 6.02288 -128840 -139054 -80340 28227.9 2140.93 -22630.1 -7.41427 
863 2 8.407 2.781 6.4 6.02173 -146698 -144079 -20897.2 3223.93 30156.7 -46033.3 -7.41854 
864 2 9.163 1.582 6.4 6.02173 -132981 -149718 -63036.9 31278.7 -12915.5 -34474.3 -7.41585 
865 2 8.502 0.327 6.4 6.02294 -138679 -138327 -48762.9 535.791 21849.4 -39607.5 -7.41633 
903 2 10.296 8.999 6.4 6.02334 -148202 -137212 60871.3 -2833.17 9816.61 -42055.5 -7.42322 
905 2 10.391 6.544 6.4 6.022 -168103 -166318 51210.7 25238.6 25057.1 -43603.6 -7.42256 
907 2 10.485 4.09 6.4 6.02288 -144190 -120674 26054.4 -9598.37 33161.5 -41894.1 -7.42054 
909 2 10.58 1.636 6.4 6.02372 -150263 -174224 -8429.8 -16071.6 32213.1 -37251.7 -7.41892 
273 1 10.958 8.181 3 6.02288 -143323 -160021 -89308 -17649.6 12203.8 -5.01623 -7.41441 
274 1 11.619 6.926 3 6.02288 -150288 -124168 73612.8 -2108.2 18763.5 -38517.3 -7.42336 
275 1 10.863 5.726 3 6.02264 -125835 -149655 -88087.5 33953.4 2933.65 -10927.4 -7.41461 
276 1 11.524 4.472 3 6.02372 -158570 -177237 45556.6 -2017.07 30205.7 -39552 -7.42212 
277 1 10.769 3.272 3 6.02156 -132414 -172106 -71917 14954.3 -10160.9 -21079 -7.41566 
278 1 11.43 2.018 3 6.02412 -139908 -159201 6762.85 3592.5 32574.5 -37570 -7.41982 
279 1 10.674 0.818 3 6.02416 -132972 -158538 -43660.6 28367.6 -23422.2 -30116.2 -7.41687 
318 1 13.791 8.072 3 6.02052 -163782 -179366 105739 688.148 9879.39 -20784 -7.42601 
319 1 13.036 6.872 3 6.02288 -132576 -131958 -98987.4 -1896.64 -838.814 -3229.57 -7.41321 
320 1 13.697 5.617 3 6.02173 -155018 -158112 84039.9 -17546.7 26643.2 -23068.8 -7.42463 
321 1 12.941 4.418 3 6.02061 -131699 -147531 -80906.7 -5336.12 -11828.1 -9962.97 -7.41482 
322 1 13.602 3.163 3 6.02334 -145918 -146698 45621.4 -18255.4 35334.8 -23639.8 -7.422 
323 1 12.847 1.963 3 6.02129 -138075 -172929 -49043.2 11897.2 -24110.9 -16546.4 -7.41687 
324 1 13.508 0.709 3 6.02665 -134023 -167187 138.884 6578.57 34382.3 -22242.3 -7.41943 
363 1 15.208 8.017 3 6.02368 -121624 -130641 -108511 3548.16 -1940.55 466.652 -7.41297 
364 1 15.87 6.763 3 6.02183 -193757 -147470 105840 3612.68 20265.6 -2019.09 -7.42626 
365 1 15.114 5.563 3 6.02469 -119467 -120563 -93594.4 5303.25 -10843.1 -880.668 -7.41345 
366 1 15.775 4.308 3 6.0213 -150769 -162986 73815 -14695.5 33710.2 -3551.76 -7.42369 
367 1 15.019 3.109 3 6.02041 -124620 -138351 -62799.6 -25330.2 -22359.2 -2701.45 -7.41557 
368 1 15.681 1.854 3 6.02385 -127440 -116477 29351.4 -11736.4 37762.5 -4931.96 -7.42051 
369 1 14.925 0.654 3 6.02442 -130211 -165679 -20742.7 21761.4 -32725.5 -5095.38 -7.41835 
407 1 17.381 9.162 3 6.02502 -127955 -145883 -108494 11719.8 610.574 -1847.48 -7.41317 
408 1 18.042 7.908 3 6.02801 -154205 -166855 105761 14174.1 13062.1 18853.3 -7.42549 
409 1 17.286 6.708 3 6.02217 -166262 -134462 -101898 -2518.25 -5778.57 2964.4 -7.4137 
410 1 17.948 5.454 3 6.02334 -142088 -148913 84019.5 5303.52 29329.3 17762.1 -7.42449 
411 1 17.192 4.254 3 6.02666 -124694 -158131 -78988.4 15553.8 -16495.6 7169.11 -7.41483 
412 1 17.853 3 3 6.02052 -154374 -178678 45754 7809.99 37216.8 15408.6 -7.42221 
413 1 17.098 1.8 3 6.02288 -132926 -141666 -41859 -16623.2 -27960.8 9987.83 -7.41684 
414 1 17.759 0.545 3 6.02255 -134278 -127381 -15.1804 5245.11 35667.2 12263.3 -7.41911 
452 1 20.215 9.053 3 6.02414 -151721 -123617 83808.7 1243.23 6669.01 34753.7 -7.42408 
453 1 19.459 7.853 3 6.0239 -125732 -145679 -98878.7 6246.4 3161.42 847.24 -7.41425 
454 1 20.12 6.599 3 6.02523 -163131 -176532 73521.9 2974.45 24023.9 35539.7 -7.42377 
455 1 19.365 5.399 3 6.02406 -131505 -171687 -89451.6 -12712.7 -5999.6 10582.4 -7.41441 
456 1 20.026 4.145 3 6.02379 -148443 -158761 45575 19483.4 34114.3 33793.3 -7.42213 
457 1 19.27 2.945 3 6.02414 -126438 -157440 -63814.5 3193.14 -18335.3 18938.1 -7.4157 
458 1 19.931 1.691 3 6.02156 -146417 -174631 6816.93 9075.28 35019.3 29719.2 -7.42037 
459 1 19.176 0.491 3 6.02336 -136970 -147144 -25557.9 -18660.1 -29529.1 25038.7 -7.41746 
904 2 11.052 7.799 6.4 6.02484 -120667 -117773 -90670.1 10822.8 8840.02 -1104.66 -7.41383 
906 2 11.146 5.345 6.4 6.02288 -136745 -166865 -86916.2 45198.9 -786.456 -13382 -7.41454 
908 2 11.241 2.89 6.4 6.02264 -124769 -155376 -66952.8 -5511.15 -13846.2 -24174.1 -7.41584 
910 2 11.335 0.436 6.4 6.02123 -136983 -179718 -33618.1 10372.4 -26045.1 -32441.6 -7.4179 
948 2 13.13 9.108 6.4 6.02288 -125846 -113182 -102291 6370.24 3404.48 3437.61 -7.41283 
949 2 12.469 7.853 6.4 6.02218 -159101 -159047 90867.2 13433.8 14993.1 -30516.3 -7.4246 
950 2 13.225 6.654 6.4 6.01928 -122798 -130928 -98504.7 37610.1 -3020.54 -4874.89 -7.41364 
951 2 12.563 5.399 6.4 6.02403 -138398 -112632 70260.3 7356.81 29925.9 -29897.6 -7.4231 
952 2 13.319 4.199 6.4 6.02502 -122432 -157183 -78515.2 -8276.92 -13960.8 -12560.9 -7.415 
953 2 12.658 2.945 6.4 6.02801 -142595 -164159 34381.4 -20134.2 36424.4 -27055.4 -7.42124 
954 2 13.414 1.745 6.4 6.02218 -168381 -145179 -43950.3 5520.16 -25955.9 -18627.9 -7.41702 
955 2 12.752 0.491 6.4 6.02352 -127222 -148173 -8199.66 -9883.4 33659.1 -22467.3 -7.41902 
993 2 14.547 9.162 6.4 6.02288 -150078 -130356 113598 -3011.59 1575.72 -12877.4 -7.42594 
994 2 15.303 7.962 6.4 6.02264 -130411 -142711 -108395 -14862.8 -2459.73 -496.101 -7.41327 
995 2 14.642 6.708 6.4 6.02368 -162383 -182767 102024 -4036.73 21503.7 -11898.9 -7.42569 
996 2 15.397 5.508 6.4 6.0217 -132899 -169570 -92990.3 116.925 -11340.1 -3161.89 -7.41424 
997 2 14.736 4.254 6.4 6.02666 -145822 -166451 70494 -16344 34340.8 -10213.6 -7.42359 
998 2 15.492 3.054 6.4 6.02368 -119175 -143835 -61807 -5.78173 -22868.9 -4926.82 -7.41565 
999 2 14.83 1.8 6.4 6.02182 -179510 -145935 26731.4 -6876.57 37784.7 -7761.01 -7.42154 
1000 2 15.586 0.6 6.4 6.02468 -126134 -133741 -19071.1 -2811.9 -33087.4 -5566.37 -7.41777 
1039 2 16.72 8.017 6.4 6.02523 -164835 -182623 113546 847.601 10375.6 7735.04 -7.42615 
1040 2 17.475 6.817 6.4 6.02406 -134173 -166382 -102114 -3303.96 -4724.04 1206.17 -7.41369 
1041 2 16.814 5.563 6.4 6.02379 -151820 -164446 91119.9 -11838.8 27571.3 9861.42 -7.42483 
1042 2 17.57 4.363 6.4 6.02414 -126493 -154103 -80310.5 -19146.4 -15438.3 4639.7 -7.41475 
1043 2 16.909 3.109 6.4 6.02156 -150612 -179762 51599.4 1767.57 36545.7 11079.8 -7.42302 
1044 2 17.664 1.909 6.4 6.02316 -133385 -142359 -44674.6 5831.47 -27076.1 8390.32 -7.41646 
1045 2 17.003 0.654 6.4 6.02131 -140001 -160471 4608.22 18491.1 35972.1 11171.5 -7.4199 
1084 2 19.554 8.126 6.4 6.02217 -170241 -131126 -98373.8 -12540.5 5672.27 -130.178 -7.41389 
1085 2 18.892 6.872 6.4 6.02334 -144711 -147662 90816.4 -58.4998 18870.3 28253.3 -7.4249 
1086 2 19.648 5.672 6.4 6.02665 -125776 -153987 -90801.1 -31513.1 -3328.79 8232.88 -7.41415 
1087 2 18.987 4.418 6.4 6.02052 -158265 -177815 60619 1196.15 31554 29588.2 -7.42311 
1088 2 19.742 3.218 6.4 6.02288 -129977 -139352 -68238.5 1209.7 -15754.2 16261.1 -7.41518 
1089 2 19.081 1.963 6.4 6.02152 -145612 -156104 18910.9 22976 35036.3 28522.7 -7.42053 
1090 2 19.837 0.764 6.4 6.02081 -135728 -155405 -33737.4 1636.03 -27737.8 23694.8 -7.41777 
1129 2 20.97 8.181 6.4 6.02183 -195320 -138880 70173.7 -1609.98 10767.5 40907.7 -7.42415 
1131 2 21.065 5.726 6.4 6.0213 -154252 -155112 51288.9 20409 25288.9 43459.4 -7.42237 
1133 2 21.159 3.272 6.4 6.02156 -131657 -109938 18685 20461 31603.2 42728.9 -7.41991 
1135 2 21.254 0.818 6.4 6.0261 -135833 -164528 -19737.5 -5252.49 28586.1 38616.7 -7.41806 
497 1 21.632 8.999 3 6.02288 -145829 -161298 -80868.7 -43303 14587 -5271.99 -7.41467 
498 1 22.293 7.744 3 6.02288 -149275 -117710 45468.5 5249.91 19156.4 46009 -7.42189 
499 1 21.537 6.544 3 6.02264 -126848 -150422 -87718 2064.04 7954.54 7980.83 -7.41443 
500 1 22.198 5.29 3 6.02368 -159603 -171013 28424 9444.24 30170.4 46008.5 -7.42133 
501 1 21.443 4.09 3 6.0217 -131554 -173194 -78977.8 -13454.9 -4167.19 20524.2 -7.41504 
502 1 22.104 2.836 3 6.02665 -141752 -156056 -123.255 24534.8 32729.4 42753.3 -7.41943 
503 1 21.348 1.636 3 6.02369 -120093 -143597 -55052.5 -12654.8 -18080.8 31172 -7.41603 
504 1 22.01 0.382 3 6.02202 -175976 -139776 -33398.9 15809.3 26486.2 36538.4 -7.41802 
542 1 24.466 8.89 3 6.02183 -196939 -126253 6984.04 5310.82 16194.3 46990.8 -7.42014 
543 1 23.71 7.69 3 6.02288 -121864 -123262 -71832.7 -13948.6 23360.1 1676.7 -7.41456 
544 1 24.371 6.435 3 6.02219 -156349 -142304 -564.223 -10054 26821.3 49418.7 -7.4193 
545 1 23.615 5.236 3 6.02041 -120728 -135830 -82064.1 -45811.8 12691.6 16266.2 -7.41457 
546 1 24.277 3.981 3 6.02156 -135239 -98703.7 -19252.8 -2397.82 30367.8 48282.3 -7.41767 
547 1 23.521 2.781 3 6.02281 -124062 -157287 -76350.1 1991.15 -2303.39 29576 -7.41487 
548 1 24.182 1.527 3 6.0265 -139125 -153048 -44282.7 31504.4 25089.9 43674.8 -7.41663 
549 1 23.426 0.327 3 6.022 -169741 -142240 -55697.9 -9891.02 -17163 40322.8 -7.41661 
587 1 25.882 8.835 3 6.02217 -171046 -141965 -43574 -11984.1 37791 -5132.66 -7.41706 
588 1 26.544 7.581 3 6.02334 -145492 -120941 -33693.7 4165.55 24814.5 43080.7 -7.41753 
589 1 25.788 6.381 3 6.02665 -124595 -158976 -71212.1 3863.79 30196.9 8554.83 -7.41528 
590 1 26.449 5.127 3 6.02052 -160760 -153550 -44659.5 9440.09 29151.6 44391.5 -7.41691 
591 1 25.694 3.927 3 6.02288 -126633 -138664 -84572.3 -29528 15784.1 22290 -7.41425 
592 1 26.355 2.672 3 6.02173 -148962 -135859 -62126.8 -6359.56 24966.8 42531.5 -7.41581 
593 1 25.599 1.473 3 6.0206 -130485 -146634 -81734.6 -29580 -1985.58 34533.3 -7.41498 
594 1 26.26 0.218 3 6.02295 -139371 -132087 -78859.1 -101.572 12024.4 37315.8 -7.4145 
632 1 28.716 8.726 3 6.02523 -164481 -145881 -62989.7 -1387.23 23422.4 28397.5 -7.41572 
633 1 27.961 7.526 3 6.02406 -135106 -176967 -48647.1 -13014.1 45272.2 859.391 -7.41678 
634 1 28.622 6.272 3 6.02379 -153111 -129682 -68569.6 14929.1 28714.7 31057.6 -7.41543 
635 1 27.866 5.072 3 6.02414 -124935 -155512 -78868.2 923.491 33392.7 12074.1 -7.41485 
636 1 28.527 3.818 3 6.02156 -152886 -149644 -80450.1 5099.74 26500.2 31749.3 -7.4153 
637 1 27.772 2.618 3 6.02334 -129717 -134751 -93882.3 -24211 15342.5 23069.5 -7.41363 
638 1 28.433 1.363 3 6.0204 -140721 -134407 -93275.7 -6122.44 14697.7 29768.7 -7.41433 
639 1 27.677 0.164 3 6.02194 -137741 -143507 -92811.2 -26211.1 -4401.37 32104 -7.41405 
669 1 30.133 8.671 3 6.02264 -133469 -159050 -21003.4 12343.6 54933.6 -3149.27 -7.41832 
670 1 30.794 7.417 3 6.02368 -162625 -143465 -82121.4 2016.43 27589.5 11335.4 -7.41486 
671 1 30.039 6.217 3 6.0217 -133895 -175440 -62277.2 -4200.93 47290.3 2668.38 -7.41602 
672 1 30.7 4.963 3 6.02666 -147166 -130756 -91030.5 14679.1 28253 12756.9 -7.41414 
673 1 29.944 3.763 3 6.02368 -117370 -138782 -91797.2 -5360.89 31240.5 9376.9 -7.41393 
674 1 30.606 2.509 3 6.02183 -179587 -118951 -102400 5753.16 19472.6 13120.5 -7.41393 
675 1 29.85 1.309 3 6.0263 -128209 -150425 -105190 11909.8 10135.8 15693.3 -7.41312 
676 1 30.511 0.055 3 6.02321 -132499 -145873 -108579 20935.8 1332.97 12418.5 -7.41305 
1130 2 21.726 6.981 6.4 6.02469 -121923 -118941 -86801.6 -17634.5 11975.2 5985.53 -7.41383 
1132 2 21.821 4.527 6.4 6.02041 -123855 -133895 -81811.1 12557.8 102.735 17496.7 -7.41446 
1134 2 21.915 2.072 6.4 6.02241 -127924 -156605 -62845.8 -34257 -14147.4 27900.5 -7.41564 
1174 2 23.804 8.29 6.4 6.02288 -136502 -134760 -66712.1 -4396.62 27885.4 14.8553 -7.41506 
1175 2 23.143 7.035 6.4 6.02173 -157573 -143992 26253.3 19507.5 19695.3 49679.6 -7.4212 
1176 2 23.899 5.836 6.4 6.02061 -132421 -146130 -80513.7 -1928.25 18563.6 13209.8 -7.41484 
1177 2 23.238 4.581 6.4 6.02334 -149986 -134235 3964.51 22707 27626.3 50353.6 -7.41956 
1178 2 23.993 3.381 6.4 6.0217 -135796 -167481 -80351.5 -19643.5 3924.47 25367 -7.41508 
1179 2 23.332 2.127 6.4 6.02665 -137276 -155124 -26170.3 -1814.01 26747.6 47238.7 -7.41788 
1180 2 24.088 0.927 6.4 6.0235 -124370 -140264 -66764.6 -18627 -12325.8 35919.8 -7.41537 
1219 2 25.221 8.344 6.4 6.02288 -151519 -105863 -8353.91 1166.3 16136.9 46648 -7.41849 
1220 2 25.977 7.144 6.4 6.02264 -128245 -152576 -63055 -34433.5 36239.9 6113.88 -7.41607 
1221 2 25.316 5.89 6.4 6.02372 -162038 -160075 -20976.2 2258.73 24772.5 49097.5 -7.41819 
1222 2 26.071 4.69 6.4 6.02156 -131561 -170682 -82096.8 -16262.7 23611.2 18144.4 -7.41508 
1223 2 25.41 3.436 6.4 6.02414 -144547 -144596 -42089.8 -2409.87 25556.5 48193.9 -7.41697 
1224 2 26.166 2.236 6.4 6.02415 -128644 -149906 -87240.5 -28815.7 5986.95 28934.9 -7.41435 
1225 2 25.505 0.982 6.4 6.02177 -142406 -166760 -65375.8 15013.6 17271.5 43337.7 -7.41618 
1264 2 28.055 8.453 6.4 6.02502 -128304 -161776 -33939.3 -27373.2 49728.4 17.916 -7.41747 
1265 2 27.394 7.199 6.4 6.02801 -152348 -136650 -48582.1 -9049.02 23390.5 38775.4 -7.41637 
1266 2 28.15 5.999 6.4 6.02217 -167215 -140645 -68445.4 -14065.3 41220.3 9423.78 -7.41562 
1267 2 27.488 4.745 6.4 6.02334 -138955 -121737 -62387.3 4661.68 25982.1 39572.3 -7.41587 
1268 2 28.244 3.545 6.4 6.02665 -125774 -153980 -91102.6 -31510.6 25090.2 18095 -7.41415 
1269 2 27.583 2.291 6.4 6.02052 -150052 -156731 -79858.5 6125.12 19531.5 37548.3 -7.41487 
1270 2 28.338 1.091 6.4 6.02328 -134922 -130327 -98859.2 1311.77 4658.52 25101.3 -7.41358 
1309 2 29.472 8.508 6.4 6.02484 -152986 -128802 -71072.3 -11870.3 22529 21826.6 -7.41527 
1310 2 30.228 7.308 6.4 6.02368 -121642 -144952 -44934.1 -7029.55 52996.2 3087.76 -7.41663 
1311 2 29.566 6.054 6.4 6.02183 -191440 -111066 -78811.6 259.28 27128.7 22849.5 -7.41539 
1312 2 30.322 4.854 6.4 6.02469 -119656 -123314 -80405.4 -7969.51 40736 7159.96 -7.41421 
1313 2 29.661 3.599 6.4 6.0213 -147436 -131410 -91798.5 19904.4 23728.5 22502.3 -7.414 
1314 2 30.417 2.4 6.4 6.02041 -124640 -129424 -102345 23750.9 21099.4 10357.8 -7.4133 
1315 2 29.755 1.145 6.4 6.02384 -124013 -94538.9 -103288 19118.4 10454.3 20183.8 -7.41284 
1350 2 31.645 7.363 6.4 6.02052 -162206 -140568 -84551.9 -30.7664 27251.1 2428.7 -7.41481 
1351 2 31.739 4.908 6.4 6.02173 -152633 -122833 -93848.8 16236.6 27686.2 1726.12 -7.41419 
1352 2 31.834 2.454 6.4 6.02334 -142791 -117491 -105376 14754.5 18429.5 957.405 -7.4132 
39 1 1.417 18.379 3 6.02519 -132331 -141779 -108440 23776.1 -1660.79 -1859.19 -7.41337 
40 1 0.661 17.179 3 6.02379 -154437 -164096 113647 14862 11918 5080.21 -7.42643 
41 1 1.322 15.925 3 6.02406 -148240 -152276 -102131 113.594 -1289.71 -4678.1 -7.41369 
42 1 0.567 14.725 3 6.02523 -160549 -182548 90995.8 410.379 33829.5 2240.74 -7.42481 
43 1 1.228 13.471 3 6.02396 -145490 -130385 -90703.7 16387.6 5413.74 -7017.09 -7.41439 
44 1 0.472 12.271 3 6.02414 -137821 -150590 51142.3 7330.03 50337.3 67.7539 -7.42232 
45 1 1.134 11.017 3 6.02183 -195396 -108027 -81856.1 4772.86 15177.5 -8652.2 -7.41495 
46 1 0.378 9.817 3 6.02288 -130170 -132120 3995.5 3512.28 57430.1 -1293.91 -7.41901 
85 1 2.834 18.325 3 6.0213 -159799 -159572 102116 -15764.1 422.847 24478.1 -7.42538 
86 1 3.495 17.07 3 6.0262 -130674 -109416 -93095.3 11117 -8495.2 -8275.21 -7.41349 
87 1 2.739 15.87 3 6.02334 -145655 -145829 91024.2 4371.03 22310.6 19019.4 -7.42501 
88 1 3.401 14.616 3 6.02368 -138151 -120698 -80279.1 5092.44 -3707.08 -15718.7 -7.41457 
89 1 2.645 13.416 3 6.0262 -145778 -166322 60670.8 18993.5 41331.4 12562.7 -7.42281 
90 1 3.306 12.162 3 6.02639 -151179 -133524 -68341 15322.4 6279.92 -21873 -7.4152 
91 1 2.55 10.962 3 6.02217 -179873 -146812 18505.3 8070.2 52759.9 5968.2 -7.42072 
92 1 3.212 9.708 3 6.02334 -147416 -111256 -63076.8 2050.16 17072.4 -26144 -7.41593 
130 1 5.668 18.215 3 6.01928 -131906 -126288 -78562 -14548.1 -17937.8 -5822.56 -7.41478 
131 1 4.912 17.016 3 6.02149 -159124 -153237 70533.7 -13269.7 8336.41 34741.1 -7.42359 
132 1 5.573 15.761 3 6.02288 -147853 -125344 -61784.2 -1897.2 -15751.9 -17348.9 -7.41535 
133 1 4.818 14.561 3 6.02052 -159458 -172961 51681.3 7461.56 27720.7 26172.8 -7.42279 
134 1 5.479 13.307 3 6.02414 -152350 -137884 -44549.7 23863.6 -6373 -27589.1 -7.41682 
135 1 4.723 12.107 3 6.02379 -140327 -157433 18856.7 25261.1 42209.2 16061.3 -7.42099 
136 1 5.384 10.853 3 6.02523 -163954 -153137 -33712.1 1118.53 6655.21 -35854.1 -7.41742 
137 1 4.629 9.653 3 6.02406 -142729 -175498 -19872 9424.8 47702.4 5529.65 -7.41845 
175 1 7.085 18.161 3 6.02368 -164343 -167276 34406.4 2668.39 -5316.77 45021.8 -7.42167 
176 1 7.746 16.907 3 6.02264 -140884 -146512 -43938.4 30042.8 -29031.8 -13173.4 -7.41697 
177 1 6.99 15.707 3 6.02288 -149985 -114872 26591.6 6068.38 12182.5 36678.5 -7.42054 
178 1 7.651 14.452 3 6.02138 -159485 -158695 -18917.4 -22091.5 -21325.5 -25852.8 -7.4186 
179 1 6.896 13.253 3 6.02288 -161992 -162845 4415.53 -20440.5 27751.3 25533.3 -7.41975 
180 1 7.557 11.998 3 6.02288 -147325 -110270 107.869 7657.55 -7328.67 -36958.4 -7.41919 
181 1 6.801 10.798 3 6.02264 -141198 -149994 -25542.7 29654.2 36468 13043.4 -7.41804 
182 1 7.462 9.544 3 6.02368 -164185 -161663 6917.03 2552.66 8315.49 -45130.7 -7.42004 
220 1 9.918 18.052 3 6.02406 -142561 -172691 -33550.7 11445.4 -41082.7 -6430.86 -7.41764 
221 1 9.163 16.852 3 6.02523 -164189 -158467 -8317.25 1563.83 -2653.66 40372.8 -7.41891 
222 1 9.824 15.598 3 6.02396 -140045 -155665 54.2886 26287.6 -36439.2 -18677.6 -7.41966 
223 1 9.068 14.398 3 6.02414 -144586 -128960 -20686 12681.9 11956.3 30911.2 -7.41805 
224 1 9.73 13.144 3 6.02183 -192373 -135572 28951.7 12214.6 -23144.6 -30254.8 -7.42142 
225 1 8.974 11.944 3 6.02288 -137674 -114941 -41538.4 12886.7 22679.1 19228.7 -7.41632 
226 1 9.635 10.689 3 6.02218 -158884 -150207 45857.3 -12707.5 -5150.47 -39886.5 -7.42192 
227 1 8.879 9.49 3 6.01928 -131884 -129471 -63853.8 -14383.2 25679.5 6394.61 -7.41562 
678 2 0.094 15.979 6.4 6.02052 -162168 -181034 105782 -1697.72 22795.3 1808.99 -7.42602 
679 2 0.189 13.525 6.4 6.02379 -144248 -164766 73420.7 -16153.8 42776 2966.81 -7.42425 
680 2 0.283 11.071 6.4 6.02406 -146797 -182103 28823 2443.82 54855.4 3037.88 -7.42134 
716 2 2.173 17.288 6.4 6.02334 -147298 -147046 105906 -897.697 8533.78 18495.5 -7.4259 
717 2 1.511 16.034 6.4 6.02368 -132310 -121607 -101919 4346.16 -433.061 -6472.78 -7.41334 
718 2 2.267 14.834 6.4 6.0262 -149161 -167545 83960.9 -11495.4 30066.2 16573.5 -7.4242 
719 2 1.606 13.58 6.4 6.02639 -147217 -132919 -89371 -9601.86 6127.6 -10526.6 -7.414 
720 2 2.362 12.38 6.4 6.02217 -183888 -148362 45369.2 2827.76 46350.7 12588.7 -7.42231 
721 2 1.7 11.126 6.4 6.02334 -146047 -109083 -79326.4 -272.366 15671 -13959.5 -7.41498 
722 2 2.456 9.926 6.4 6.02484 -128461 -129815 -195.312 3402.07 53371 7009.15 -7.4191 
761 2 3.59 17.343 6.4 6.02406 -142416 -160218 -93332.7 11568.2 -6184.26 -8942.79 -7.41419 
762 2 4.345 16.143 6.4 6.02523 -163176 -176490 73927.5 4032.09 13670.2 30970.3 -7.42378 
763 2 3.684 14.889 6.4 6.02396 -140528 -138411 -78918.3 -8175.6 -2097.31 -17901.7 -7.41507 
764 2 4.44 13.689 6.4 6.02414 -141777 -145391 45666.7 706.298 32035.6 24473.7 -7.42197 
765 2 3.778 12.435 6.4 6.02183 -192700 -115308 -63783.1 -304.262 7224.8 -25393 -7.416 
766 2 4.534 11.235 6.4 6.02288 -133918 -128588 6854.23 7399.73 43234.3 15531.2 -7.41916 
767 2 3.873 9.98 6.4 6.02219 -158536 -128708 -55022.4 17259.1 17911.6 -31127.3 -7.41599 
806 2 6.423 17.452 6.4 6.02406 -162495 -169691 45773.5 4681.13 -2934.54 42355.1 -7.42232 
807 2 5.762 16.198 6.4 6.02379 -139862 -141665 -62839.6 -3541.11 -13536.9 -18027.9 -7.41612 
808 2 6.518 14.998 6.4 6.02403 -147677 -117778 29106.3 5207.99 14619.1 35178.5 -7.42069 
809 2 5.857 13.743 6.4 6.02138 -160151 -153143 -41774.2 39655.7 -5276.7 -29191.1 -7.41727 
810 2 6.612 12.544 6.4 6.02288 -158168 -165631 132.113 39676.5 28268.8 24830.6 -7.41951 
811 2 5.951 11.289 6.4 6.02288 -147657 -104335 -25592.8 1629.83 6951.25 -38119.8 -7.41769 
812 2 6.707 10.089 6.4 6.02264 -136720 -152609 -33861.5 -3748.87 34431.5 12159.8 -7.41755 
851 2 7.84 17.507 6.4 6.02219 -128606 -135712 -49329.2 8878.79 -26474.5 -12563.3 -7.41648 
852 2 8.596 16.307 6.4 6.02242 -149014 -109246 44.0819 2395.88 -2049.04 40920.1 -7.4191 
853 2 7.935 15.052 6.4 6.02288 -150435 -130389 -20636.4 22707.7 -20760.9 -25812.6 -7.41786 
854 2 8.69 13.852 6.4 6.02052 -156203 -161825 -18763.3 7210.89 11707.6 31410.8 -7.41862 
855 2 8.029 12.598 6.4 6.02414 -153300 -147266 4340.56 -10922 -8276.93 -36771.7 -7.41969 
856 2 8.785 11.398 6.4 6.02379 -135896 -148720 -44402.5 -3950.7 20777.7 19281.6 -7.41728 
857 2 8.124 10.144 6.4 6.02523 -164585 -163844 18902.3 3055.62 7308.16 -44575 -7.42051 
897 2 10.013 16.361 6.4 6.0262 -133137 -126102 -8360.68 8232.63 -36282.7 -17958.1 -7.41827 
899 2 10.107 13.907 6.4 6.02368 -139877 -141677 26325.2 8234.01 -25696.2 -28897 -7.42079 
901 2 10.202 11.453 6.4 6.02639 -152512 -157841 51826.3 -8928.71 -8694.73 -37133.2 -7.42226 
265 1 11.335 17.997 3 6.02334 -147077 -116077 -43780.6 1307.81 -14346.9 35285.3 -7.41704 
266 1 11.997 16.743 3 6.02368 -131771 -145507 6806.56 9135.96 -48817.1 -9438.23 -7.41966 
267 1 11.241 15.543 3 6.0262 -150724 -138215 -49127.5 17570.2 -2283.36 29188.3 -7.41633 
268 1 11.902 14.289 3 6.02639 -146528 -162596 45753.9 19897.8 -38108.6 -18717.8 -7.4219 
269 1 11.146 13.089 3 6.02217 -186677 -122937 -62903.8 8794.44 8804.85 20722.6 -7.41594 
270 1 11.808 11.835 3 6.02334 -146090 -141926 73839.9 6394.88 -19987.2 -27391 -7.42398 
271 1 11.052 10.635 3 6.02484 -131302 -110211 -79068.7 13365.6 14401.7 10726.1 -7.4145 
272 1 11.713 9.38 3 6.022 -170387 -170507 83937.8 -29513.8 764.489 -34320.2 -7.42449 
310 1 14.169 17.888 3 6.02288 -140864 -145321 -207.751 -6408.58 -56208 -1483.47 -7.41895 
311 1 13.414 16.688 3 6.02052 -162535 -143105 -71966.7 1839.77 -13242.5 19388.1 -7.41553 
312 1 14.075 15.434 3 6.02414 -145977 -163051 45410.4 22240.1 -49430 -6323.39 -7.42214 
313 1 13.319 14.234 3 6.02379 -146015 -130355 -80906.1 18926.9 -2692.53 15202 -7.41516 
314 1 13.98 12.98 3 6.02523 -160562 -181107 84003.7 2232.91 -33286.2 -11582.7 -7.42439 
315 1 13.225 11.78 3 6.02406 -148766 -153848 -93390.6 3195.2 4630.88 9832.97 -7.41419 
316 1 13.886 10.526 3 6.02379 -154449 -162623 105832 15486.9 -11920.4 -16690.7 -7.42595 
317 1 13.13 9.326 3 6.02414 -135329 -142083 -101887 26048 5412.63 3514.11 -7.41354 
355 1 15.586 17.834 3 6.02288 -151451 -89220.3 -82088.2 -89.1099 -20418.7 2997.63 -7.4142 
356 1 16.247 16.579 3 6.02288 -152417 -176634 28802.3 -31695.9 -54856.4 3183.26 -7.42133 
357 1 15.492 15.38 3 6.022 -166364 -137884 -87765.5 -30331.4 -10893.7 2924.38 -7.41439 
358 1 16.153 14.125 3 6.02519 -141036 -130512 73634.1 2818.38 -42775.6 3028.11 -7.4237 
359 1 15.397 12.925 3 6.02379 -145503 -127614 -98864.4 15096.4 -2308.04 2285.49 -7.41405 
360 1 16.058 11.671 3 6.02406 -160994 -183179 105800 -2371.92 -22810.6 1807.45 -7.4259 
361 1 15.303 10.471 3 6.02421 -145829 -155084 -108508 967.155 1335.14 1329.57 -7.41311 
362 1 15.964 9.217 3 6.02484 -154098 -167335 117535 13938.6 -4.97349 -52.8604 -7.42641 
400 1 18.42 17.725 3 6.02396 -133115 -161662 -91.903 10265.3 -53383.8 6945.9 -7.41979 
401 1 17.664 16.525 3 6.02403 -141403 -77337.6 -79379.5 -13345.4 -15688.6 -13918.7 -7.4143 
402 1 18.326 15.27 3 6.01796 -188943 -142507 45399.3 -31842.4 -46335 12594.3 -7.42241 
403 1 17.57 14.071 3 6.02219 -152841 -127293 -89443.6 -19572 -6172.61 -10516.5 -7.414 
404 1 18.231 12.816 3 6.02351 -144993 -133285 83997.9 47.9871 -30072.3 16607.7 -7.42374 
405 1 17.475 11.616 3 6.02334 -133489 -119476 -101891 -347.01 408.603 -6553.14 -7.41345 
406 1 18.137 10.362 3 6.02414 -149023 -150140 105764 3903.99 -8563.06 18545.1 -7.42555 
445 1 19.837 17.67 3 6.02801 -152893 -134338 -54912.3 11967.7 -17938.3 -31194.4 -7.416 
446 1 20.498 16.416 3 6.02389 -136402 -162514 7001.2 5754.41 -43237.4 15416.3 -7.41986 
447 1 19.742 15.216 3 6.02414 -192980 -117778 -63873.3 1384.74 -7274.01 -25414.6 -7.41589 
448 1 20.404 13.962 3 6.02219 -141507 -142922 45818.8 -1802.39 -32040.3 24378.1 -7.42208 