ITEM: TIMESTEP
67
ITEM: NUMBER OF ATOMS
1352
ITEM: BOX BOUNDS pp pp pp
0.0000000000000000e+00 3.1928000000000001e+01
0.0000000000000000e+00 5.5300918199999998e+01
0.0000000000000000e+00 1.5000000000000000e+01
ITEM: ATOMS id type x y z c_csym c_2[1] c_2[2] c_2[3] c_2[4] c_2[5] c_2[6] c_3 
47 1 1.05312 8.56078 2.94784 6.0103 -170860 -117191 -24179.2 -37942.8 14789.2 -8946.72 -7.4154 
48 1 0.297471 7.36132 2.93588 6.0153 -135307 -155385 16419.8 -29031.8 39207.6 -4537.03 -7.41782 
49 1 0.957307 6.1062 2.92455 6.01308 -164875 -124339 -8918.64 -23430.8 16592.1 -7955.99 -7.41557 
50 1 0.200205 4.90752 2.91395 6.02055 -136483 -153620 4836.84 -14867.1 27231.2 -3274.75 -7.41616 
51 1 0.858946 3.65188 2.90563 6.01865 -157177 -132476 -2039.97 -10090.6 13589.9 -6490.95 -7.41536 
52 1 0.100728 2.45379 2.89863 6.02614 -139818 -149879 144.339 -4063.21 13449 -1602.79 -7.41526 
53 1 0.758778 1.19781 2.89498 6.02692 -148738 -140724 -594.001 -2222.93 5431.12 -4678.95 -7.41508 
54 1 1.24483e-06 4.02114e-06 2.89312 6.03115 -144673 -144673 -680.885 35.5297 0.277768 0.595764 -7.415 
93 1 2.46995 8.50335 2.95031 6.00565 -160460 -130710 18342.8 -31339.6 41655.5 -1918.29 -7.41859 
94 1 3.12964 7.24792 2.94065 6.01071 -186934 -101897 -6719.88 -30907.2 14314.1 -23454.1 -7.41628 
95 1 2.37407 6.04836 2.9275 6.01164 -153458 -137106 4788.84 -14998.5 31313 -5789.58 -7.41673 
96 1 3.03282 4.79258 2.92013 6.01444 -173718 -115897 929.987 -15460.1 14703.4 -21221 -7.41607 
97 1 2.27566 3.59386 2.909 6.01783 -148552 -141326 -716.506 -796.265 18067.2 -8241.04 -7.41561 
98 1 2.93377 2.33784 2.90566 6.02167 -159205 -130534 1753.23 -4188.05 9911.5 -18041.8 -7.41563 
99 1 2.17549 1.13973 2.89862 6.02278 -145510 -143977 -1128.85 7128.06 4135.36 -9798.63 -7.41517 
138 1 5.30019 8.39148 2.9601 6.0051 -207543 -81102.5 4859.48 -35546.7 9643.2 -36668.9 -7.41779 
139 1 4.54633 7.19088 2.94657 6.00223 -173906 -116177 -3286.31 -13962.2 31904.9 -3811.82 -7.41695 
140 1 5.20522 5.93497 2.94081 6.01023 -191411 -98190.3 11353.7 -17587.5 14457.2 -34774.7 -7.41756 
141 1 4.44947 4.73539 2.9274 6.01004 -161985 -127649 -7567.24 4823.05 19728.9 -10419 -7.41585 
142 1 5.10775 3.47936 2.9247 6.01703 -173085 -117104 9652.68 -2064.75 13928.1 -30820.1 -7.41689 
143 1 4.35043 2.28062 2.91387 6.01574 -152330 -137244 -5198.74 17704.7 6023.83 -15296.7 -7.41545 
144 1 5.00853 1.02464 2.91552 6.01737 -153620 -136691 3006.95 6073.05 7883.5 -25483.8 -7.41612 
183 1 6.71683 8.33548 2.96699 5.99701 -193136 -95544.9 -21017.3 -14148.9 28978.2 1564.58 -7.41654 
184 1 7.37607 7.07957 2.96349 6.00379 -205149 -84186.9 31266.6 -17727.7 11904 -44228.6 -7.41983 
185 1 6.62183 5.87903 2.94998 6.00407 -176308 -111974 -23172 10271.3 18643.4 -8512.79 -7.41567 
186 1 7.28049 4.62306 2.94828 6.01153 -186458 -104145 25832.6 2670.43 16815.1 -40790.8 -7.41894 
187 1 6.52436 3.42351 2.9356 6.0104 -161984 -126686 -16502.2 29348.5 5508.84 -16272.5 -7.41549 
188 1 7.18275 2.16761 2.93711 6.01139 -165478 -125515 13317.9 16552.9 15395.8 -35095.3 -7.41769 
189 1 6.42517 0.968837 2.92742 6.01231 -149583 -139731 -4936.7 38678 -7633.08 -22374.2 -7.41593 
228 1 9.54564 8.22637 2.98378 5.99962 -208930 -79816.3 59378.9 -17474.5 6014.92 -45579.4 -7.42263 
229 1 8.79268 7.02497 2.97232 6.00314 -186852 -99031.8 -47820.9 12542.8 15197.5 -3564.25 -7.41486 
230 1 9.45202 5.76924 2.97192 6.00736 -193908 -96444.8 51242.2 7877.64 17432.8 -44647.3 -7.42167 
231 1 8.69708 4.56886 2.9595 6.00926 -170745 -116210 -36919.9 38780.2 3178.98 -13261.6 -7.41502 
232 1 9.356 3.31316 2.96092 6.00659 -175226 -116056 32627.3 28603.3 21943.7 -40155.7 -7.41999 
233 1 8.59935 2.11366 2.95 6.01059 -156687 -131588 -18285.9 55587.3 -10000.5 -21040.4 -7.41584 
234 1 9.25826 0.858171 2.95432 6.00066 -154095 -136920 8525.09 38706.8 19015.5 -33563.9 -7.41808 
681 2 0.363443 8.61662 6.45172 6.01155 -126958 -163612 25832.7 36828.1 43734.5 5831.57 -7.41894 
682 2 0.459332 6.16313 6.4753 6.01702 -129361 -160953 9653.03 23161.7 33655.4 3348.26 -7.41689 
683 2 0.557745 3.70964 6.49434 6.02165 -134133 -155658 1753.82 10222.6 20581 437.902 -7.41563 
684 2 0.657941 1.25602 6.50502 6.02695 -140813 -148685 -593.976 2326.26 6768.07 -2363.97 -7.41508 
685 2 -1.10504e-06 1.77413e-07 6.50688 6.03113 -144723 -144756 -680.998 -14.0953 -0.00372194 0.596576 -7.41501 
723 2 1.78047 8.67419 6.45002 6.00405 -137047 -151251 -23173.3 33151.1 16693.9 -11887.7 -7.41567 
724 2 2.53723 7.47534 6.45919 6.0102 -106319 -183397 11353.9 31493.5 37345 4866.58 -7.41756 
725 2 1.87623 6.22105 6.4726 6.01004 -140521 -149144 -7567.5 17276 18888.8 -11876.6 -7.41586 
726 2 2.63408 5.02278 6.47987 6.01446 -116991 -172570 930.452 17238.6 25730.7 -2121.69 -7.41607 
727 2 1.97454 3.76771 6.491 6.01784 -142506 -147336 -716.973 2706.6 16170.3 -11527.2 -7.4156 
728 2 2.73314 2.5698 6.49437 6.01865 -129907 -159642 -2039.95 5645.15 12417.1 -8523.71 -7.41536 
729 2 2.07467 1.31412 6.50137 6.02618 -143821 -145797 143.862 -6401.32 8112.11 -10844.7 -7.41526 
730 2 2.83346 0.116281 6.49958 6.02263 -144311 -145422 -582.615 584.472 -274.487 -13880.3 -7.41528 
768 2 4.61714 8.78583 6.43991 6.00509 -81880.4 -206824 4860.59 36933.1 36578.5 9983.22 -7.41779 
769 2 3.95431 7.53268 6.45344 6.00219 -118630 -171592 -3286.9 18073.3 19254.3 -25723.8 -7.41695 
770 2 4.71205 6.33431 6.45936 6.01062 -96416.2 -192452 -6718.51 21338.5 27468.8 -668.356 -7.41628 
771 2 4.051 5.08018 6.4725 6.01169 -128277 -162354 4787.97 -479.828 20671.4 -24222.5 -7.41673 
772 2 4.80946 3.88214 6.47545 6.01309 -114315 -175076 -8918.76 5828.36 15187.9 -10389.3 -7.41558 
773 2 4.14993 2.62714 6.48605 6.02056 -136433 -153729 4836.48 -14958.8 16451 -21944.8 -7.41616 
774 2 4.90866 1.42919 6.48454 6.01431 -133594 -156071 -4511.92 -4551.81 2570.03 -18715.9 -7.41559 
775 2 4.25016 0.173544 6.49099 6.01796 -144184 -145546 207.159 -21318.6 6896.32 -19020.4 -7.41563 
813 2 6.03444 8.8424 6.43284 5.9963 -95263.3 -195546 10291.1 19877.6 15467.5 -36892.6 -7.41872 
814 2 6.7919 7.64381 6.43709 6.0102 -78004.1 -209629 -23266.4 23914.7 25547.3 3928.41 -7.41597 
815 2 6.12913 6.39071 6.44969 6.00562 -110951 -180154 18341.7 -2886.18 22489.3 -35114.8 -7.41859 
816 2 6.88729 5.19241 6.45216 6.01033 -97728.9 -190262 -24178.7 4335.19 15142.2 -8334.34 -7.41541 
817 2 6.22635 3.93827 6.46412 6.01537 -125261 -165580 16419.4 -23305.9 23533.5 -31684.9 -7.41782 
818 2 6.98489 2.7401 6.46313 6.00849 -119952 -169084 -15908.5 -11937.4 2960.18 -18971.9 -7.41563 
819 2 6.3254 1.48508 6.47247 6.01403 -137665 -152282 7381.85 -36427.8 18148.6 -27404.8 -7.4168 
820 2 7.08379 0.286767 6.46706 6.00749 -142902 -147249 -2048.91 -19885.4 -8131.13 -27834.8 -7.41648 
858 2 8.87349 8.9514 6.41768 6.01142 -68780.4 -217172 -47681.9 26009.5 19880.7 9835.28 -7.41507 
859 2 8.20916 7.69917 6.42711 6.00162 -95657.7 -195694 41063.5 -2001.16 19573.6 -41520.8 -7.42107 
860 2 8.96674 6.50045 6.42904 6.01197 -86054.5 -199962 -48340.4 2897.43 12380.7 -3448.65 -7.41465 
861 2 8.3043 5.24717 6.43986 6.01099 -113734 -177315 37079.6 -28647.8 27534.7 -38022 -7.42023 
862 2 9.06242 4.04861 6.43962 6.00515 -107696 -179399 -36549.1 -19601.2 1253.04 -15375 -7.41514 
863 2 8.40171 2.79433 6.44962 6.00846 -129422 -160442 23091.4 -49296.2 27945.5 -33139.1 -7.41877 
864 2 9.15996 1.59575 6.44586 6.00036 -131043 -157994 -16089.7 -35209 -10265.5 -25368.8 -7.41636 
865 2 8.50047 0.340714 6.45338 6.00888 -143345 -145638 3198.61 -59187.9 21342.1 -27507.8 -7.41718 
903 2 10.2909 9.00595 6.40918 5.99927 -88313.9 -201936 69395.3 3604.73 10188.2 -40312.4 -7.42375 
905 2 10.3839 6.55397 6.4178 6.00795 -106763 -183576 65799.3 -27898.1 25926.5 -37890.3 -7.42314 
907 2 10.4793 4.10121 6.42683 6.00301 -123374 -166160 48166.5 -56148.9 33839.3 -33528.6 -7.42144 
909 2 10.5767 1.64775 6.43263 6.00132 -137495 -151299 21185.5 -74789.5 32929 -28255.8 -7.41922 
273 1 10.9623 8.17286 2.99021 6.00812 -188003 -94448.5 -77487 8964.53 10118.9 2235.89 -7.41352 
274 1 11.6227 6.91761 2.99127 6.00679 -190034 -98948.4 82014.6 10778.4 14605.6 -38673.9 -7.42464 
275 1 10.8686 5.71657 2.98103 6.0132 -173599 -110513 -65010 42060.5 -28.3728 -7368.89 -7.41395 
276 1 11.5284 4.46126 2.98235 6.00357 -177943 -112918 60013.7 38585.8 25944.5 -37133.1 -7.42277 
277 1 10.7726 3.2611 2.97218 6.01308 -161159 -125267 -40502.1 67281.8 -12848.2 -15486.1 -7.41517 
278 1 11.4321 2.00584 2.97508 5.99635 -161807 -129258 28470 56997.6 28677.3 -32809.9 -7.42028 
279 1 10.6749 0.806354 2.96699 6.00552 -149719 -138388 -9983.02 79013.5 -24913.8 -22313.7 -7.41701 
318 1 13.7931 8.06726 3.00317 6.0104 -172022 -115019 108318 8442.91 8318.05 -22236.3 -7.427 
319 1 13.0394 6.86595 2.99638 6.01842 -165942 -114457 -94134.9 35400.5 -2613.31 -1383.7 -7.4126 
320 1 13.7004 5.61126 2.99745 6.00306 -169022 -119926 88765.2 41893.1 25978.9 -23967.9 -7.42538 
321 1 12.9451 4.41067 2.98958 6.01574 -158537 -125457 -68088 68406.7 -14446.9 -7385.37 -7.41401 
322 1 13.6054 3.15582 2.99083 5.99418 -161778 -128538 54443.9 68836.8 34941.8 -22974.5 -7.42267 
323 1 12.8487 1.95586 2.98406 6.00377 -151962 -134965 -31474 89520.3 -26886.1 -12708.5 -7.41621 
324 1 13.5087 0.701023 2.98665 5.99283 -150871 -139312 12714.9 81700.9 34267.2 -20197.2 -7.41958 
363 1 15.2101 8.0157 3.00366 6.02519 -146125 -130884 -113347 18820.9 -2709.83 822.048 -7.41161 
364 1 15.8724 6.76186 3.00416 6.00648 -148654 -138389 107844 35486.6 21926.8 -3289.02 -7.427 
365 1 15.1172 5.56123 2.99926 6.01581 -145198 -135691 -92382.1 55765.5 -12837.5 -389.714 -7.41281 
366 1 15.7785 4.30697 2.99859 5.99507 -151317 -137169 77779.8 68912.9 36252.6 -5136.66 -7.42458 
367 1 15.0221 3.10684 2.99412 6.00393 -146272 -138817 -55856.3 85035.9 -25055.8 -1765.43 -7.41501 
368 1 15.6826 1.85229 2.99377 5.99137 -150316 -139019 35804.7 90915.4 40387.6 -5823.73 -7.42137 
369 1 14.9254 0.6525 2.99132 5.99632 -147168 -140879 -11423.7 98913.8 -35821.2 -3431.72 -7.41791 
407 1 17.3812 9.16445 3.00366 6.02519 -118343 -158633 -113346 -2859.97 642.756 -2758.07 -7.41161 
408 1 18.045 7.91156 3.00317 6.01041 -122045 -165084 108317 20497.9 15098.8 18322.3 -7.427 
409 1 17.2894 6.71126 3.00081 6.01747 -122514 -156373 -102940 31999.1 -6953.15 1857.92 -7.4122 
410 1 17.9519 5.45774 2.99796 6.00027 -132839 -154741 88609.2 55963.9 32754.6 15285.3 -7.42532 
411 1 17.1954 4.25779 2.99571 6.00515 -131073 -152124 -73850.4 65068.8 -18186.9 5984.07 -7.41395 
412 1 17.8566 3.00366 2.99229 5.9944 -141222 -147306 53750 84416.7 40754.5 12228.2 -7.42253 
413 1 17.0993 1.80396 2.99185 5.99677 -140916 -146489 -32889.4 87172.5 -29695.7 9058.51 -7.41657 
414 1 17.7597 0.549421 2.9893 5.9947 -146193 -142344 10874.8 98395.2 38939.4 9212.45 -7.41935 
452 1 20.2183 9.05926 2.99745 6.00309 -96066.3 -192940 88764.9 436.215 7768.37 34482.6 -7.42538 
453 1 19.4622 7.85952 2.99638 6.01843 -96689.9 -183744 -94134.6 4565.57 2504.85 -1571.27 -7.4126 
454 1 20.1258 6.60674 2.99127 6.00681 -112510 -176554 82014.7 34173.8 26191 31985.3 -7.42463 
455 1 19.3689 5.40722 2.99021 6.00812 -109963 -172459 -77487.3 35858.4 -6996.77 7645.87 -7.41352 
456 1 20.0309 4.15358 2.98378 5.9996 -127246 -161449 59379.9 64784.4 36465.7 27997.6 -7.42263 
457 1 19.2734 2.95424 2.9845 5.99875 -126943 -159247 -46715.1 61922.6 -18502.6 15524.6 -7.41542 
458 1 19.9341 1.69988 2.97863 5.99727 -139362 -149164 26399.4 85052.8 37193.9 23316.7 -7.42001 
459 1 19.1764 0.50052 2.98223 5.9933 -143790 -145553 -8091.05 74996.6 -28652.4 21652.2 -7.41799 
904 2 11.0476 7.80663 6.41043 6.01748 -85397 -197381 -77634.6 3291.87 7739.91 2213.16 -7.41341 
906 2 11.1413 5.35484 6.41847 6.00787 -102240 -181820 -64864.2 -24938.4 -1702.62 -9121.15 -7.41403 
908 2 11.2372 2.9022 6.42524 5.99873 -122642 -164330 -39327 -48632.2 -13178.3 -18865.3 -7.41557 
910 2 11.3345 0.448643 6.42777 5.99455 -143083 -146532 -6447.73 -60595 -23402.8 -26695.3 -7.41775 
948 2 13.1291 9.11187 6.39935 6.02153 -100264 -178951 -102950 7626.73 3401.35 5249.06 -7.41218 
949 2 12.4648 7.85937 6.40189 6.00804 -109299 -179084 95631.3 -18978.2 17007.2 -29208.6 -7.4259 
950 2 13.221 6.65951 6.40344 6.01457 -108645 -171486 -94111.6 -24654.5 -3958.57 -2783.8 -7.41263 
951 2 12.5583 5.40623 6.40838 6.00191 -123720 -164538 78615.9 -53049 32902.3 -25930.4 -7.42436 
952 2 13.3153 4.20663 6.40925 6.00351 -122161 -161599 -67726.8 -55735.7 -14952.6 -10104.4 -7.41421 
953 2 12.654 2.95259 6.41465 5.99638 -135877 -152674 47582.6 -80224.2 39295.6 -21920.2 -7.42181 
954 2 13.4115 1.75313 6.4133 5.99579 -137176 -150558 -29955.1 -76788.2 -26277.4 -15950 -7.41663 
955 2 12.7512 0.498547 6.41761 5.99678 -144978 -143337 8949.92 -93605.5 36372.7 -17506 -7.41892 
993 2 14.5464 9.16453 6.39424 6.01291 -124501 -162059 115167 -2604.16 2447.86 -13451.7 -7.4276 
994 2 15.3011 7.96385 6.39632 6.02311 -128416 -148533 -113346 -16433.6 -3138.04 20.7861 -7.41161 
995 2 14.6381 6.71045 6.39729 6.00572 -134195 -152744 104644 -38391.4 24127 -10465.3 -7.4267 
996 2 15.3939 5.51015 6.40055 6.01221 -132563 -148014 -92353.7 -52465.1 -13089.1 -2584.51 -7.41285 
997 2 14.7322 4.25619 6.40293 5.99553 -141820 -146305 75407.8 -71799.8 37829.9 -7758.73 -7.42431 
998 2 15.489 3.05626 6.40537 6.00121 -139445 -145901 -55639.1 -81499.6 -25022.6 -4571.13 -7.41511 
999 2 14.8283 1.80185 6.40754 5.99294 -146064 -142837 34349.5 -94003.4 41267.9 -5443.33 -7.42116 
1000 2 15.5856 0.602123 6.40775 5.99462 -146011 -142502 -10731.7 -95576.2 -35445.8 -5653.62 -7.41806 
1039 2 16.7181 8.01525 6.39424 6.01293 -154876 -131869 115167 -15006.1 10425.5 8845.28 -7.42761 
1040 2 17.4723 6.8142 6.39935 6.02154 -152665 -126633 -102949 -37799.9 -6246.28 321.069 -7.41218 
1041 2 16.8108 5.55994 6.39903 6.00058 -156642 -131445 94124.7 -50248.6 28992.7 11202.4 -7.42588 
1042 2 17.5664 4.35947 6.40494 6.01139 -150233 -132950 -74037 -71896.1 -17950.8 3326.69 -7.41384 
1043 2 16.9058 3.10492 6.40486 5.99237 -154806 -134561 57485.3 -78455.9 38376.3 11700.8 -7.42301 
1044 2 17.6626 1.90496 6.40955 6.00098 -148670 -138074 -33705.3 -93969.1 -30065.1 6254.39 -7.41633 
1045 2 17.0023 0.650278 6.40846 5.99243 -149338 -140104 12917.4 -92116.2 37772 10931.6 -7.41971 
1084 2 19.5502 8.12 6.40344 6.01457 -177265 -102952 -94111.6 -14751.1 4389.62 -2035.68 -7.41263 
1085 2 18.8892 6.86518 6.40189 6.00802 -177993 -110358 95631 -20807.7 16791.4 29332.6 -7.4259 
1086 2 19.6435 5.66417 6.41043 6.01747 -166575 -116209 -77634.6 -50055.2 -5786.77 5595.4 -7.41341 
1087 2 18.9832 4.4092 6.40918 5.9993 -170386 -119850 69394.5 -51124.7 29818.2 28978.8 -7.42375 
1088 2 19.7391 3.20896 6.41768 6.01144 -157629 -128262 -47681.7 -77206 -18458.5 12299.7 -7.41507 
1089 2 19.0793 1.95396 6.41538 5.99406 -158574 -132113 32547.9 -71123.8 33539.1 26147.8 -7.42091 
1090 2 19.8364 0.754299 6.42194 6.00118 -149072 -138766 -11047.6 -89756.9 -30098.6 18123 -7.41736 
1129 2 20.9669 8.17269 6.40838 6.00192 -200284 -88038.5 78614.8 8751.71 6004.78 41460.6 -7.42436 
1131 2 21.0602 5.71574 6.4178 6.00798 -188431 -101749 65799.2 -19444.4 19851.2 41397 -7.42314 
1133 2 21.1557 3.25975 6.42711 6.00165 -172399 -118895 41064.8 -42326.7 26171.1 37711.6 -7.42107 
1135 2 21.253 0.804774 6.43284 5.99628 -153331 -137545 10292.3 -53341.9 24215.5 31841.4 -7.41872 
497 1 21.6357 9.00545 2.98958 6.01576 -74554.5 -209515 -68088.5 -20012.8 13619 -8817.35 -7.41401 
498 1 22.3002 7.75328 2.98235 6.00352 -95873.9 -194944 60014.3 8949.84 19186.9 41035.3 -7.42277 
499 1 21.543 6.55424 2.98103 6.01318 -89807.6 -194292 -65010.4 6174.01 6395.5 3659.77 -7.41395 
500 1 22.2057 5.30108 2.97192 6.00734 -114140 -176276 51244 38378.3 29949.3 37421.3 -7.42167 
501 1 21.4479 4.1022 2.97232 6.00313 -110016 -175832 -47821.2 31586.9 -4513.55 14942.9 -7.41486 
502 1 22.1089 2.84808 2.96349 6.00378 -129860 -159500 31268.9 61360.5 32350.4 32423.5 -7.41983 
503 1 21.3508 1.64921 2.96699 5.99699 -132037 -156652 -21018.1 49196.2 -15846.2 24313.4 -7.41654 
504 1 22.0107 0.394364 2.9601 6.00509 -143499 -145176 4861.4 72598.4 26934.3 26685.3 -7.41779 
542 1 24.4749 8.89753 2.97508 5.99634 -88244.4 -203113 28468.9 -14445.6 14076.8 41239.7 -7.42028 
543 1 23.7175 7.6988 2.97218 6.01307 -76053.9 -210580 -40502.8 -18251.2 19836.4 -3383.07 -7.41517 
544 1 24.3807 6.44596 2.96092 6.0066 -106169 -185198 32627 11362.7 23804.1 39082 -7.41999 
545 1 23.6227 5.24746 2.9595 6.0093 -96250.5 -190814 -36919.9 4008.17 9896.43 9383.54 -7.41502 
546 1 24.2841 3.99356 2.94828 6.01153 -122477 -168119 25834.7 34408.4 26917.7 34959 -7.41894 
547 1 23.5257 2.79516 2.94998 6.00408 -119069 -169199 -23172.2 22608.4 -1949.1 20401.5 -7.41567 
548 1 24.1856 1.54036 2.94081 6.01024 -136720 -152878 11354.4 49223.4 22886.4 29907.6 -7.41756 
549 1 23.4274 0.341802 2.94657 6.00222 -142651 -147449 -3286.23 31876.9 -12650.8 29537.2 -7.41695 
587 1 25.8922 8.84155 2.96699 6.00551 -72949.1 -215323 -9985.16 -34667.3 31781.7 -10418.1 -7.41701 
588 1 26.5557 7.5888 2.95432 6.00064 -107576 -183241 8524.46 -11929.6 19559.3 33250.5 -7.41808 
589 1 25.7978 6.39042 2.95 6.01065 -89653.4 -198491 -18286.8 -16979.5 23222.4 1860.41 -7.41584 
590 1 26.4594 5.13663 2.93711 6.01139 -121186 -169782 13317.4 9035.57 22695.4 30881.2 -7.41769 
591 1 25.701 3.9385 2.9356 6.01046 -110079 -178741 -16501.7 532.293 11338.7 12906.7 -7.41549 
592 1 26.3609 2.68377 2.9247 6.01706 -132951 -157422 9652.63 25358.6 19728.3 27471.4 -7.41689 
593 1 25.6023 1.48566 2.9274 6.01003 -131966 -157701 -7567.3 12361.5 -841.805 22295.1 -7.41586 
594 1 26.2611 0.23021 2.92013 6.01445 -143680 -145867 930.818 32780.3 11026.9 23344.2 -7.41607 
632 1 28.73 8.73063 2.95414 6.00037 -120706 -168477 -16090.3 -29363.6 16837.8 21573.8 -7.41636 
633 1 27.9728 7.53198 2.94662 6.00887 -93829.9 -195276 3197.67 -30551.9 34492.9 -4730.14 -7.41718 
634 1 28.6345 6.27813 2.93294 6.00745 -128804 -161300 -2048.97 -11813.6 20040.2 20958.5 -7.41648 
635 1 27.8764 5.07994 2.92743 6.0123 -108646 -180633 -4937.42 -15076.2 23192.5 4577.22 -7.41593 
636 1 28.5364 3.82519 2.91552 6.01732 -135626 -154659 3007.55 4300.07 18128 19568.5 -7.41612 
637 1 27.7777 2.62727 2.91387 6.01567 -125655 -163864 -5198.65 -2369.24 10234.7 12865.8 -7.41545 
638 1 28.4365 1.3718 2.90566 6.02164 -141394 -148324 1753.56 14486.2 10669.9 17605.6 -7.41562 
639 1 27.6778 0.173848 2.909 6.01782 -143769 -145997 -717.308 3480.55 -1897.51 19766.2 -7.41561 
669 1 30.1471 8.67326 2.95038 6.00846 -110022 -179801 23090.8 -37924.5 42672.1 -7631.89 -7.41877 
670 1 30.8086 7.41914 2.93687 6.00847 -146340 -142576 -15908.2 -27285.8 17910.3 6923.58 -7.41563 
671 1 30.0514 6.2205 2.92753 6.01398 -117013 -172755 7382.26 -24430.1 32807.3 -2014.66 -7.4168 
672 1 30.7114 4.96562 2.91545 6.01435 -146543 -143183 -4511.92 -12044.7 17492.9 7131.99 -7.41558 
673 1 29.9532 3.76752 2.90901 6.018 -126762 -162973 207.106 -11296.6 19919.6 3538.38 -7.41563 
674 1 30.612 2.51199 2.90042 6.02259 -145652 -143983 -582.221 -166.4 11882.6 7177.94 -7.41528 
675 1 29.8532 1.31416 2.89862 6.02286 -138228 -151282 -1128.82 -2864.41 6419.58 8480.44 -7.41517 
676 1 30.5113 0.0582154 2.89498 6.02698 -144628 -144818 -593.989 4635.31 1336.49 7043.57 -7.41508 
1130 2 21.7199 6.9712 6.41847 6.00786 -183555 -100362 -64865.4 -21820 8750.98 3085.7 -7.41403 
1132 2 21.8151 4.5152 6.42904 6.01196 -169107 -116814 -48340.1 -50609.5 -3205.19 12445 -7.41465 
1134 2 21.9123 2.06005 6.43709 6.01017 -156078 -131606 -23267.3 -68915.9 -16176.5 20160.5 -7.41597 
1174 2 23.796 8.28059 6.42524 5.99875 -196151 -90789.6 -39328.8 6473.62 22926.6 -1979.98 -7.41557 
1175 2 23.1366 7.02478 6.42683 6.00299 -203918 -85403.3 48165.6 9428.19 12118.2 46069.6 -7.42144 
1176 2 23.8906 5.82398 6.43962 6.0051 -178546 -108408 -36549.7 -21044.1 12687.5 8772.7 -7.41514 
1177 2 23.2317 4.56815 6.43986 6.011 -186229 -104770 37080.1 -13259.4 19160.1 42856.2 -7.42023 
1178 2 23.9876 3.36835 6.45216 6.01022 -163393 -124586 -24177.7 -42114.7 -353.833 17280.5 -7.41541 
1179 2 23.3289 2.11262 6.44969 6.0056 -165360 -125921 18344 -28533.1 19165.2 37035.3 -7.41859 
1180 2 24.0863 0.913599 6.45935 6.01066 -149954 -138951 -6718.55 -52141.2 -13155 24124.1 -7.41628 
1219 2 25.2127 8.33583 6.43263 6.0013 -212622 -76249.3 21183.3 31304.6 8006.27 42645.1 -7.41922 
1220 2 25.9661 7.13489 6.44586 6.00035 -181785 -107216 -16090.5 6057.89 27103.4 3795.65 -7.41636 
1221 2 25.3072 5.87893 6.44962 6.00846 -195334 -94544 23089.3 11139.4 14726.4 40770.6 -7.41877 
1222 2 26.0626 4.67904 6.46313 6.00846 -167041 -121754 -15908.4 -15111 14951.1 12049.6 -7.41563 
1223 2 25.4042 3.42304 6.46412 6.01534 -175515 -115072 16419.8 -5834.04 15674.1 36223.8 -7.41782 
1224 2 26.1612 2.22404 6.47545 6.01317 -154765 -134415 -8918.63 -29144.1 1404.55 18347.4 -7.41557 
1225 2 25.5029 0.968181 6.47249 6.0117 -154190 -136277 4788.27 -14489.2 10642.1 30013.6 -7.41673 
1264 2 28.0421 8.44698 6.44569 6.00062 -174653 -116102 8525.98 26801.3 38575.3 313.798 -7.41808 
1265 2 27.3827 7.19127 6.45338 6.0089 -196304 -92681.1 3197.77 28606.2 13150.5 32237.1 -7.41718 
1266 2 28.1378 5.99136 6.46706 6.00748 -163504 -126802 -2048.89 8160.51 28171.2 6876.68 -7.41648 
1267 2 27.4792 4.73542 6.47247 6.01398 -179978 -109808 7381.83 11812.8 14659.4 29419.4 -7.4168 
1268 2 28.236 3.53643 6.48454 6.01435 -154341 -135294 -4512.18 -7482.98 14924.2 11582.6 -7.41558 
1269 2 27.5779 2.28038 6.48605 6.02061 -162337 -127956 4836.42 -23.924 10779.7 25220.8 -7.41616 
1270 2 28.3359 1.08207 6.49437 6.01865 -147434 -142330 -2040.05 -15664.4 1173.19 15015.9 -7.41536 
1309 2 29.4588 8.50409 6.45 6.01058 -185961 -102207 -18286.9 38683.9 13221.4 19180.5 -7.41584 
1310 2 30.2138 7.30425 6.46289 6.01137 -149784 -141154 13319 25479.5 38092.1 4213.44 -7.41769 
1311 2 29.5545 6.04878 6.47257 6.01232 -175806 -113590 -4937.11 23608.1 15559 17797.6 -7.41593 
1312 2 30.3111 4.84983 6.48448 6.01735 -146174 -144049 3007.62 10374.9 26011.2 5913.79 -7.41612 
1313 2 29.6526 3.59398 6.49099 6.01803 -163607 -125967 207.081 10023.7 13024.3 15481.4 -7.41563 
1314 2 30.4106 2.3957 6.49959 6.02259 -144640 -145012 -582.338 -790.466 12157.6 6701.8 -7.41528 
1315 2 29.7526 1.13966 6.50137 6.02612 -150901 -138753 143.968 2332.7 5336.08 12448 -7.41526 
1350 2 31.6307 7.36202 6.4644 6.01041 -160970 -127761 -16502 30059.6 16846.8 3367.26 -7.41549 
1351 2 31.7279 4.90789 6.48613 6.01574 -156351 -133140 -5198.3 15387.3 16259.8 2430.43 -7.41545 
1352 2 31.8273 2.45389 6.50138 6.02283 -150607 -138977 -1128.82 4205.54 10554.1 1318.7 -7.41517 
39 1 1.41658 18.3813 3.00368 6.02312 -157744 -119263 -113347 494.947 -1551.53 -2727.8 -7.41161 
40 1 0.663535 17.1798 3.00576 6.01293 -150490 -136106 115167 -17467.6 12873.5 4605.52 -7.4276 
41 1 1.32656 15.9261 3.00065 6.02157 -165794 -113403 -102948 -30269.3 -2844.78 -5569.35 -7.41218 
42 1 0.573994 14.7246 2.9981 6.00809 -145296 -143219 95630.2 -39566.5 33799.1 -126.363 -7.4259 
43 1 1.23695 13.4708 2.98957 6.01752 -172066 -110657 -77634 -46864.6 1953.64 -7809.59 -7.41341 
44 1 0.483947 12.2697 2.9822 6.00798 -140173 -150067 65798.3 -47048.2 45777.6 -3507.55 -7.42314 
45 1 1.14618 11.0157 2.97097 6.01194 -173904 -112163 -48340.9 -47980.7 9176.65 -8998.44 -7.41466 
46 1 0.392027 9.81533 2.96014 6.01097 -136544 -154446 37079.5 -41686 46696.2 -4835.32 -7.42023 
85 1 2.83352 18.3287 3.00271 6.00572 -181304 -105560 104645 -11119.6 3000.64 26126.9 -7.4267 
86 1 3.49513 17.074 2.99945 6.01222 -189578 -90971.6 -92355.1 -19671.9 -8782.66 -10043.1 -7.41285 
87 1 2.74357 15.8719 3.00097 6.00057 -181158 -107014 94125.5 -35978.4 24198.1 19506.2 -7.42588 
88 1 3.40537 14.6172 2.99506 6.01144 -199717 -83717 -74037.4 -43442.1 -6093.83 -17208.1 -7.41384 
89 1 2.65393 13.4152 2.99082 5.99928 -176551 -113538 69395.3 -47335.8 40006 11331.4 -7.42375 
90 1 3.3154 12.1604 2.98232 6.01145 -202426 -83378.7 -47684.1 -51378.1 1422.86 -22133.9 -7.41506 
91 1 2.5631 10.9589 2.97289 6.00167 -169001 -122404 41064.1 -44231.8 45745.4 3808.52 -7.42107 
92 1 3.22379 9.70388 2.96291 6.01017 -197387 -90257.9 -23269.2 -45108.4 9371.45 -24088.8 -7.41597 
130 1 5.6633 18.2224 2.99075 6.00354 -200093 -83744.6 -67728.1 -10961.2 -16226.3 -7896.6 -7.41421 
131 1 4.91194 17.0201 2.99707 5.99552 -207271 -80823.1 75409.5 -33961.4 12195.3 36641.7 -7.42431 
132 1 5.57271 15.7647 2.99463 6.00122 -214904 -70419.9 -55641.6 -38102.7 -16469.8 -19384.8 -7.41511 
133 1 4.82219 14.5621 2.99514 5.99238 -207730 -81900.6 57487.6 -47963.2 29322.1 27383.8 -7.42301 
134 1 5.48297 13.3067 2.99045 6.00099 -222127 -64706.3 -33707.2 -51571.7 -9615.47 -29163.8 -7.41633 
135 1 4.73219 12.1043 2.98462 5.99408 -200209 -90364.8 32548.7 -47047.7 39415.6 15969.8 -7.42091 
136 1 5.39256 10.8488 2.97806 6.0012 -219056 -68706.4 -11050 -49360.8 646.082 -35126.1 -7.41735 
137 1 4.64052 9.64718 2.96716 5.99628 -187638 -103163 10292 -33541.4 39683.4 5049.99 -7.41872 
175 1 7.07998 18.1681 2.98535 5.99639 -217873 -70604.2 47582.7 -32696.7 663.115 44990.1 -7.42181 
176 1 7.73998 16.9123 2.9867 5.9958 -213779 -73993 -29955.8 -32721 -26951.8 -14780.9 -7.41663 
177 1 6.98942 15.7097 2.99246 5.99294 -225018 -63929.9 34350.8 -48384.5 15919.5 38462.2 -7.42116 
178 1 7.64973 14.454 2.99225 5.99464 -226208 -62358.5 -10733.8 -49346.1 -22619.4 -27871.2 -7.41806 
179 1 6.89967 13.2511 2.99154 5.99242 -222217 -67300 12919.2 -50025.1 28354.5 27246 -7.41971 
180 1 7.55993 11.9954 2.98931 5.99471 -228415 -60028.9 10873.9 -50852.1 -11490.5 -38329.5 -7.41935 
181 1 6.80923 10.7929 2.98223 5.99329 -210107 -79228.3 -8092.01 -36805.9 33078.1 13986.5 -7.41799 
182 1 7.46909 9.53708 2.97863 5.99727 -220329 -68268.9 26398.3 -38242.6 1597.1 -43868.8 -7.42001 
220 1 9.9082 18.0588 2.97223 5.99454 -198332 -91465 -6448.52 -28822.4 -34819.6 -6918.55 -7.41775 
221 1 9.15664 16.8568 2.98238 5.99677 -224785 -63479.5 8951.17 -47446 3024.66 40251.9 -7.41892 
222 1 9.81676 15.6011 2.98664 5.9928 -212843 -77142.4 12715.4 -45893.1 -34624.7 -19577.8 -7.41958 
223 1 9.0664 14.3985 2.99132 5.99633 -228180 -59943.4 -11424.6 -52129.6 14938.2 32737.7 -7.41791 
224 1 9.72683 13.1428 2.99377 5.99138 -220551 -68833.9 35805.5 -50273.6 -25238.1 -32065.2 -7.42137 
225 1 8.9766 11.94 2.99186 5.99678 -220538 -66764.5 -32891.4 -41269.8 22693.7 21188.4 -7.41657 
226 1 9.63694 10.6844 2.99229 5.9944 -218766 -69657.2 53751.3 -39490.6 -9786.85 -41408.4 -7.42253 
227 1 8.88573 9.48206 2.9845 5.99878 -204825 -81331.5 -46716.1 -17110.5 22695.4 8261.29 -7.41542 
678 2 0.0898955 15.9788 6.39683 6.0104 -136591 -150509 108317 28807.2 23417.4 3913.72 -7.427 
679 2 0.179483 13.5243 6.40873 6.00683 -130861 -157943 82013.8 44650.6 40796.2 6688.76 -7.42463 
680 2 0.270297 11.0703 6.42808 6.00737 -127560 -162908 51241.6 45985.9 47382 7227.22 -7.42167 
716 2 2.17185 17.2855 6.39584 6.00654 -110173 -176794 107844 13217.5 8115.98 20632.7 -7.427 
717 2 1.50716 16.033 6.39919 6.01749 -120129 -158738 -102939 30704 -1867.19 -6950.3 -7.4122 
718 2 2.2615 14.8325 6.40204 6.00035 -100793 -186806 88609.6 37299.2 29615.3 20723.8 -7.42532 
719 2 1.59675 13.5801 6.40979 6.00812 -125570 -156717 -77486.6 45026.3 3123.95 -9881.47 -7.41352 
720 2 2.35143 12.38 6.41622 5.99961 -96904.3 -191764 59378.9 46969.2 42480.9 17580 -7.42263 
721 2 1.68746 11.1272 6.42768 6.00312 -131931 -153989 -47822.1 44476.9 10684.5 -11378.6 -7.41486 
722 2 2.44306 9.92765 6.43651 6.00378 -99003.9 -190379 31267 43384.3 44255.5 11804.3 -7.41983 
761 2 3.58924 17.3392 6.40074 6.01584 -89711.9 -191093 -92383.2 23782.2 -6755.65 -10923.2 -7.41281 
762 2 4.34479 16.1393 6.40141 5.99506 -81239.8 -207400 77782.5 28220.7 13676.9 33963.8 -7.42458 
763 2 3.67896 14.8877 6.40429 6.00518 -90391.8 -192690 -73852.7 41626.9 -3910.23 -18742.1 -7.41396 
764 2 4.43445 13.688 6.40771 5.99438 -72684.2 -215733 53751.7 44670.5 30968.2 29179 -7.42253 
765 2 3.76884 12.4363 6.4155 5.99881 -97545.5 -188764 -46716.9 45049 4194.11 -23784.2 -7.41542 
766 2 4.52481 11.237 6.42137 5.99729 -73175.3 -215573 26400 46595.1 38791.8 20552.4 -7.42001 
767 2 3.86033 9.98468 6.43301 5.99704 -107791 -181008 -21019.5 35256.1 13133.9 -25877.1 -7.41653 
806 2 6.4283 17.4458 6.40917 5.99416 -77256.8 -212987 54445.2 19944.9 -2426.54 41748.8 -7.42268 
807 2 5.76236 16.1944 6.40588 6.00394 -67197.9 -218086 -55857.9 39372.7 -14056.6 -20816.4 -7.41502 
808 2 6.51857 14.9951 6.40623 5.9914 -63245.4 -226185 35806.5 40570.7 15149.9 37889 -7.42137 
809 2 5.85207 13.744 6.40815 5.99679 -69545.4 -217728 -32891.9 46040.7 -7002.04 -30246.9 -7.41657 
810 2 6.60832 12.5448 6.4107 5.9947 -58127.2 -230355 10875.7 47464.1 27449.1 29115.5 -7.41935 
811 2 5.94232 11.2934 6.41777 5.99329 -80151.7 -209253 -8093.17 38341 4426.18 -35639.2 -7.41799 
812 2 6.69906 10.0945 6.42194 6.0012 -63631.5 -224235 -11048.6 40427.1 30744.5 17004.1 -7.41736 
851 2 7.84582 17.5011 6.41594 6.00378 -61682.5 -225218 -31474.4 37421 -24448.8 -16928.8 -7.41621 
852 2 8.60256 16.3021 6.41335 5.99279 -71357.2 -218741 12715.9 35876.9 -357.178 39774.8 -7.41958 
853 2 7.93624 15.051 6.40868 5.99631 -56881.5 -231271 -11425.6 46767.6 -20883 -29305.8 -7.41791 
854 2 8.69263 13.8518 6.40775 5.99463 -60607.4 -227896 -10732.8 46344.3 12827 33523.7 -7.41806 
855 2 8.02598 12.6009 6.40846 5.99241 -62744.8 -226735 12918.2 42127.4 -9417.95 -38178 -7.41971 
856 2 8.78245 11.4017 6.40955 6.00097 -59451.7 -227385 -33706.2 42406.8 20449.2 22910.1 -7.41633 
857 2 8.11656 10.1504 6.41538 5.99411 -77229.2 -213540 32548.1 24087.8 5877.42 -42120.5 -7.42091 
897 2 10.0201 16.3583 6.41761 5.99675 -62673.4 -225626 8950.94 46062.1 -33347.9 -22745.5 -7.41892 
899 2 10.1103 13.9079 6.40754 5.99292 -62291.8 -226633 34350.1 45540.7 -25348.5 -33017.1 -7.42116 
901 2 10.2001 11.4572 6.40486 5.99237 -71828.4 -217777 57486.9 30497 -9053.77 -39085.4 -7.42301 
265 1 11.3249 18.0025 2.96699 6.00553 -209652 -78481.1 -9985.21 -44340.2 -6868.14 32733 -7.41701 
266 1 11.9851 16.7471 2.97508 5.99636 -186675 -104394 28469.6 -42540.5 -42753 -8429.75 -7.42028 
267 1 11.2335 15.5452 2.98406 6.00378 -216633 -70216.2 -31474.5 -52137.3 2436.22 29637.3 -7.41621 
268 1 11.8943 14.29 2.99083 5.99421 -196369 -93867.9 54443 -48739.7 -37368.2 -18772.1 -7.42268 
269 1 11.1436 13.0875 2.99412 6.00394 -214339 -70768 -55856.4 -45709 10998.6 22580.8 -7.41501 