ITEM: TIMESTEP
0
ITEM: NUMBER OF ATOMS
3176
ITEM: BOX BOUNDS pp pp pp
0.0000000000000000e+00 4.8935453299999999e+01
0.0000000000000000e+00 8.4758691400000004e+01
0.0000000000000000e+00 1.5000000000000000e+01
ITEM: ATOMS id type x y z c_csym c_2[1] c_2[2] c_2[3] c_2[4] c_2[5] c_2[6] c_3 
74 1 0.247 9.821 3 6.02132 -109463 -198195 -111821 17342.4 47829.8 -1002.28 -7.41001 
75 1 0.924 8.576 3 6.01789 -153263 -162525 -139325 12679.9 25957.2 -5289.62 -7.40889 
76 1 0.185 7.366 3 6.02358 -143449 -141022 -131889 -10531.6 39938.7 -966.538 -7.40889 
77 1 0.863 6.12 3 6.02659 -178375 -98440.1 -146564 322.803 24236.3 -5209.23 -7.40802 
78 1 0.123 4.91 3 6.02227 -139736 -154043 -146888 13496 28706.2 -607.961 -7.40848 
79 1 0.801 3.665 3 6.02489 -137382 -158286 -153310 -5325.98 17971.8 -4967.31 -7.40753 
80 1 0.062 2.455 3 6.02592 -150861 -170234 -155964 208.183 14826.9 -329.515 -7.40757 
81 1 0.74 1.21 3 6.02194 -172306 -142352 -157978 12634 6853.53 -4451.35 -7.40776 
82 1 0 0 3 6.02694 -142798 -122903 -158866 2418.6 -3.75725 -17.3747 -7.40723 
144 1 3.082 9.75 3 6.02196 -186195 -131931 -130758 10664.7 24431.5 -18248.3 -7.40929 
145 1 2.342 8.54 3 6.02658 -113176 -164348 -123306 18844.7 42897 -4323.69 -7.40914 
146 1 3.02 7.295 3 6.02283 -183615 -133304 -137507 11069.4 25024.6 -18537.2 -7.40903 
147 1 2.28 6.085 3 6.02659 -157295 -121846 -139898 6757.57 33406.2 -6957.44 -7.4084 
148 1 2.958 4.839 3 6.02479 -135997 -121232 -145342 -19311.6 21444.5 -18533.7 -7.4077 
149 1 2.219 3.629 3 6.02393 -122819 -170186 -151165 4932.84 20777 -9447.22 -7.40804 
150 1 2.897 2.384 3 6.02606 -173581 -143541 -152030 7284.45 13222.8 -17677.7 -7.40796 
151 1 2.157 1.174 3 6.02513 -168797 -162544 -156417 23883.2 6352.66 -11362.1 -7.40751 
213 1 4.499 9.714 3 6.02479 -161411 -163565 -115320 23014.8 42687.5 -4672.55 -7.40999 
214 1 5.177 8.469 3 6.02527 -135890 -138575 -123066 5609.17 24292.7 -29940.8 -7.40938 
215 1 4.437 7.259 3 6.02327 -159859 -159537 -132476 23919.1 34733.2 -9819.01 -7.40918 
216 1 5.115 6.014 3 6.02258 -139355 -155806 -131254 -6043.44 23559.9 -30065.7 -7.40943 
217 1 4.376 4.804 3 6.02479 -118249 -138498 -144080 -4419.99 23914.6 -14789 -7.40778 
218 1 5.054 3.558 3 6.02659 -173046 -106465 -139920 -7399.02 18420.6 -29374.4 -7.40839 
219 1 4.314 2.348 3 6.02131 -164146 -149555 -150457 24381.8 10560.7 -19173.9 -7.40843 
220 1 4.992 1.103 3 6.02659 -133368 -176746 -146742 -17848.3 8977.14 -27221.7 -7.40795 
282 1 7.334 9.643 3 6.02582 -147773 -157527 -103500 -8641.47 22414.3 -38612.6 -7.41054 
283 1 6.595 8.433 3 6.02507 -118455 -178538 -125907 12417.4 33438.7 -9551.75 -7.4094 
284 1 7.273 7.188 3 6.02196 -183468 -141440 -112146 5507.13 24080.4 -38908.7 -7.41039 
285 1 6.533 5.978 3 6.02658 -110905 -159451 -137281 24744.1 24027.6 -16376.2 -7.40854 
286 1 7.211 4.733 3 6.02283 -178983 -142912 -122295 5043.17 22227.4 -38162 -7.40993 
287 1 6.471 3.523 3 6.02659 -159455 -117378 -143182 14199.2 12416.6 -22661.8 -7.40822 
288 1 7.149 2.277 3 6.0238 -129561 -131057 -132059 -26029.9 16121.7 -36141.7 -7.40846 
289 1 6.41 1.067 3 6.02163 -128968 -178144 -143588 17675.9 -357.706 -27932.1 -7.40851 
351 1 8.752 9.607 3 6.02393 -121266 -174029 -122321 15021.9 30242.2 -7335.4 -7.40977 
352 1 9.43 8.362 3 6.0261 -186511 -144131 -88736 4420.53 23464.5 -44727.6 -7.4118 
353 1 8.69 7.152 3 6.02479 -160227 -158343 -131979 29049 22111 -15101.6 -7.40901 
354 1 9.368 5.907 3 6.02527 -134366 -148957 -100276 2177.6 24481 -43973.5 -7.41052 
355 1 8.628 4.697 3 6.02327 -160819 -155488 -136955 29650.1 11848.1 -22540.8 -7.40893 
356 1 9.306 3.452 3 6.02258 -136185 -165283 -112691 -13175.3 21654.2 -41910.9 -7.41033 
357 1 8.567 2.242 3 6.02479 -120918 -136469 -136344 859.801 411.292 -29150.7 -7.40821 
358 1 9.245 0.996 3 6.02466 -168950 -125836 -123748 -18874.2 14837.7 -38423.1 -7.4094 
1597 2 0.493 8.611 6.4 6.02679 -120355 -181572 -122383 -10297.1 44183.6 -127.288 -7.40961 
1598 2 0.555 6.156 6.4 6.02602 -156512 -126141 -139843 11585.5 34657.8 -1310.82 -7.40843 
1599 2 0.616 3.701 6.4 6.02099 -127301 -170155 -152046 21168.2 21906.9 -2548.7 -7.40762 
1600 2 0.678 1.245 6.4 6.02519 -171579 -157057 -157994 -8299.56 7376.47 -3608.25 -7.40779 
1601 2 0 0 6.4 6.02721 -147901 -155743 -158876 -11159 14.3397 18.638 -7.40792 
1662 2 2.589 9.892 6.4 6.02327 -160370 -164532 -112143 -9111.14 45771.4 -1439.56 -7.41039 
1663 2 1.911 8.647 6.4 6.02258 -145954 -147746 -137158 -2360.79 26238.2 -12638.6 -7.40886 
1664 2 2.65 7.437 6.4 6.02324 -114378 -145772 -131282 19620.8 37857.9 -5306.19 -7.40854 
1665 2 1.972 6.191 6.4 6.02058 -187059 -130336 -144340 16109.4 24712.7 -13163.6 -7.40844 
1666 2 2.712 4.982 6.4 6.02213 -165356 -152381 -145328 22151.8 26694.2 -9399.54 -7.4084 
1667 2 2.034 3.736 6.4 6.02396 -132018 -124431 -151100 9522.8 18587.9 -13289.6 -7.40733 
1668 2 2.773 2.526 6.4 6.02105 -121391 -169396 -153420 4613.66 13305.9 -12983 -7.40811 
1669 2 2.095 1.281 6.4 6.02177 -173601 -142727 -155923 -17250.7 7666.78 -12651.7 -7.40774 
1670 2 2.835 0.071 6.4 6.02547 -113737 -127775 -155359 5571.54 -937.64 -15867.4 -7.40714 
1731 2 4.006 9.928 6.4 6.02283 -187146 -130969 -125916 -17502.1 25007.7 -24183.1 -7.40972 
1732 2 4.746 8.718 6.4 6.02658 -154121 -127327 -122995 8138.37 38063.3 -6089.38 -7.40942 
1733 2 4.068 7.472 6.4 6.02283 -149280 -149719 -132406 27931.4 25904.2 -25180.4 -7.40878 
1734 2 4.807 6.263 6.4 6.02283 -124307 -173423 -137590 41568 28554.1 -12355.6 -7.40848 
1735 2 4.129 5.017 6.4 6.02658 -174694 -104410 -139909 -6712.67 22810.9 -25354.7 -7.4084 
1736 2 4.869 3.807 6.4 6.02283 -161398 -154031 -146420 -5424.67 16667.3 -18481.9 -7.4085 
1737 2 4.191 2.562 6.4 6.02658 -125235 -145858 -146827 -18502 14954.8 -24575.8 -7.40794 
1738 2 4.931 1.352 6.4 6.02332 -164448 -152527 -149335 -4222.9 3332.56 -23617.5 -7.40813 
1739 2 4.253 0.107 6.4 6.02335 -129999 -175313 -151013 -3410.44 3178.99 -22472 -7.40815 
1800 2 6.841 9.999 6.4 6.02527 -114933 -144172 -116562 26086.4 36157.6 -4246.02 -7.40965 
1801 2 6.163 8.753 6.4 6.02213 -191284 -131961 -115276 11588.9 25390 -34638.7 -7.4102 
1802 2 6.903 7.544 6.4 6.02213 -163525 -154693 -130665 29221.4 28042.4 -11994.2 -7.40929 
1803 2 6.225 6.298 6.4 6.02396 -137585 -124437 -123146 7109.2 25192.2 -35009.1 -7.40903 
1804 2 6.964 5.088 6.4 6.02258 -119904 -173087 -139423 13489.7 17625.3 -19736 -7.40875 
1805 2 6.286 3.843 6.4 6.02327 -177525 -143501 -131890 -23243.8 20761.8 -34142.4 -7.4092 
1806 2 7.026 2.633 6.4 6.02658 -115357 -156525 -142035 -107.03 5565.43 -26803 -7.40803 
1807 2 6.348 1.388 6.4 6.02283 -171762 -146442 -139377 -26216.1 12145.5 -31822.2 -7.40887 
1808 2 7.088 0.178 6.4 6.02663 -166001 -125928 -139401 5690.92 -6261.3 -32352.4 -7.40846 
1869 2 8.259 10.034 6.4 6.02283 -153422 -154436 -94244 27108 23374.1 -41369.5 -7.41107 
1870 2 8.998 8.825 6.4 6.02283 -123805 -173639 -126192 46705.3 25901.4 -9355.39 -7.40917 
1871 2 8.32 7.579 6.4 6.02658 -180086 -107532 -101993 -8799.88 25751.7 -41812.2 -7.41068 
1872 2 9.06 6.369 6.4 6.02283 -158626 -154608 -134010 158.011 16733.5 -17968.5 -7.40946 
1873 2 8.382 5.124 6.4 6.02582 -141550 -161589 -111831 -8215.96 24716.5 -40904.2 -7.41023 
1874 2 9.121 3.914 6.4 6.02299 -126975 -189618 -135949 3706.14 6006.62 -26023.5 -7.40898 
1875 2 8.444 2.669 6.4 6.0205 -141575 -178245 -122255 -25957.3 19597.7 -38467.2 -7.41015 
1876 2 9.183 1.459 6.4 6.02612 -120235 -135275 -132176 28785.7 -5063.07 -33027.2 -7.4088 
1877 2 8.505 0.213 6.4 6.02466 -168599 -124491 -131065 -9121.58 10623.8 -34592.1 -7.40896 
420 1 11.587 9.536 3 6.02658 -183114 -114581 -62963.8 -6465.33 21625 -47474.2 -7.41304 
421 1 10.847 8.326 3 6.02283 -160228 -153139 -129808 31988.7 18920.8 -12176.8 -7.40971 
422 1 11.525 7.081 3 6.02582 -144986 -167261 -74755.3 -12510.2 25401.3 -46785.3 -7.41248 
423 1 10.786 5.871 3 6.02299 -126759 -189223 -132716 28539.6 9923.48 -19920.1 -7.40918 
424 1 11.463 4.626 3 6.02299 -145355 -185464 -89212.3 -1185.63 25571.3 -44883.9 -7.41176 
425 1 10.724 3.416 3 6.02582 -123118 -171689 -130605 14593.8 -428.671 -27245.8 -7.40914 
426 1 11.402 2.171 3 6.02283 -172266 -151283 -104028 699.132 21747.7 -41581.6 -7.4112 
427 1 10.662 0.961 3 6.02663 -163889 -127634 -123945 20803.1 -10749.2 -33617.1 -7.40964 
489 1 13.004 9.501 3 6.02213 -165800 -150792 -130661 643.716 15246.5 -8419.42 -7.40929 
490 1 13.682 8.255 3 6.02396 -141795 -139855 -47607.8 -23258.5 24806.9 -46554.9 -7.4136 
491 1 12.943 7.045 3 6.02258 -120103 -172021 -131881 16830.4 7224.73 -16069.7 -7.4092 
492 1 13.621 5.8 3 6.02327 -181424 -156176 -62933.3 2580.41 27871.3 -44981.4 -7.41337 
493 1 12.881 4.59 3 6.02527 -113732 -158320 -127757 30162.8 -2124.11 -23378.5 -7.40889 
494 1 13.559 3.345 3 6.02479 -175748 -158274 -80598.6 66.7181 27139.5 -42136.3 -7.41208 
495 1 12.819 2.135 3 6.02608 -165690 -153659 -118958 29211.1 -11734.7 -30103 -7.41008 
496 1 13.497 0.89 3 6.02223 -124424 -152557 -98232.4 -3596.86 22588.5 -37979.6 -7.4108 
558 1 15.839 9.429 3 6.02041 -154116 -174630 -19878.3 -38355.2 22536.2 -42886.8 -7.41572 
559 1 15.1 8.22 3 6.02283 -125192 -170518 -134134 -15521.9 4405.19 -11508.6 -7.40869 
560 1 15.778 6.974 3 6.02658 -180078 -126563 -35773.6 -8039.19 28426.8 -42014.6 -7.41456 
561 1 15.038 5.764 3 6.02283 -160202 -155721 -128242 31557.3 -4129.09 -18489.2 -7.40959 
562 1 15.716 4.519 3 6.02658 -129031 -163464 -55343.3 157.659 30583.9 -39838.2 -7.41346 
563 1 14.976 3.309 3 6.02196 -161997 -158054 -117583 29687 -13112.1 -24984 -7.41008 
564 1 15.654 2.064 3 6.02507 -131078 -178556 -75998 -13150.5 28846.4 -36596.4 -7.41248 
565 1 14.915 0.854 3 6.02525 -124358 -151907 -102396 1322.77 -21353.6 -30687.8 -7.41029 
627 1 17.257 9.394 3 6.02527 -122698 -174397 -139540 16787.2 1776.15 -6872.1 -7.40838 
628 1 17.935 8.149 3 6.02283 -189395 -162902 -9417.74 10258.9 27001.4 -35687.5 -7.41674 
629 1 17.195 6.939 3 6.02462 -156809 -120970 -132001 15430.5 -5854.46 -12951 -7.40889 
630 1 17.873 5.693 3 6.02479 -138594 -147877 -29516.1 -22699.4 32098.7 -34356.8 -7.41469 
631 1 17.134 4.483 3 6.02258 -118939 -175978 -119481 15205.7 -14207.8 -18721.4 -7.41014 
632 1 17.812 3.238 3 6.02327 -174711 -165025 -52404.6 4224.07 33010.1 -32263.5 -7.414 
633 1 17.072 2.028 3 6.02641 -114171 -164120 -102661 24728.9 -22357 -24042.8 -7.41056 
634 1 17.75 0.783 3 6.02434 -171083 -173200 -75870.9 -1338.19 30058.7 -29300.4 -7.41274 
695 1 19.414 10.568 3 6.02527 -113209 -156651 -146533 22252.7 -404.219 -2689.09 -7.40797 
697 1 19.352 8.113 3 6.0261 -160829 -157012 -138357 24132.3 -7052.5 -7477.41 -7.40882 
699 1 19.291 5.658 3 6.02479 -117268 -142787 -124908 -3156.59 -14767.3 -12055 -7.40892 
701 1 19.229 3.202 3 6.02283 -162421 -161155 -106371 26048.1 -22628.2 -16343.6 -7.41088 
703 1 19.167 0.747 3 6.02237 -167858 -175937 -84740.8 29877 -29594.1 -20486.1 -7.41206 
1938 2 11.094 10.106 6.4 6.02213 -164665 -153289 -124760 32331.1 22656.3 -5610.25 -7.40964 
1939 2 10.416 8.86 6.4 6.02396 -142667 -130438 -77498 7087.36 24817.4 -45750.9 -7.41178 
1940 2 11.155 7.65 6.4 6.02393 -118502 -173809 -131335 16621 14834.5 -14323.1 -7.40924 
1941 2 10.477 6.405 6.4 6.0261 -184226 -147151 -87858.8 -23129.3 26877.9 -44837 -7.41185 
1942 2 11.217 5.195 6.4 6.0261 -159111 -158800 -132143 2940.79 5198.88 -22769.4 -7.409 
1943 2 10.539 3.95 6.4 6.02338 -130940 -149001 -100466 -27848.2 25159.6 -42491.7 -7.41088 
1944 2 11.279 2.74 6.4 6.02306 -155718 -122625 -127153 13783.9 -5114.27 -30445.4 -7.40919 
1945 2 10.601 1.494 6.4 6.02266 -136851 -166969 -113094 17477.7 19359.7 -38754.9 -7.4099 
1946 2 11.34 0.285 6.4 6.02174 -131865 -180665 -117163 43246.5 -14696.6 -36758.6 -7.40998 
2007 2 12.511 10.141 6.4 6.02658 -184908 -116108 -51150.3 -6877.15 22282.5 -46747.9 -7.41376 
2008 2 13.251 8.931 6.4 6.02283 -159008 -154118 -131796 1220.6 12193.5 -9937.51 -7.40959 
2009 2 12.573 7.686 6.4 6.02582 -147209 -170415 -61372.7 -6611.39 27238.7 -45997.3 -7.41308 
2010 2 13.312 6.476 6.4 6.02506 -116326 -177275 -131279 17056.4 3792.72 -18151.3 -7.40908 
2011 2 12.634 5.231 6.4 6.02196 -180983 -150285 -75223.7 -27840.6 28685.4 -43937.9 -7.41299 
2012 2 13.374 4.021 6.4 6.0261 -104620 -126603 -124959 16335.5 -5817.44 -25907.8 -7.40896 
2013 2 12.696 2.775 6.4 6.02213 -180129 -151195 -91045.5 2269.03 26155.1 -40527.2 -7.41145 
2014 2 13.436 1.566 6.4 6.02213 -168049 -153928 -113433 31688.8 -15125.7 -32601 -7.41027 
2015 2 12.758 0.32 6.4 6.02305 -126418 -150506 -106106 4975.86 20213.9 -35817.4 -7.41008 
2076 2 15.346 10.212 6.4 6.02393 -120700 -172214 -135640 15620 9144.54 -5351.98 -7.40897 
2077 2 14.668 8.967 6.4 6.0261 -189770 -156300 -33864.9 -20151.4 25662.8 -44211.8 -7.41513 
2078 2 15.408 7.757 6.4 6.0261 -158754 -159354 -133665 1920.24 1934.99 -13097.7 -7.4089 
2079 2 14.73 6.512 6.4 6.02338 -134866 -157050 -48231.8 -23482.6 30166.6 -42587.7 -7.41426 
2080 2 15.47 5.302 6.4 6.02306 -152786 -125264 -126085 12689 -6794.69 -20463.5 -7.40925 
2081 2 14.792 4.056 6.4 6.02283 -141064 -172946 -66094.3 18012 30865 -39736.2 -7.41298 
2082 2 15.531 2.847 6.4 6.02283 -126405 -174546 -113175 46102.4 -15679.5 -26874.5 -7.40994 
2083 2 14.853 1.601 6.4 6.02583 -166362 -124384 -84889.1 -14748.5 27738.2 -35729.3 -7.41168 
2084 2 15.593 0.391 6.4 6.02494 -168063 -168774 -96000.8 -7303.65 -23438.1 -32336.8 -7.41175 
2145 2 16.764 10.248 6.4 6.02582 -152407 -181035 -7042.31 -2408.6 22001.3 -39061.9 -7.41639 
2146 2 17.503 9.038 6.4 6.02582 -120135 -175908 -139274 15604.6 77.9055 -8057.83 -7.40839 
2147 2 16.825 7.793 6.4 6.02196 -187008 -159709 -20983 -23689.3 29396.9 -38182.3 -7.41629 
2148 2 17.565 6.583 6.4 6.02603 -105762 -127573 -130440 11415.1 -7699.76 -14549.8 -7.40841 
2149 2 16.887 5.337 6.4 6.02213 -186401 -159310 -39749.1 6358.87 33221.4 -36120.8 -7.41456 
2150 2 17.627 4.128 6.4 6.02213 -164864 -156628 -116395 28641.5 -16030 -20368.2 -7.41012 
2151 2 16.949 2.882 6.4 6.02396 -129926 -146777 -60984.8 2966.4 32990.4 -32889.9 -7.41278 
2152 2 17.688 1.672 6.4 6.02489 -123337 -179622 -97906.6 11895.6 -23930.2 -25345.6 -7.41119 
2153 2 17.01 0.427 6.4 6.02613 -171564 -168911 -82531.9 -21518.5 28999.4 -28855.2 -7.41255 
2215 2 18.921 9.074 6.4 6.02393 -150766 -181316 4297.07 -5017.62 26301.6 -30516.2 -7.41766 
2217 2 18.983 6.618 6.4 6.02056 -155846 -195875 -14318.8 10981.3 33143.1 -29277.4 -7.41632 
2219 2 19.044 4.163 6.4 6.02658 -173003 -131855 -36508.9 -9376.37 35715.5 -27110.5 -7.41464 
2221 2 19.106 1.708 6.4 6.02582 -133373 -182623 -60845.9 -7038.92 34353.1 -24022 -7.41317 
696 1 20.092 9.323 3 6.02479 -190798 -171494 13616.7 9346.77 23833.7 -26057.3 -7.41782 
698 1 20.03 6.868 3 6.02393 -145177 -185442 -5883.4 -5821.8 31503.6 -25721.9 -7.41681 
700 1 19.969 4.412 3 6.02659 -175047 -132064 -29183.2 -5324.74 35122.8 -24635.9 -7.41508 
702 1 19.907 1.957 3 6.02656 -123920 -170553 -55092.6 5760.54 34603.8 -23062.5 -7.41321 
764 1 22.249 10.497 3 6.02658 -145707 -175333 31146.2 11582.9 19242.9 -13916.9 -7.41852 
765 1 21.509 9.287 3 6.02196 -160996 -156510 -145642 21017.5 -7349.77 -2792.63 -7.40839 
766 1 22.187 8.042 3 6.02506 -148504 -191398 13737 -4971.47 29105.7 -14270.4 -7.41764 
767 1 21.448 6.832 3 6.02582 -120772 -178861 -132207 4685.82 -14388.8 -5668.79 -7.4088 
768 1 22.126 5.587 3 6.02283 -181726 -168482 -9214.24 11893.1 35137.2 -14211.1 -7.41699 
769 1 21.386 4.377 3 6.02659 -157906 -126618 -113663 8215.63 -21964.3 -8439.39 -7.40997 
770 1 22.064 3.131 3 6.0261 -131803 -151179 -35446.7 -17368.9 37059.3 -13713.4 -7.41453 
771 1 21.325 1.921 3 6.01897 -129963 -197119 -91021.9 20403.9 -29046.3 -11138.3 -7.41197 
772 1 22.002 0.676 3 6.02266 -137483 -212989 -62790.4 1480.79 34859.2 -12942.3 -7.41337 
833 1 23.667 10.461 3 6.0205 -128755 -184935 -152152 15714.5 -6049.05 -0.375378 -7.40836 
834 1 24.344 9.216 3 6.02299 -157300 -207279 26553.3 11436.3 25352 -1174.28 -7.41882 
835 1 23.605 8.006 3 6.02582 -121053 -175731 -140156 395.454 -12567.9 -504.823 -7.40854 
836 1 24.283 6.761 3 6.02479 -185271 -172752 5927.75 12913 33415.8 -1662.61 -7.41755 
837 1 23.543 5.551 3 6.0261 -160739 -162359 -122414 15592 -19903 -1198.64 -7.40976 
838 1 24.221 4.306 3 6.02393 -138418 -188051 -19678.4 -452.878 37494.8 -2220.28 -7.41596 
839 1 23.482 3.096 3 6.02479 -119168 -148458 -100678 -11563.8 -27151.3 -2214.85 -7.41037 
840 1 24.16 1.85 3 6.0222 -167217 -135390 -46879.1 2057.61 37279.8 -2580.86 -7.41396 
841 1 23.42 0.64 3 6.0211 -120553 -179199 -75017.7 23641.6 -33370.6 -3366.86 -7.41242 
902 1 26.502 10.39 3 6.02306 -186864 -139332 31017.5 3643.6 20565.1 12090.6 -7.41877 
903 1 25.762 9.18 3 6.02338 -113416 -156426 -146501 12652.4 -9149.07 2355.11 -7.40812 
904 1 26.44 7.935 3 6.0261 -188237 -174050 13735.7 15639.7 30339.6 11394 -7.41783 
905 1 25.7 6.725 3 6.02479 -160225 -160803 -131588 10686.8 -16110.2 4105.72 -7.40922 
906 1 26.378 5.48 3 6.02582 -142116 -190553 -9190.71 557.958 36216.8 10405.4 -7.41624 
907 1 25.639 4.27 3 6.02582 -121429 -183446 -111579 -4413.4 -23505.9 5349.97 -7.41003 
908 1 26.317 3.025 3 6.02283 -174965 -167351 -35438.9 18512.5 37828.2 9034.62 -7.41537 
909 1 25.577 1.815 3 6.02658 -160064 -133449 -87644.6 -143.126 -30422.7 5956.4 -7.41128 
910 1 26.255 0.569 3 6.02454 -117956 -145935 -62558 -2526.02 35478 7499.92 -7.41271 
971 1 27.919 10.355 3 6.02213 -166345 -152251 -149051 -23351.1 -3995.76 2817.98 -7.40797 
972 1 28.597 9.109 3 6.0261 -135262 -138574 13694.1 3417.41 26247.2 23690.9 -7.41736 
973 1 27.857 7.899 3 6.02196 -159160 -156532 -138454 9055.31 -10541.9 6892.87 -7.40918 
974 1 28.535 6.654 3 6.02507 -142990 -188937 -5801.3 4489.24 33635.2 22533.6 -7.41666 
975 1 27.796 5.444 3 6.02582 -120306 -181290 -122460 -9081.34 -17962.1 10359.6 -7.40938 
976 1 28.474 4.199 3 6.02479 -178656 -168320 -29293.6 19366.1 36753.5 20749.3 -7.41539 
977 1 27.734 2.989 3 6.0261 -162273 -164896 -101261 6897.89 -25552.3 13204.6 -7.41104 
978 1 28.412 1.744 3 6.02393 -131606 -184297 -55040.3 6692.34 35813.6 18300.4 -7.41376 
979 1 27.673 0.534 3 6.0249 -120770 -161556 -77087.6 -14239.3 -31978.5 15227.5 -7.41227 
2214 2 19.599 10.319 6.4 6.0261 -161683 -155007 -146384 -3010.26 -1567.97 -3684.96 -7.40834 
2216 2 19.66 7.864 6.4 6.02048 -120222 -158034 -137489 9997.28 -8216.95 -8873.66 -7.40856 
2218 2 19.722 5.409 6.4 6.02283 -124575 -174414 -122790 40651.8 -15938.7 -13592.2 -7.40958 
2220 2 19.784 2.953 6.4 6.02283 -161891 -160990 -103335 -6403.59 -23766.7 -17643.7 -7.41127 
2222 2 19.845 0.498 6.4 6.02372 -121544 -162050 -80404.6 21581.8 -30442.8 -20732 -7.41161 
2283 2 21.016 10.355 6.4 6.02283 -192952 -168189 25067.5 -17532.5 21002.4 -20085.5 -7.41909 
2284 2 21.756 9.145 6.4 6.02658 -155102 -124560 -145435 4260.85 -8013.84 -4113.78 -7.40787 
2285 2 21.078 7.899 6.4 6.02224 -145118 -168698 8260.68 12215.2 30444.8 -19508.6 -7.41712 
2286 2 21.818 6.69 6.4 6.01795 -163713 -156924 -131267 20719.2 -15015.8 -7217.9 -7.40924 
2287 2 21.14 5.444 6.4 6.02396 -136337 -154894 -14008.7 9275.4 35972.5 -18186.3 -7.41563 
2288 2 21.879 4.234 6.4 6.02393 -121004 -180238 -111892 5324.4 -22551.3 -9810.59 -7.41038 
2289 2 21.201 2.989 6.4 6.0261 -175278 -168733 -39338.9 -18689.9 37212.7 -16281.7 -7.41478 
2290 2 21.941 1.779 6.4 6.02612 -163629 -167317 -88778.1 -8558.52 -29616.6 -11686.2 -7.41174 
2291 2 21.263 0.534 6.4 6.02546 -132146 -192734 -65936.9 -151.088 34608.8 -13839.4 -7.41326 
2352 2 23.851 10.426 6.4 6.02396 -114541 -140000 -152301 13721.9 -6265.93 -1070.67 -7.4075 
2353 2 23.173 9.18 6.4 6.01795 -194835 -169310 25049.3 14049.7 25713.8 -7571.52 -7.41873 
2354 2 23.913 7.971 6.4 6.02224 -115129 -157398 -140052 18740 -12741.6 -2112.31 -7.40835 
2355 2 23.235 6.725 6.4 6.02658 -179427 -140121 4524.15 -3280.26 33723.8 -6894.47 -7.41693 
2356 2 23.975 5.515 6.4 6.02283 -160386 -159784 -122113 -14489 -20040 -2849.86 -7.41014 
2357 2 23.297 4.27 6.4 6.02582 -138664 -190480 -20763.2 302.445 37646.7 -5875.63 -7.41552 
2358 2 24.036 3.06 6.4 6.02582 -122702 -184953 -100000 2825.96 -27265.7 -3077.03 -7.41072 
2359 2 23.358 1.815 6.4 6.02283 -171329 -167773 -47721.5 -17362.6 37250 -4708.53 -7.41459 
2360 2 24.098 0.605 6.4 6.02663 -164590 -145337 -74465.1 -7100.59 -33484.7 -3029.1 -7.41214 
2421 2 25.269 10.461 6.4 6.02224 -147920 -172283 34167.4 18510.8 19640 5264.23 -7.41893 
2422 2 26.009 9.252 6.4 6.01795 -165309 -152460 -146601 11417.3 -8807.1 1006.58 -7.40833 
2423 2 25.331 8.006 6.4 6.02396 -140327 -158818 16569.1 13458 29701.5 5709.63 -7.41771 
2424 2 26.07 6.796 6.4 6.02393 -120495 -176654 -132006 -3737.51 -15783.4 2371.3 -7.40917 
2425 2 25.392 5.551 6.4 6.0261 -181930 -172166 -6813.53 -11885.9 35790.5 6042.69 -7.41677 
2426 2 26.132 4.341 6.4 6.0261 -161470 -163734 -112434 -17099.9 -23215.3 3978.39 -7.41036 
2427 2 25.454 3.096 6.4 6.02393 -135050 -187266 -33379.1 1630.39 37692.3 6277.14 -7.41512 
2428 2 26.193 1.886 6.4 6.02396 -117362 -150436 -88813.7 8664.76 -30175.7 5689.73 -7.41138 
2429 2 25.515 0.64 6.4 6.02144 -167044 -144240 -60903.7 5204.27 35581.2 6205.71 -7.41317 
2490 2 28.104 10.533 6.4 6.02224 -119860 -151867 -149425 7847.26 -3128.95 1876.56 -7.40758 
2491 2 27.426 9.287 6.4 6.02658 -185170 -139530 20788.9 1265.57 24328.9 18240.2 -7.41794 
2492 2 28.166 8.077 6.4 6.02283 -160672 -154772 -139190 -23599.1 -9744.31 5334.89 -7.40913 
2493 2 27.488 6.832 6.4 6.02582 -145404 -190256 386.974 6190.58 32341.4 18271 -7.41683 
2494 2 28.227 5.622 6.4 6.02582 -120945 -180091 -123898 -6041.09 -17178.9 8749.21 -7.4093 
2495 2 27.549 4.377 6.4 6.02283 -178352 -167277 -23952.6 -10607.2 36186.5 17752.2 -7.41608 
2496 2 28.289 3.167 6.4 6.02658 -156903 -131363 -103749 -9702.77 -24780.6 12117 -7.41036 
2497 2 27.611 1.921 6.4 6.02283 -126009 -168241 -50672.3 23055.3 35934.7 16753 -7.41368 
2498 2 28.351 0.712 6.4 6.01874 -170699 -172736 -80387.7 3696.28 -31392.2 15441.4 -7.41256 
1040 1 30.754 10.283 3 6.02283 -157212 -180276 5448.56 -27625.3 21761.8 33880.7 -7.41715 
1041 1 30.015 9.074 3 6.02283 -122476 -172350 -141637 -41251.1 -3274.66 6971.78 -7.40844 
1042 1 30.693 7.828 3 6.02306 -181666 -131759 -9491.55 8739.41 29910.1 33066.5 -7.41631 
1043 1 29.953 6.618 3 6.02338 -109330 -159910 -130704 2743.61 -10680.5 12550.2 -7.40928 
1044 1 30.631 5.373 3 6.0261 -181942 -166729 -29594.8 21667.8 34488.5 31135 -7.41518 
1045 1 29.891 4.163 3 6.02479 -160628 -162168 -114295 2795.58 -18686.7 17365.6 -7.41026 
1046 1 30.569 2.918 3 6.02582 -135627 -183476 -52456.1 7215.44 34837.9 28348.5 -7.41361 
1047 1 29.83 1.708 3 6.02658 -125085 -181568 -93845.3 -12061.2 -26275 21413.9 -7.41119 
1048 1 30.508 0.463 3 6.02192 -164135 -139774 -75863.1 36997.3 31341 24732.7 -7.41252 
1109 1 32.172 10.248 3 6.02396 -115433 -140641 -139631 -28232.2 5066.65 4928.44 -7.40805 
1110 1 32.85 9.002 3 6.01995 -193965 -155273 -20050.1 -9498.89 25920.5 40954.6 -7.41609 
1111 1 32.11 7.793 3 6.02213 -163434 -155255 -135000 -29936.5 -1906.34 12046.6 -7.40881 
1112 1 32.788 6.547 3 6.02603 -132412 -129089 -35886.7 10834.9 31308.8 39388.8 -7.41399 
1113 1 32.048 5.337 3 6.02196 -158493 -157422 -124489 2641.18 -10195.5 18676.6 -7.41002 
1114 1 32.726 4.092 3 6.02582 -139019 -179486 -55337.6 8696.87 32831.4 36603.4 -7.41343 
1115 1 31.987 2.882 3 6.02582 -122015 -180268 -109400 -15283.5 -18660.7 24386.6 -7.41017 
1116 1 32.665 1.637 3 6.02477 -173441 -158511 -76017 25773.1 30298.7 32783.3 -7.41265 
1117 1 31.925 0.427 3 6.02741 -163605 -137078 -89989.3 -10170 -26109.8 29263.7 -7.41142 
1178 1 35.007 10.177 3 6.02283 -189605 -153718 -35851.4 20410.3 22104.4 45615.1 -7.41525 
1179 1 34.267 8.967 3 6.02666 -160376 -156951 -134269 2273.91 7791.44 9582.15 -7.40908 
1180 1 34.945 7.722 3 6.02144 -148922 -169780 -47355.8 10852.4 28019.4 44687 -7.41426 
1181 1 34.206 6.512 3 6.02048 -121291 -155284 -130638 -15815.6 -310.175 17331.3 -7.40898 
1182 1 34.883 5.266 3 6.02048 -144595 -152930 -63199.1 11248 30280.7 42510.8 -7.41303 
1183 1 34.144 4.056 3 6.02393 -120292 -173073 -121687 -15109.4 -9421.47 24624.8 -7.41003 
1184 1 34.822 2.811 3 6.0261 -175754 -156249 -80464.7 26342.4 28594.9 39012.4 -7.4123 
1185 1 34.082 1.601 3 6.02612 -163499 -159870 -107663 -1491.41 -18280.6 30890.3 -7.41062 
1186 1 34.76 0.356 3 6.02546 -131886 -183705 -97930.2 8391.63 23404.8 34349.2 -7.41125 
1247 1 36.424 10.141 3 6.02479 -160332 -156867 -128338 -3223.64 18047.1 5721.42 -7.40943 
1248 1 37.102 8.896 3 6.02582 -148960 -168045 -63012.3 5004.96 25004.7 46661.4 -7.41297 
1249 1 36.363 7.686 3 6.02582 -118744 -176462 -131767 -18877.8 10347.4 14273.9 -7.40885 
1250 1 37.041 6.441 3 6.02196 -183603 -148027 -74715.6 26576.6 27920.3 45374.4 -7.41301 
1251 1 36.301 5.231 3 6.02603 -107951 -123679 -129654 -14846.9 1094.3 22430 -7.40846 
1252 1 36.979 3.985 3 6.02658 -175175 -117361 -88958.9 14352.1 26958.9 42732.2 -7.41127 
1253 1 36.239 2.775 3 6.02283 -161767 -154220 -122193 -840.823 -8742.65 29944 -7.41016 
1254 1 36.917 1.53 3 6.02582 -132436 -173174 -103477 12113.5 22177.7 38713.8 -7.41049 
1255 1 36.178 0.32 3 6.02371 -128775 -187150 -109770 -11836.7 -17673.4 36097.9 -7.41018 
1317 1 38.52 8.86 3 6.02582 -119313 -177136 -127670 -18296.7 21369.5 9867.84 -7.40909 
1319 1 38.458 6.405 3 6.0261 -158571 -159144 -132760 -2764.7 12356 18575.8 -7.40897 
1320 1 39.136 5.16 3 6.02338 -131431 -147058 -100046 24635.9 25850.5 43218.4 -7.41111 
1321 1 38.396 3.95 3 6.02299 -156246 -120663 -132054 -13754.6 1943.43 26731.1 -7.40889 
1322 1 39.074 2.704 3 6.02479 -129848 -132838 -112196 703.424 21624.7 40361.2 -7.40989 
1323 1 38.335 1.494 3 6.0224 -123947 -172068 -126085 -15866.1 -8356.19 33742.8 -7.40951 
1324 1 39.013 0.249 3 6.02606 -172179 -162060 -122916 21886.2 13737.8 36046 -7.40977 
2559 2 29.522 10.568 6.4 6.02048 -153391 -168078 16319.2 3809.29 18712 29386.6 -7.41789 
2560 2 30.261 9.358 6.4 6.02393 -121722 -169616 -142179 -12269.3 -1912.1 5801.12 -7.40878 
2561 2 29.583 8.113 6.4 6.0261 -188209 -168105 572.188 -7550.19 27704.9 29446.3 -7.41724 
2562 2 30.323 6.903 6.4 6.0261 -160491 -158076 -132038 -25278.4 -9318.78 10907.4 -7.4092 
2563 2 29.645 5.658 6.4 6.02393 -141944 -183899 -20976 7252.37 33320.3 28609.7 -7.41589 
2564 2 30.384 4.448 6.4 6.02396 -115840 -145507 -117122 2235.3 -17329.8 15820 -7.40939 
2565 2 29.706 3.202 6.4 6.01795 -179018 -163030 -45221.3 23291.8 34687.7 26912.7 -7.41443 
2566 2 30.446 1.993 6.4 6.02224 -120845 -161130 -98078.6 4628.28 -25081.6 20529.6 -7.41061 
2567 2 29.768 0.747 6.4 6.02466 -165474 -143964 -70088.6 13267.2 32085.7 24638.1 -7.41241 
2629 2 31.679 9.394 6.4 6.02582 -150638 -182824 -7093.79 8501.6 22883.8 38543.2 -7.41639 
2630 2 32.418 8.184 6.4 6.02582 -120882 -175077 -135818 -12607.7 68.1089 10585.5 -7.40859 
2631 2 31.74 6.939 6.4 6.02283 -184984 -160679 -24270.6 -6757.94 29444.8 37778.4 -7.41608 
2632 2 32.48 5.729 6.4 6.02658 -154834 -123558 -126964 -16067.2 -8132.4 16899.5 -7.40919 
2633 2 31.802 4.483 6.4 6.02283 -143474 -176292 -45503.4 41331.3 32340.9 35818.7 -7.41424 
2634 2 32.541 3.274 6.4 6.02056 -133328 -188297 -113546 3393.4 -16624.1 22751.6 -7.41031 
2635 2 31.864 2.028 6.4 6.01974 -132194 -163158 -67958.1 11475.6 31061.5 32985.4 -7.4127 
2636 2 32.603 0.818 6.4 6.02371 -128755 -185635 -95777.1 -19530.9 -24472.1 28106.1 -7.41159 
2698 2 34.514 9.465 6.4 6.0261 -161443 -154900 -133688 -29570 10370 8227.03 -7.40911 
2699 2 33.836 8.22 6.4 6.02393 -147639 -174703 -34127.2 8896.93 25459.8 44323.8 -7.4151 
2700 2 34.575 7.01 6.4 6.02396 -114578 -141060 -131980 -2454 2533.26 15497.3 -7.40852 
2701 2 33.897 5.764 6.4 6.02213 -186544 -154384 -50882.8 27208.4 29321.2 42626.8 -7.41409 
2702 2 34.637 4.555 6.4 6.02213 -165631 -154065 -124908 -351.331 -6451.36 22458.1 -7.40942 
2703 2 33.959 3.309 6.4 6.02603 -122336 -127571 -70432.5 11052.7 29290.2 39878.7 -7.41201 
2704 2 34.699 2.099 6.4 6.02337 -163264 -155456 -113036 -31913.6 -15533.4 28796.6 -7.41067 
2705 2 34.021 0.854 6.4 6.02659 -131585 -186206 -90281.7 20029.2 25272.7 35938.3 -7.41171 
2767 2 35.931 9.501 6.4 6.02283 -189110 -149580 -48533.5 -7466.94 21796.9 47457.5 -7.4146 
2768 2 36.671 8.291 6.4 6.02658 -154699 -121495 -131263 -18338.2 13913.6 12351.9 -7.40894 
2769 2 35.993 7.045 6.4 6.02283 -149436 -168368 -61328 42284.7 26335.4 46552 -7.41307 
2770 2 36.732 5.836 6.4 6.02283 -122654 -171123 -131173 12953.6 5073.97 19975.5 -7.40908 
2771 2 36.054 4.59 6.4 6.02306 -172650 -121084 -77243.2 10436.6 27189.4 44421.7 -7.41218 
2772 2 36.794 3.38 6.4 6.02338 -112706 -155365 -126021 -30292.2 -4819.54 27113.6 -7.40957 
2773 2 36.116 2.135 6.4 6.02615 -173618 -155797 -94459.8 630.668 24158 40937.3 -7.41132 
2774 2 36.856 0.925 6.4 6.02721 -162187 -131533 -116532 -17790.9 -14405.2 33479.6 -7.40984 
2836 2 38.766 9.572 6.4 6.02396 -115678 -141736 -124884 -2152.87 25355.1 7935.46 -7.40894 
2837 2 38.088 8.326 6.4 6.02213 -191259 -143161 -75230.2 25403.3 23737.8 46813.5 -7.41261 
2838 2 38.828 7.117 6.4 6.02213 -164583 -153433 -131897 -658.54 17161.7 15895.6 -7.40901 
2839 2 38.15 5.871 6.4 6.0261 -126395 -118292 -87890.8 11973.2 25433.2 45754.6 -7.41116 
2840 2 38.89 4.661 6.4 6.02196 -160535 -152668 -133865 -32693.3 7096.99 23538.1 -7.40948 
2841 2 38.212 3.416 6.4 6.02506 -133865 -171145 -102035 14238.5 23218.3 43230 -7.41082 
2842 2 38.951 2.206 6.4 6.02506 -124482 -173364 -130658 -13548.7 -3630.4 30318.6 -7.40887 
2843 2 38.273 0.961 6.4 6.02434 -172703 -161348 -115332 5844.61 17347.6 39331.6 -7.41047 
1316 1 39.259 10.07 3 6.02582 -149584 -162006 -80589.8 2824.03 22935 44597.6 -7.41191 
1318 1 39.198 7.615 3 6.02479 -186258 -144587 -89094.8 21439.8 26086.1 44609.4 -7.41177 
1385 1 40.677 10.034 3 6.02393 -120239 -176179 -118832 -14315.7 31893.8 4934.14 -7.40998 
1386 1 41.355 8.789 3 6.0261 -187316 -138986 -103928 18807 25137.9 39699.8 -7.41088 
1387 1 40.615 7.579 3 6.02479 -158857 -158439 -130530 -1475.53 23849.5 13274.1 -7.4093 
1388 1 41.293 6.334 3 6.02582 -143726 -160839 -112342 5997.02 25581 39722.4 -7.40999 
1389 1 40.554 5.124 3 6.02506 -117424 -176514 -136914 -15498.8 13581.6 21502.6 -7.40875 
1390 1 41.232 3.879 3 6.02196 -177549 -142582 -122189 26831.5 21944.6 38381.2 -7.41015 
1391 1 40.492 2.669 3 6.02603 -109188 -121336 -137234 -14913.9 2106.4 29019.2 -7.40822 