ITEM: TIMESTEP
68
ITEM: NUMBER OF ATOMS
3176
ITEM: BOX BOUNDS pp pp pp
0.0000000000000000e+00 4.8935453299999999e+01
0.0000000000000000e+00 8.4758691400000004e+01
0.0000000000000000e+00 1.5000000000000000e+01
ITEM: ATOMS id type x y z c_csym c_2[1] c_2[2] c_2[3] c_2[4] c_2[5] c_2[6] c_3 
74 1 0.266436 9.81973 2.86966 6.01997 -145103 -160790 8025.92 -24786.9 24400.3 -1875.38 -7.41273 
75 1 0.94287 8.57346 2.86373 6.01826 -165760 -139020 -4388.88 -21211.9 11483.1 -3767.86 -7.41164 
76 1 0.201747 7.36477 2.85802 6.02341 -146140 -159731 3872.03 -15877.6 19571.4 -1570.05 -7.41207 
77 1 0.877414 6.11812 2.85296 6.02134 -162795 -142646 -1280.94 -12393.3 10685.3 -3355.53 -7.41153 
78 1 0.135513 4.90986 2.84828 6.0259 -147879 -158021 1511.37 -7750.44 13606 -1096.67 -7.4116 
79 1 0.810562 3.66291 2.84471 6.02463 -159152 -146670 75.2343 -5205.94 7878.17 -2870.13 -7.41139 
80 1 0.0680908 2.45494 2.84173 6.02853 -150248 -155702 510.16 -2030.79 6826.64 -538.915 -7.41133 
81 1 0.742768 1.20781 2.84019 6.0289 -155042 -150953 345.036 -1194.46 2974.71 -2252.05 -7.41127 
82 1 8.42112e-06 -7.27048e-07 2.83941 6.03117 -153054 -153098 322.336 11.4154 -0.14506 0.209659 -7.41125 
144 1 3.10043 9.74368 2.87146 6.01838 -179344 -125023 -4606.64 -25666.8 10644.7 -10776.3 -7.41185 
145 1 2.36027 8.53443 2.86487 6.01859 -157233 -148468 4456.66 -16924.6 21278.6 -2745.21 -7.41233 
146 1 3.03591 7.28769 2.86032 6.01973 -173921 -131188 -1000.42 -16495 10802.3 -10345.2 -7.41177 
147 1 2.29479 6.07895 2.85427 6.02143 -155590 -150313 1649.54 -7696.82 15827.2 -3820.11 -7.4118 
148 1 2.96986 4.83196 2.851 6.02239 -167678 -138211 638.829 -8143.15 9232.57 -9683.67 -7.41161 
149 1 2.22793 3.62367 2.84616 6.02429 -154307 -151555 417.458 -433.446 9390.2 -4656.7 -7.41146 
150 1 2.90264 2.37653 2.84472 6.02621 -160400 -145401 844.932 -2421.64 5592.78 -8699.39 -7.41144 
151 1 2.16014 1.16854 2.84173 6.02682 -153303 -152540 251.17 3687.69 2502.78 -5260.28 -7.41131 
213 1 4.51778 9.70508 2.87384 6.01219 -170142 -135129 3042.63 -16754.8 21630.5 -2444.91 -7.41252 
214 1 5.19343 8.45825 2.86997 6.0173 -185992 -118915 1071.44 -18675.3 10435.5 -16728 -7.41221 
215 1 4.45325 7.24894 2.86315 6.01565 -165400 -139971 185.978 -6293.55 16667.9 -4892.32 -7.41197 
216 1 5.12837 6.00192 2.86035 6.0202 -177614 -127973 2642.74 -9123.37 10129.6 -15955 -7.41204 
217 1 4.3872 4.79315 2.85425 6.01974 -161080 -144516 -835.966 2893.24 10708.6 -7046.02 -7.41161 
218 1 5.06197 3.54601 2.85299 6.02389 -168151 -137826 2463.2 -1627.25 7938.01 -14756 -7.41181 
219 1 4.31999 2.33769 2.84827 6.0228 -156859 -148859 -517.665 8981.42 4113.92 -8850.17 -7.41145 
220 1 4.99467 1.09056 2.84897 6.02417 -157735 -148051 1201.75 2402.79 3763.02 -12997.6 -7.4116 
282 1 7.34991 9.63008 2.88083 6.01199 -197403 -107174 5329.88 -19606.2 9605.95 -22138.3 -7.41286 
283 1 6.61073 8.42015 2.87379 6.01061 -175976 -128367 -3388.46 -4210.84 16373 -4603.81 -7.41206 
284 1 7.28598 7.17312 2.87155 6.01614 -187664 -117651 6530.74 -8758.74 10566.9 -21274.8 -7.41266 
285 1 6.54568 5.9638 2.8648 6.01501 -169181 -135725 -3903.56 6946.97 10857.6 -7776.48 -7.41172 
286 1 7.22058 4.71668 2.86381 6.02092 -176820 -129191 5685.08 713.123 9860.28 -19889.1 -7.41238 
287 1 6.47929 3.50791 2.85796 6.01919 -162471 -142828 -2748.19 15369.8 4670.22 -10571.8 -7.41158 
288 1 7.15407 2.26082 2.85861 6.02159 -164717 -141202 3360.1 6961.61 7183.42 -17930 -7.41206 
289 1 6.41202 1.05247 2.85425 6.02101 -155753 -149747 -552.057 19754.3 -1630.6 -12929.1 -7.41162 
351 1 8.76718 9.59273 2.88512 6.00663 -186075 -117174 -9285.08 -2327.26 15277.2 -3424.63 -7.41201 
352 1 9.44265 8.34575 2.88352 6.01152 -196679 -108658 12610.1 -7535.83 10544.6 -25420.3 -7.41348 
353 1 8.70325 7.13584 2.87662 6.01125 -177221 -126306 -9156.53 10882.9 10161.8 -7285.53 -7.41173 
354 1 9.37838 5.8888 2.87594 6.0168 -185085 -120836 10890 3765.98 11339.5 -23894.7 -7.41313 
355 1 8.63787 4.6795 2.86954 6.01644 -168846 -135503 -6970.09 21740.2 4343.41 -10747.1 -7.41164 
356 1 9.31284 3.43248 2.87013 6.01927 -172412 -133735 7302.07 12412.6 10222.3 -21783 -7.4127 
357 1 8.5714 2.2237 2.86481 6.01911 -160453 -144468 -3357.41 28747.6 -1698.09 -13792 -7.41174 
358 1 9.24646 0.97682 2.86695 6.01532 -158656 -146964 2586.9 16902.7 7098.08 -19071.4 -7.41227 
1597 2 0.474497 8.61153 6.53619 6.02091 -141506 -164237 5684.63 20958.5 22154.6 1405.13 -7.41238 
1598 2 0.539971 6.15678 6.54701 6.02385 -143924 -161853 2462.9 12367.8 16747.7 503.122 -7.41181 
1599 2 0.606826 3.702 6.55528 6.02623 -147176 -158921 844.887 5213.78 10330.9 -493.295 -7.41144 
1600 2 0.674634 1.24715 6.55981 6.02894 -150910 -155050 345.036 1190.28 3437.54 -1450.17 -7.41127 
1601 2 1.50363e-05 -4.80881e-06 6.56059 6.03118 -152966 -152921 322.593 -48.3743 -0.418537 0.191032 -7.41125 
1662 2 2.56914 9.89639 6.52845 6.01613 -127520 -177645 6530.54 25925.1 23708.1 1485.73 -7.41266 
1663 2 1.89198 8.65061 6.5352 6.01506 -149919 -154698 -3904.03 18008.2 12163.1 -5514.79 -7.41172 
1664 2 2.63365 7.44225 6.53965 6.02022 -132457 -173099 2642.1 16923.3 18881.9 -795.124 -7.41204 
1665 2 1.95741 6.19599 6.54575 6.01971 -151140 -154453 -835.949 8674.33 11456.2 -5750.68 -7.41161 
1666 2 2.69968 4.98794 6.549 6.02234 -138423 -167302 639.093 8781.59 13002.3 -3153.92 -7.41161 
1667 2 2.02423 3.74127 6.55384 6.02418 -151906 -153924 417.579 1031.58 8728 -5803.62 -7.41146 
1668 2 2.7669 2.53341 6.55529 6.0246 -145335 -160547 75.1627 2760.85 6425.16 -5387.21 -7.41138 
1669 2 2.09202 1.28642 6.55827 6.02857 -152593 -153356 510.015 -3433.47 3879.91 -5642.03 -7.41133 
1670 2 2.83477 0.0785924 6.55751 6.02677 -152893 -153139 382.695 476.853 -105.635 -7276.35 -7.41135 
1731 2 3.98672 9.93512 6.52621 6.01061 -136643 -167736 -3388.64 18498.6 12173.6 -11877.2 -7.41206 
1732 2 4.72837 8.72676 6.53003 6.01727 -119515 -185373 1071.15 19683.7 19704.5 -673.768 -7.41221 
1733 2 4.05117 7.48109 6.53685 6.01568 -140915 -164488 186.151 7923.2 12570.9 -11988.8 -7.41197 
1734 2 4.79339 6.27301 6.53968 6.01973 -127628 -177504 -1000.03 10336.1 14360.1 -4182.72 -7.41177 
1735 2 4.11715 5.02682 6.54574 6.02136 -144869 -160907 1650.03 -1503.13 11221.7 -11797.2 -7.4118 
1736 2 4.85976 3.81891 6.54704 6.02129 -136949 -168467 -1280.48 2527.78 8248.89 -7575.64 -7.41153 
1737 2 4.18432 2.57227 6.55172 6.02585 -148803 -157064 1511.31 -8319.78 7753 -11234.6 -7.4116 
1738 2 4.92705 1.3644 6.55104 6.02216 -147228 -158495 -316.969 -2085.13 1923.57 -10585.4 -7.41149 
1739 2 4.25215 0.11744 6.55384 6.02428 -152857 -153149 514.842 -10934.9 2373.24 -10255.4 -7.41146 
1800 2 6.82423 10.0101 6.51925 6.01498 -106685 -197362 -2647.19 21391.5 19481.2 492.875 -7.41228 
1801 2 6.14598 8.76504 6.52616 6.01222 -129385 -175887 3042.56 6706.96 12933 -17509.8 -7.41252 
1802 2 6.88808 7.55688 6.52854 6.0184 -116390 -187976 -4606.23 10653.1 14654.9 -3830.51 -7.41186 
1803 2 6.21092 6.31126 6.53513 6.01858 -136040 -169716 4457.1 -4681.12 13017.1 -17054.9 -7.41233 
1804 2 6.95341 5.10326 6.53627 6.01827 -127323 -177349 -4388.36 1020.45 9004.81 -8060.77 -7.41164 
1805 2 6.27722 3.85709 6.54199 6.02342 -142541 -163216 3871.99 -13820.7 11145.3 -16164.5 -7.41207 
1806 2 7.01988 2.64914 6.54144 6.01809 -139339 -165845 -2512.5 -5985.41 2990.64 -11962.2 -7.41162 
1807 2 6.34445 1.40252 6.54573 6.02215 -149206 -156662 1931.85 -19182.5 7193.97 -14798.2 -7.4118 
1808 2 7.08697 0.194456 6.54325 6.01875 -152036 -153660 339.805 -8811.11 -2686.07 -15295.6 -7.41178 
1869 2 8.24194 10.0477 6.51476 6.00925 -118054 -187583 8064.9 5877.35 12483.4 -22107.9 -7.41325 
1870 2 8.98385 8.83941 6.51669 6.0178 -105882 -197487 -10418.8 10586.2 14145.5 -2574.24 -7.41183 
1871 2 8.30569 7.59437 6.52324 6.01617 -126900 -179106 9232.74 -7509.06 14034.5 -21402.6 -7.41306 
1872 2 9.04799 6.38624 6.52423 6.01633 -117638 -185976 -9630.65 -1054.59 8956.09 -7298.36 -7.41165 
1873 2 8.37094 5.14059 6.53034 6.01999 -135369 -170502 8025.84 -19162 13824.2 -20193.3 -7.41273 
1874 2 9.11345 3.93251 6.52998 6.01409 -130664 -173559 -6727.7 -10548.4 3255.43 -11743.9 -7.41169 
1875 2 8.43733 2.68633 6.53513 6.01922 -143727 -161990 4995.88 -27323.6 11517.8 -18523.1 -7.41235 
1876 2 9.17979 1.47818 6.53309 6.01356 -144473 -160458 -2384.92 -16114.4 -2356.57 -15715.4 -7.41191 
1877 2 8.50435 0.231575 6.53684 6.0193 -152051 -153199 914.126 -30719.7 7262.75 -16390.5 -7.41199 
420 1 11.5984 9.51984 2.89538 6.00786 -203504 -102195 20946.5 -6205.48 9934.03 -28082.6 -7.41445 
421 1 10.8599 8.30937 2.8887 6.00875 -184316 -117823 -16672.6 13991.2 8950.92 -6007.69 -7.4116 
422 1 11.5354 7.06245 2.88837 6.0133 -192045 -114125 18297.6 7081.65 12304.8 -26602.6 -7.41406 
423 1 10.7957 5.85262 2.88185 6.01377 -174757 -128219 -13415.1 27374.8 3467.22 -9859.65 -7.41159 
424 1 11.4709 4.60572 2.88243 6.01656 -179297 -126943 13346.7 18205.2 12803.5 -24445 -7.41352 
425 1 10.7301 3.39645 2.87662 6.0176 -165615 -138340 -8286.11 37177 -2349.46 -13299.1 -7.41176 
426 1 11.4054 2.14966 2.8784 6.01234 -165562 -140325 6833.94 25375.3 11160.2 -21745.8 -7.41294 
427 1 10.6638 0.940861 2.8738 6.01708 -156417 -148230 -2079 41941.1 -7886.32 -16348.8 -7.41211 
489 1 13.0157 9.48434 2.90025 6.00793 -189376 -111464 -26238 15779.9 7423.94 -4201.98 -7.41133 
490 1 13.6916 8.23762 2.9003 6.01086 -196453 -110324 27815.2 10106 12563.3 -27643 -7.41512 
491 1 12.9526 7.02728 2.894 6.0125 -179472 -122294 -22029.2 31627.6 2329.36 -8248.74 -7.41139 
492 1 13.6283 5.78056 2.89459 6.01388 -184703 -122162 21582.7 23745.1 14767.8 -25677.5 -7.4145 
493 1 12.8882 4.57081 2.88868 6.0168 -169918 -132685 -15433.4 44218.1 -3271.06 -11864.7 -7.41166 
494 1 13.5637 3.32416 2.89012 6.00982 -171676 -134528 13301.2 33791.4 14722.5 -23144.4 -7.41377 
495 1 12.8227 2.11492 2.88512 6.01571 -160684 -143016 -7292.39 52147 -8793.64 -15107.9 -7.4121 
496 1 13.4984 0.868434 2.88764 6.00622 -157915 -147401 3892.39 38772.6 12394.3 -20175.3 -7.41303 
558 1 15.8472 9.41414 2.91101 6.00987 -197455 -110259 38864 12226.5 11883.9 -26507.1 -7.41625 
559 1 15.1089 8.20338 2.90524 6.01296 -181735 -118732 -32432.1 33765.3 1111.19 -6106.14 -7.41105 
560 1 15.785 6.9569 2.90586 6.01197 -187269 -120345 31701.4 28277 15867.7 -25036.5 -7.41558 
561 1 15.0456 5.74673 2.90017 6.01722 -172778 -128878 -24602.6 49305 -4206.58 -9715.08 -7.4114 
562 1 15.7215 4.50027 2.90129 6.00778 -175871 -131073 21888.5 41373.7 17546.2 -22909.7 -7.41474 
563 1 14.981 3.29061 2.89622 6.01412 -164108 -138580 -14690.5 60369.1 -9681.29 -12950.7 -7.41194 
564 1 15.6569 2.04425 2.89813 6.00352 -163385 -142167 10456.4 49578.4 16691.4 -20360.5 -7.41382 
565 1 14.9157 0.835003 2.89411 6.00877 -155560 -147987 -3670.51 65588.6 -14656.8 -15883.5 -7.41263 
627 1 17.2645 9.38067 2.91489 6.0151 -180807 -118402 -43792.6 33027.4 -41.4798 -3682.66 -7.41061 
628 1 17.9413 8.13452 2.91555 6.0113 -186297 -122296 42858.2 30813.2 15873.4 -22089.7 -7.41668 
629 1 17.2023 6.924 2.91038 6.01755 -173008 -127727 -35220.4 51249.1 -4961.36 -7032.33 -7.41102 
630 1 17.8788 5.67781 2.91118 6.00601 -177186 -130663 32043.5 46920.2 19342.8 -20610.3 -7.41577 
631 1 17.1388 4.46779 2.90636 6.01318 -165607 -136259 -23917 65617.1 -10293.5 -10043.8 -7.41164 
632 1 17.8151 3.22161 2.90764 6.00188 -166947 -139381 19007.2 58544.1 20123.4 -18676.5 -7.41472 
633 1 17.0743 2.01201 2.90364 6.00674 -158300 -144369 -10990.8 74345.6 -15420.9 -12767.8 -7.41243 
634 1 17.7506 0.765943 2.90565 5.99911 -156182 -148726 4876.49 63920.2 18294.2 -16437.7 -7.41366 
695 1 19.4197 10.5588 2.92239 6.01861 -175764 -122174 -54764.1 28806.6 -928.66 -1435.06 -7.41012 
697 1 19.3586 8.10229 2.91867 6.01892 -169833 -129684 -46232.6 49313.1 -5340.1 -4159.28 -7.41056 
699 1 19.2961 5.64616 2.91485 6.01246 -164370 -136754 -34206.7 66775.5 -10410.2 -6644.28 -7.41122 
701 1 19.2324 3.19036 2.91179 6.00573 -159122 -143127 -19935.5 79011.8 -15568.4 -8903.22 -7.41208 
703 1 19.168 0.734853 2.9102 6.00077 -154069 -149199 -4559.29 84656.4 -20141.8 -10983.5 -7.41308 
1938 2 11.0807 10.1206 6.50502 6.01771 -97464.1 -205040 -18393.6 10519.3 12949.4 -823.99 -7.41165 
1939 2 10.4015 8.87611 6.51106 6.01352 -118480 -188045 16199.9 -9378.46 14206.2 -24660.9 -7.41394 
1940 2 11.1435 7.66776 6.51193 6.01448 -109382 -193072 -17097.8 -3068.68 8311.96 -5785.08 -7.41153 
1941 2 10.4656 6.42265 6.51792 6.01634 -128259 -177819 14288.8 -23465.7 15697.6 -23221.7 -7.41358 
1942 2 11.2079 5.21438 6.51778 6.01109 -122434 -180432 -13188 -15017.2 2955.62 -10475.8 -7.41163 
1943 2 10.531 3.96868 6.52322 6.01463 -137759 -167793 10088.7 -34510.2 15118.9 -21315.1 -7.41309 
1944 2 11.2733 2.76038 6.5217 6.00929 -136523 -167302 -7336.25 -23664.3 -2567.55 -14756.1 -7.41192 
1945 2 10.5972 1.51418 6.52615 6.01511 -147063 -157994 4343.22 -41078.1 12383.6 -19018.2 -7.41257 
1946 2 11.3393 0.305704 6.52306 6.0096 -151045 -153671 -364.673 -27331.4 -7542.68 -18523 -7.41238 
2007 2 12.4984 10.1565 6.49941 6.011 -111914 -195345 25267.5 -9655.24 13336.9 -26463.9 -7.41495 
2008 2 13.24 8.94787 6.50019 6.01407 -103506 -197746 -26588.1 -4461.47 7158.99 -3850.1 -7.41127 
2009 2 12.5612 7.70327 6.50563 6.01349 -122481 -184118 22749.8 -26137.3 16623.4 -25004.3 -7.41457 
2010 2 13.3031 6.49474 6.50573 6.00951 -115878 -185561 -21833.7 -18957.5 2251.61 -8570.6 -7.41143 
2011 2 12.6254 5.24952 6.51101 6.01068 -132424 -173334 17420.4 -40075.5 17843.3 -23016 -7.414 
2012 2 13.3675 4.041 6.51006 6.0063 -129520 -172982 -14585.1 -30613.6 -3100.64 -12904.5 -7.4118 
2013 2 12.6908 2.79523 6.51472 6.00992 -142002 -162922 10038.4 -49900.1 16750.9 -20667.5 -7.41334 
2014 2 13.4328 1.58662 6.51242 6.00507 -143547 -160067 -5707.01 -37650.1 -8254.35 -16774.8 -7.41235 
2015 2 12.7567 0.340424 6.51609 6.01162 -151357 -152795 1496.85 -54127.4 13538.1 -18030.7 -7.41268 
2076 2 15.3374 10.2267 6.48971 6.01557 -101232 -198815 -37516 -4926 5579.64 -1729.24 -7.41087 
2077 2 14.6578 8.98257 6.49421 6.01182 -118915 -188576 33094.8 -26561.6 16321.4 -25107.4 -7.41567 
2078 2 15.3992 7.77371 6.49458 6.00977 -112232 -187942 -32278.4 -21593.6 1242.57 -6263.11 -7.41108 
2079 2 14.7207 6.52891 6.4993 6.00787 -128688 -177507 26885 -43266.7 19444.6 -23267.1 -7.41505 
2080 2 15.4625 5.32012 6.49895 6.0051 -124529 -176593 -23910.2 -36280.7 -3807.6 -10443.8 -7.41152 
2081 2 14.785 4.07475 6.50341 6.0057 -138063 -167154 18043.4 -56381.9 20125.2 -21047.3 -7.41427 
2082 2 15.5269 2.86594 6.50198 6.0022 -137510 -165031 -13358.2 -46830.3 -9002.7 -14179.8 -7.41215 
2083 2 14.8502 1.62011 6.50576 6.00592 -146846 -157320 7539.1 -64185.9 18378 -18573.6 -7.41343 
2084 2 15.5919 0.411148 6.50303 6.00161 -150572 -153436 -1597.59 -51499.2 -13594 -17465.4 -7.41294 
2145 2 16.7551 10.2608 6.48436 6.01178 -118553 -189675 44466 -24311.5 14492.6 -23123.6 -7.4168 
2146 2 17.496 9.05152 6.485 6.01191 -112460 -186348 -43685.8 -22426 93.6479 -3790.87 -7.41062 
2147 2 16.8169 7.80706 6.48879 6.00663 -127634 -179398 37895.8 -43340.8 19579.1 -21624.1 -7.41617 
2148 2 17.5581 6.59792 6.48907 6.00614 -122696 -177206 -34714.2 -39805.3 -4540.69 -7567.42 -7.41111 
2149 2 16.88 5.3529 6.49296 6.00303 -136102 -169679 28004.8 -59615.9 22173.2 -19734.1 -7.41531 
2150 2 17.6216 4.14381 6.49244 6.00156 -133718 -167611 -22913.1 -53833.8 -9613.38 -10947.3 -7.4118 
2151 2 16.9443 2.89832 6.49598 6.0016 -143955 -160673 15873.6 -71134.5 22089.4 -17594.3 -7.41434 
2152 2 17.6859 1.68919 6.49436 5.99911 -144973 -157979 -9390.65 -62326.2 -14484.3 -13888 -7.41267 
2153 2 17.0093 0.443347 6.49721 6.0028 -151264 -152368 2565.31 -76237.6 19617.9 -15270.7 -7.41334 
2215 2 18.9137 9.08429 6.48014 6.00748 -130085 -177819 49305.2 -39824.1 17971 -17826.8 -7.41727 
2217 2 18.9757 6.62996 6.48403 6.0024 -137137 -169611 39061.6 -58791.7 22537.5 -16390.5 -7.41639 
2219 2 19.0391 4.17531 6.48742 5.99927 -143292 -161960 25886.8 -73812.4 24298.9 -14737.7 -7.41532 
2221 2 19.1033 1.72036 6.48951 5.99862 -148873 -155259 11002.6 -82768.3 23320.8 -12926.4 -7.41419 
696 1 20.0972 9.31304 2.92306 6.01216 -180991 -128295 53678.7 30739.4 14697.2 -16733 -7.41769 
698 1 20.0357 6.85644 2.91915 6.00532 -174837 -133743 42697.7 49372.9 19894.4 -16029.7 -7.41677 
700 1 19.9729 4.40023 2.9155 6.00002 -167523 -139820 28769.4 64319.1 22380.1 -14857 -7.41566 
702 1 19.909 1.94443 2.91293 5.99766 -159399 -146167 13181 73458.3 22003.3 -13400.1 -7.41447 
764 1 22.2531 10.492 2.92799 6.01455 -170947 -138565 62455.4 27400.6 12428.9 -9369.78 -7.41848 
765 1 21.5147 9.28115 2.92458 6.02031 -162698 -135472 -56132.6 43038 -5117.1 -1648.43 -7.4101 
766 1 22.1925 8.0357 2.92472 6.00582 -168459 -140494 52361.8 48005.3 19141.9 -9399.45 -7.41764 
767 1 21.4531 6.82529 2.92115 6.01276 -159635 -140327 -44343.6 63034.2 -9817.04 -3234.24 -7.41076 
768 1 22.1304 5.57967 2.92116 5.99947 -164599 -143332 38531.3 65877.5 23261.5 -9014.03 -7.41653 
769 1 21.3902 4.36963 2.91796 6.00546 -156984 -144626 -29571.6 78687.5 -14877.4 -4708.02 -7.41163 
770 1 22.0671 3.12389 2.91821 5.99611 -159747 -146804 22363.6 78573.2 24413.2 -8383.75 -7.41527 
771 1 21.3263 1.91414 2.91583 6.00009 -154534 -148440 -13130.8 88022.4 -19696.2 -6097.82 -7.41267 
772 1 22.0031 0.668387 2.91661 5.99588 -154240 -150426 5100.13 84469.7 22801.2 -7588.87 -7.414 
833 1 23.6706 10.46 2.92788 6.02193 -151369 -145387 -63216.4 32775.5 -4086.97 -94.4618 -7.40974 
834 1 24.3493 9.21504 2.92765 6.00774 -158063 -150919 59397.2 42526 17194.4 -1407.87 -7.41824 
835 1 23.6099 8.00464 2.92493 6.01312 -151180 -147387 -52788.2 54239.5 -8327.65 -449.443 -7.41033 
836 1 24.2879 6.75939 2.92429 6.00062 -157892 -150101 46816.5 62515.2 22738 -1706.77 -7.41722 
837 1 23.5478 5.5493 2.92175 6.00557 -151517 -149118 -38602.5 72655.2 -13178.7 -817.211 -7.41116 
838 1 24.2252 4.30382 2.92109 5.99625 -156656 -150290 31155.9 78349.1 25360.6 -1843.12 -7.41598 
839 1 23.4845 3.094 2.9192 6.00013 -152087 -150443 -22078.1 85585.1 -18108.6 -1232.15 -7.41218 
840 1 24.1615 1.84837 2.91891 5.99506 -154693 -150861 13798.1 88044.6 25025.4 -1898.04 -7.41467 
841 1 23.4205 0.638688 2.91801 5.99699 -152568 -151166 -4427.66 91454.5 -22426.1 -1714.44 -7.41335 
902 1 26.5063 10.3939 2.92804 6.01076 -144672 -164295 62386.1 33249.7 14291 6985.72 -7.41847 
903 1 25.7668 9.18363 2.92616 6.01442 -139228 -158113 -57995.1 41158.2 -5847.9 1142.14 -7.41003 
904 1 26.4455 7.9388 2.92488 6.00331 -148073 -159943 52169.5 54395.1 20941.6 6204.16 -7.41762 
905 1 25.7054 6.7288 2.92302 6.00677 -142557 -156846 -45572.3 61253.2 -10395.3 2092.86 -7.41075 
906 1 26.3833 5.48362 2.92148 5.9982 -150419 -156580 38182.9 72635.3 24858.2 5442.58 -7.41649 
907 1 25.6426 4.27384 2.92013 6.00082 -146286 -155182 -30097.6 77111.9 -15313.5 2874.67 -7.41169 
908 1 26.32 3.02838 2.91876 5.99598 -151857 -154038 21832.9 85508.8 25778.6 4666.03 -7.41523 
909 1 25.5789 1.81873 2.91831 5.99731 -150183 -153270 -12910.7 86657.2 -20003.1 3449.45 -7.41279 
910 1 26.2559 0.5731 2.91744 5.99622 -152710 -151889 4349.03 91470.2 24002.7 3865.09 -7.41394 
971 1 27.924 10.3617 2.92513 6.01649 -125105 -171916 -58805.1 25370.1 -2433.19 1246.42 -7.40995 
972 1 28.6034 9.11733 2.92321 6.00714 -136072 -172141 53487.2 42445.5 18133.9 13786.2 -7.41767 
973 1 27.8631 7.90755 2.92196 6.00911 -130953 -167596 -49186.5 45727 -6585.21 3538.59 -7.41048 
974 1 28.5416 6.6627 2.91958 6.00158 -141637 -165414 42231.2 61967.3 23073.6 12595.3 -7.41673 
975 1 27.8008 5.45309 2.9187 6.00297 -137590 -162776 -35891.5 63428.7 -11383.1 5593.38 -7.41127 
976 1 28.4785 4.20784 2.91632 5.99815 -146255 -159533 27974.3 77340.5 25134.2 11266.1 -7.41559 
977 1 27.7374 2.99832 2.91624 5.99887 -144546 -157838 -20253.3 76074.5 -16298.6 7331.21 -7.41224 
978 1 28.4145 1.75277 2.91425 5.99707 -150294 -154617 12003.3 86648.7 24372.2 9823.19 -7.41438 
979 1 27.6733 0.543259 2.91526 5.9965 -151456 -152894 -3433.02 81775.8 -20604.6 8749.63 -7.41337 
2214 2 19.5933 10.3286 6.47756 6.01546 -117391 -180092 -54703.3 -20911.3 -892.541 -1553.61 -7.41013 
2216 2 19.6543 7.87474 6.48103 6.00878 -124856 -173817 -45918.6 -40511.1 -5054.18 -4591.21 -7.41061 
2218 2 19.7168 5.42055 6.48446 6.00322 -133376 -166972 -33556.6 -57585 -9884.69 -7338.64 -7.41133 
2220 2 19.7804 2.96596 6.48699 5.99915 -142188 -159823 -18872.9 -69876.2 -14846.9 -9709.04 -7.41224 
2222 2 19.8446 0.51096 6.48796 5.99727 -151015 -152906 -2992.27 -75436.1 -19200.7 -11705.2 -7.4133 
2283 2 21.0109 10.361 6.47385 6.01055 -136646 -172149 59498.5 -32664.2 14618.8 -12004.7 -7.4182 
2284 2 21.7508 9.15104 6.4753 6.01312 -131490 -166066 -55989.3 -37822.4 -5005.55 -2017.56 -7.41012 
2285 2 21.0719 7.90636 6.47719 6.00368 -141750 -166003 49848.3 -53529.2 21016.9 -11003.2 -7.41739 
2286 2 21.8123 6.69656 6.47854 6.00596 -136852 -162544 -44023.3 -57442.5 -9538.56 -3809.18 -7.41081 
2287 2 21.1343 5.45147 6.48068 5.99905 -145982 -160573 36493.1 -71483.1 24691.8 -9899.19 -7.4163 
2288 2 21.8752 4.24184 6.48146 6.00054 -142676 -158575 -29028.5 -73050.4 -14459.5 -5350.62 -7.41172 
2289 2 21.1978 2.99641 6.48341 5.99686 -149352 -155799 20787.4 -84217.5 25415.5 -8704.15 -7.41508 
2290 2 21.9389 1.78685 6.48325 5.99726 -148619 -154378 -12312.3 -82538.9 -19161.3 -6600.85 -7.41279 
2291 2 21.262 0.541199 6.48468 5.99705 -152156 -151953 3936.87 -89966.4 23503.4 -7430.3 -7.41384 
2352 2 23.8473 10.4273 6.47211 6.01959 -142349 -154316 -63192.4 -31522.2 -4078.61 -391.935 -7.40974 
2353 2 23.1684 9.18259 6.47283 6.00698 -150250 -158570 58682.5 -43889.5 17731.6 -3978.49 -7.41817 
2354 2 23.908 7.97238 6.47502 6.01117 -144238 -154243 -52725.6 -52820.7 -8275.1 -946.878 -7.41034 
2355 2 23.2298 6.72729 6.47619 6.0003 -152111 -155627 46223.4 -63946 23171.8 -3362.34 -7.41716 
2356 2 23.9701 5.51734 6.47814 6.00406 -146793 -153704 -38489.4 -71179.4 -13084.4 -1406.36 -7.41118 
2357 2 23.2926 4.27196 6.47935 5.99645 -152929 -153488 30685.8 -79822.7 25675.6 -2801.31 -7.41593 
2358 2 24.0334 3.06221 6.48061 5.99905 -149552 -152834 -21902.6 -84187.6 -17981.9 -1720.12 -7.41221 
2359 2 23.3563 1.81663 6.48147 5.99563 -153038 -152125 13443.1 -89447.2 25243.6 -2249.53 -7.41462 
2360 2 24.0974 0.606974 6.48171 5.99653 -152156 -151777 -4171.63 -90042.5 -22266.3 -1873.19 -7.41339 
2421 2 25.2649 10.4592 6.47102 6.01279 -162108 -147442 63915.1 -30567.2 13157.2 3931.78 -7.41862 
2422 2 26.0037 9.24856 6.47391 6.01868 -155179 -142796 -58074.3 -43840.7 -5907.26 744.135 -7.41002 
2423 2 25.3255 8.00334 6.47416 6.00437 -161570 -147200 53469.5 -51631.9 19970.2 4226.51 -7.41775 
2424 2 26.0651 6.79304 6.47714 6.01023 -154219 -145552 -45741.7 -64087 -10543 1527.15 -7.41072 
2425 2 25.3876 5.54758 6.47759 5.99842 -159852 -147792 39235.9 -69760.8 24117.6 4236.22 -7.41661 
2426 2 26.1279 4.3376 6.48017 6.00346 -153620 -147950 -30381.5 -79957.2 -15533.8 2291.4 -7.41164 
2427 2 25.4508 3.09198 6.48042 5.99536 -157117 -149186 22645.9 -82684.9 25259.5 4086.66 -7.41532 
2428 2 26.1917 1.88222 6.48216 5.99888 -153107 -150032 -13335.4 -89506.1 -20283.3 3066.77 -7.41273 
2429 2 25.5148 0.636539 6.48191 5.99554 -153738 -151129 4950.07 -88608.2 23637.2 3835.17 -7.41402 
2490 2 28.0991 10.5256 6.47493 6.0224 -168378 -129162 -58884.3 -31374.9 -2467.75 1034.67 -7.40993 
2491 2 27.4211 9.28015 6.47445 6.01097 -173771 -135627 56829.2 -35778.1 15629.8 11997.1 -7.418 
2492 2 28.1599 8.06948 6.47829 6.01718 -164275 -135007 -49452.1 -52460.8 -6819.82 3067.15 -7.41044 
2493 2 27.4825 6.82383 6.47809 6.00323 -169598 -139069 45007.2 -55080.2 21051.6 11627.3 -7.41702 
2494 2 28.2223 5.61359 6.48183 6.01015 -160465 -140460 -36404.6 -70333.7 -11806.4 4940.51 -7.41118 
2495 2 27.5453 4.36782 6.48153 5.9981 -164110 -143162 30172.8 -70457 23666.5 10881.4 -7.41584 
2496 2 28.2858 3.15793 6.48467 6.00355 -156963 -145398 -21072.1 -82969.3 -16871.6 6668.3 -7.41212 
2497 2 27.609 1.91212 6.48395 5.99612 -157900 -147894 13663.7 -79817.7 23358.7 9912.29 -7.41459 
2498 2 28.35 0.702488 6.48611 5.99888 -153612 -149939 -4630.57 -88637.3 -21338.7 8288.2 -7.41319 
1040 1 30.7616 10.2946 2.91985 6.01076 -123484 -185026 50295.4 28040.5 14708 20205.5 -7.41735 
1041 1 30.021 9.08508 2.91902 6.01182 -117924 -180419 -48634.2 28204.1 -1949.46 3378.3 -7.41043 
1042 1 30.7001 7.84058 2.91586 6.00521 -131513 -175837 42517.5 47825.8 20310 18833.9 -7.41665 
1043 1 29.9592 6.63122 2.91531 6.00585 -126852 -172819 -38445.4 46408.7 -6525.99 6606.22 -7.41099 
1044 1 30.6373 5.38621 2.91198 6.00127 -138811 -167084 31265.6 64757.4 23310.3 17152.4 -7.4157 
1045 1 29.896 4.17693 2.91215 6.00109 -136371 -164862 -25342.5 61087.1 -11527.6 9467.87 -7.41178 
1046 1 30.5733 2.93148 2.9091 5.99949 -145414 -159371 17726.5 76695.8 23522 15263.3 -7.41463 
1047 1 29.8319 1.7222 2.91031 5.99814 -146194 -157173 -10509 70057 -16325.1 11920.2 -7.41273 
1048 1 30.5086 0.47644 2.90788 6.00037 -151552 -152573 3017.39 82120.9 21256.8 13216.7 -7.41354 
1109 1 32.1793 10.2611 2.91489 6.01508 -105390 -193820 -43792.9 10530.2 3210.64 1805.01 -7.41061 
1110 1 32.859 9.01697 2.91101 6.00983 -121419 -186256 38864.4 31738.4 17013.2 23545.2 -7.41625 
1111 1 32.1178 7.8079 2.91057 6.00914 -115480 -184160 -37257.1 28168 -1045.38 5968.06 -7.41092 
1112 1 32.7963 6.56314 2.90639 6.00557 -130660 -175674 31204.8 49247.4 20658 21766.2 -7.41553 
1113 1 32.0548 5.35414 2.90658 6.004 -126821 -173900 -27424.5 43718.1 -6006.29 9782.22 -7.41146 
1114 1 32.7324 4.10884 2.90257 6.00317 -139271 -165789 20802.6 63038.8 21721.9 19651.9 -7.41465 
1115 1 31.9907 2.89984 2.90376 6.00067 -138692 -163544 -15350.3 54936.8 -11112.4 13157.4 -7.4122 
1116 1 32.6676 1.65411 2.90033 6.00313 -147360 -156835 8715.71 71240.3 20249.9 17314.5 -7.4137 
1117 1 31.926 0.444991 2.90276 5.99961 -150664 -153490 -2060.01 59938.1 -15612.7 16098.3 -7.41309 
1178 1 35.0181 10.1918 2.90586 6.01199 -112739 -194980 31701.7 14945.9 13748.6 26260.2 -7.41558 
1179 1 34.2767 8.98296 2.90524 6.01294 -105144 -195289 -32432.8 10433.8 4732.54 4014.75 -7.41105 
1180 1 34.9557 7.73844 2.9003 6.01084 -123060 -183709 27815.2 32351.3 17657.5 24701.6 -7.41512 
1181 1 34.214 6.52973 2.90025 6.00786 -117207 -183631 -26238.9 25858.9 -73.4916 8530.11 -7.41132 
1182 1 34.8918 5.2846 2.89538 6.00783 -132897 -172865 20946.7 47023.3 19353.6 22644.4 -7.41445 
1183 1 34.1499 4.0759 2.8963 6.00424 -130333 -171628 -17429.5 38228.6 -5324.4 12640.8 -7.41181 
1184 1 34.8269 2.83024 2.89195 6.00693 -142218 -162314 11956.2 57429.4 18619.1 20264.6 -7.41368 
1185 1 34.085 1.62145 2.89412 6.00268 -143820 -159427 -6947.36 45887.5 -10371.9 16290.1 -7.41247 
1186 1 34.7613 0.375383 2.89065 6.00853 -151133 -152652 1793.43 61915.7 15679.8 17641.1 -7.41291 
1247 1 36.4359 10.1565 2.90017 6.01722 -97266.2 -204390 -24602.7 -5668.23 10517.3 1214.57 -7.41141 
1248 1 37.1152 8.91214 2.89459 6.01387 -117242 -189520 21582.7 15219.9 14853.4 25628.8 -7.4145 
1249 1 36.3734 7.70365 2.894 6.0125 -109103 -192537 -22030.1 8893.32 5979.07 6141.47 -7.41139 
1250 1 37.0515 6.45868 2.88837 6.01329 -127455 -178735 18297.2 30180.9 16885.7 23958.1 -7.41406 
1251 1 36.3094 5.25026 2.88871 6.0087 -122287 -179930 -16673.4 21708.7 726.744 10755.8 -7.4116 
1252 1 36.9865 4.00469 2.88353 6.01152 -137208 -168110 12610 41910 16742.5 21842 -7.41348 
1253 1 36.2443 2.79622 2.88513 6.00665 -136415 -166789 -9284.94 30951.1 -4673.46 14943.1 -7.41201 
1254 1 36.9206 1.55016 2.88083 6.01203 -146746 -157785 5329.87 48885.3 14369.5 19388.1 -7.41286 
1255 1 36.1787 0.341519 2.88389 6.00675 -150665 -153538 -736.927 34992.8 -9494.9 18643.4 -7.41258 
1317 1 38.5329 8.87608 2.88868 6.01687 -103677 -198885 -15433.9 -6063.86 11910.9 3099.59 -7.41166 
1319 1 38.4691 6.42299 2.88185 6.01381 -116081 -186845 -13415.7 6482.3 6805.55 7932.1 -7.41159 
1320 1 39.1464 5.1775 2.87594 6.0168 -133599 -172319 10889.3 25995.8 15023.7 21767.5 -7.41313 
1321 1 38.404 3.9693 2.87662 6.01126 -129596 -174001 -9156.92 16577.6 1228.61 12443.3 -7.41173 
1322 1 39.0804 2.72327 2.87155 6.01614 -142770 -162691 6530.59 34682.3 13141 19788.6 -7.41267 
1323 1 38.338 1.51497 2.87379 6.01061 -143933 -160426 -3388.17 22595.2 -4199.69 16481.9 -7.41206 
1324 1 39.0137 0.268508 2.86997 6.01731 -151736 -152947 1071.82 38305 9268.4 17402.1 -7.41221 
2559 2 29.5165 10.5581 6.47666 6.01354 -187178 -121942 55460.1 -18218.6 10878.9 19026.1 -7.41783 
2560 2 30.2545 9.34711 6.48113 6.01814 -175721 -123115 -48799.1 -37455.6 -2109.87 3151.86 -7.4104 
2561 2 29.5773 8.10119 6.48053 6.00951 -181077 -127742 46911.8 -37405.5 17040 18517.2 -7.41709 
2562 2 30.3164 6.89067 6.4852 6.01667 -169243 -131107 -38943.9 -56451.5 -6956.31 6037.22 -7.41091 
2563 2 29.6396 5.64466 6.48456 6.00348 -173414 -134555 34836.7 -54126.4 20813.2 17367.8 -7.41609 
2564 2 30.3796 4.43461 6.4889 6.01038 -163161 -138722 -26258.1 -71305.6 -12192.9 8647.72 -7.41163 
2565 2 29.7031 3.18859 6.48787 5.99949 -164786 -141854 20492.6 -66207 21779 15822.2 -7.41496 
2566 2 30.4439 1.97892 6.4914 6.00408 -157148 -145598 -11933.2 -80218.2 -17205.7 11022.4 -7.41252 
2567 2 29.7674 0.732971 6.48972 5.9977 -155548 -149291 5057.52 -71793.5 20058.8 14010.8 -7.41382 
2629 2 31.6718 9.37997 6.48435 6.01175 -192980 -115218 44466.8 -18702.8 12778.9 24112.3 -7.41679 
2630 2 32.4102 8.16917 6.48971 6.01551 -178639 -121266 -37517.2 -39744.6 -1291.87 5696.45 -7.41087 
2631 2 31.7337 6.92289 6.48902 6.00952 -183911 -124137 35874.1 -35645.2 17240.5 22835.4 -7.41604 
2632 2 32.4732 5.71265 6.4943 6.01743 -170517 -130839 -28166.5 -55956.3 -6531.92 9044.59 -7.41134 
2633 2 31.797 4.46637 6.49323 6.00513 -173556 -133668 24519.4 -49414.4 19247 20947.3 -7.41509 
2634 2 32.5374 3.25662 6.49792 6.01111 -162680 -139766 -16673 -67453.8 -11898 12053.4 -7.41199 
2635 2 31.8612 2.0104 6.49618 6.00116 -162177 -143365 11530.7 -58009.8 18590.7 18677 -7.41408 
2636 2 32.6024 0.801031 6.49984 6.00585 -154996 -148197 -4071.42 -72810.1 -16726.7 14789.3 -7.41279 
2698 2 34.5036 9.44925 6.49458 6.0098 -187672 -112470 -32279 -21900.7 4803.21 4207.8 -7.41108 
2699 2 33.8274 8.20269 6.49421 6.01182 -194029 -113292 33095.3 -16924.8 13583.2 26688.5 -7.41567 
2700 2 34.5664 6.99226 6.50019 6.01409 -178174 -123088 -26589.3 -38563.2 -245.466 8124.56 -7.41127 
2701 2 33.8905 5.7457 6.49941 6.01101 -182805 -124308 25266.9 -31366.4 16250.6 24781.5 -7.41495 