(written by TR)

3176	atoms
2	atom types
0	48.9354533	xlo xhi
0	84.7586914	ylo yhi
0	15.0	zlo zhi


Masses

1	12
2	12

Atoms

1 1 1 0 0.678 83.513 3.000 0 0 0
2 1 1 0 0.616 81.058 3.000 0 0 0
3 1 1 0 0.555 78.603 3.000 0 0 0
4 1 1 0 0.493 76.148 3.000 0 0 0
5 1 1 0 0.431 73.692 3.000 0 0 0
6 1 1 0 0.370 71.237 3.000 0 0 0
7 1 1 0 0.308 68.782 3.000 0 0 0
8 1 1 0 0.247 66.327 3.000 0 0 0
9 1 1 0 0.185 63.871 3.000 0 0 0
10 1 1 0 0.123 61.416 3.000 0 0 0
11 1 1 0 0.062 58.961 3.000 0 0 0
12 1 1 0 0.000 56.506 3.000 0 0 0
13 1 1 0 2.835 84.688 3.000 0 0 0
14 1 1 0 2.095 83.478 3.000 0 0 0
15 1 1 0 2.773 82.232 3.000 0 0 0
16 1 1 0 2.034 81.022 3.000 0 0 0
17 1 1 0 2.712 79.777 3.000 0 0 0
18 1 1 0 1.972 78.567 3.000 0 0 0
19 1 1 0 2.650 77.322 3.000 0 0 0
20 1 1 0 1.911 76.112 3.000 0 0 0
21 1 1 0 2.589 74.867 3.000 0 0 0
22 1 1 0 1.849 73.657 3.000 0 0 0
23 1 1 0 2.527 72.411 3.000 0 0 0
24 1 1 0 1.787 71.202 3.000 0 0 0
25 1 1 0 2.465 69.956 3.000 0 0 0
26 1 1 0 1.726 68.746 3.000 0 0 0
27 1 1 0 2.404 67.501 3.000 0 0 0
28 1 1 0 1.664 66.291 3.000 0 0 0
29 1 1 0 2.342 65.046 3.000 0 0 0
30 1 1 0 1.602 63.836 3.000 0 0 0
31 1 1 0 2.280 62.590 3.000 0 0 0
32 1 1 0 1.541 61.381 3.000 0 0 0
33 1 1 0 2.219 60.135 3.000 0 0 0
34 1 1 0 1.479 58.925 3.000 0 0 0
35 1 1 0 2.157 57.680 3.000 0 0 0
36 1 1 0 1.418 56.470 3.000 0 0 0
37 1 1 0 2.095 55.225 3.000 0 0 0
38 1 1 0 1.356 54.015 3.000 0 0 0
39 1 1 0 2.034 52.770 3.000 0 0 0
40 1 1 0 1.294 51.560 3.000 0 0 0
41 1 1 0 1.972 50.314 3.000 0 0 0
42 1 1 0 1.233 49.105 3.000 0 0 0
43 1 1 0 1.911 47.859 3.000 0 0 0
44 1 1 0 1.171 46.649 3.000 0 0 0
45 1 1 0 1.849 45.404 3.000 0 0 0
46 1 1 0 1.109 44.194 3.000 0 0 0
47 1 1 0 1.787 42.949 3.000 0 0 0
48 1 1 0 1.048 41.739 3.000 0 0 0
49 1 1 0 1.726 40.493 3.000 0 0 0
50 1 1 0 0.986 39.284 3.000 0 0 0
51 1 1 0 1.664 38.038 3.000 0 0 0
52 1 1 0 0.924 36.828 3.000 0 0 0
53 1 1 0 1.602 35.583 3.000 0 0 0
54 1 1 0 0.863 34.373 3.000 0 0 0
55 1 1 0 1.541 33.128 3.000 0 0 0
56 1 1 0 0.801 31.918 3.000 0 0 0
57 1 1 0 1.479 30.673 3.000 0 0 0
58 1 1 0 0.740 29.463 3.000 0 0 0
59 1 1 0 1.418 28.217 3.000 0 0 0
60 1 1 0 0.678 27.007 3.000 0 0 0
61 1 1 0 1.356 25.762 3.000 0 0 0
62 1 1 0 0.616 24.552 3.000 0 0 0
63 1 1 0 1.294 23.307 3.000 0 0 0
64 1 1 0 0.555 22.097 3.000 0 0 0
65 1 1 0 1.233 20.852 3.000 0 0 0
66 1 1 0 0.493 19.642 3.000 0 0 0
67 1 1 0 1.171 18.396 3.000 0 0 0
68 1 1 0 0.431 17.187 3.000 0 0 0
69 1 1 0 1.109 15.941 3.000 0 0 0
70 1 1 0 0.370 14.731 3.000 0 0 0
71 1 1 0 1.048 13.486 3.000 0 0 0
72 1 1 0 0.308 12.276 3.000 0 0 0
73 1 1 0 0.986 11.031 3.000 0 0 0
74 1 1 0 0.247 9.821 3.000 0 0 0
75 1 1 0 0.924 8.576 3.000 0 0 0
76 1 1 0 0.185 7.366 3.000 0 0 0
77 1 1 0 0.863 6.120 3.000 0 0 0
78 1 1 0 0.123 4.910 3.000 0 0 0
79 1 1 0 0.801 3.665 3.000 0 0 0
80 1 1 0 0.062 2.455 3.000 0 0 0
81 1 1 0 0.740 1.210 3.000 0 0 0
82 1 1 0 0.000 0.000 3.000 0 0 0
83 1 1 0 4.253 84.652 3.000 0 0 0
84 1 1 0 4.931 83.407 3.000 0 0 0
85 1 1 0 4.191 82.197 3.000 0 0 0
86 1 1 0 4.869 80.951 3.000 0 0 0
87 1 1 0 4.129 79.741 3.000 0 0 0
88 1 1 0 4.807 78.496 3.000 0 0 0
89 1 1 0 4.068 77.286 3.000 0 0 0
90 1 1 0 4.746 76.041 3.000 0 0 0
91 1 1 0 4.006 74.831 3.000 0 0 0
92 1 1 0 4.684 73.586 3.000 0 0 0
93 1 1 0 3.944 72.376 3.000 0 0 0
94 1 1 0 4.622 71.130 3.000 0 0 0
95 1 1 0 3.883 69.921 3.000 0 0 0
96 1 1 0 4.561 68.675 3.000 0 0 0
97 1 1 0 3.821 67.465 3.000 0 0 0
98 1 1 0 4.499 66.220 3.000 0 0 0
99 1 1 0 3.760 65.010 3.000 0 0 0
100 1 1 0 4.437 63.765 3.000 0 0 0
101 1 1 0 3.698 62.555 3.000 0 0 0
102 1 1 0 4.376 61.309 3.000 0 0 0
103 1 1 0 3.636 60.100 3.000 0 0 0
104 1 1 0 4.314 58.854 3.000 0 0 0
105 1 1 0 3.575 57.644 3.000 0 0 0
106 1 1 0 4.253 56.399 3.000 0 0 0
107 1 1 0 3.513 55.189 3.000 0 0 0
108 1 1 0 4.191 53.944 3.000 0 0 0
109 1 1 0 3.451 52.734 3.000 0 0 0
110 1 1 0 4.129 51.489 3.000 0 0 0
111 1 1 0 3.390 50.279 3.000 0 0 0
112 1 1 0 4.068 49.033 3.000 0 0 0
113 1 1 0 3.328 47.824 3.000 0 0 0
114 1 1 0 4.006 46.578 3.000 0 0 0
115 1 1 0 3.266 45.368 3.000 0 0 0
116 1 1 0 3.944 44.123 3.000 0 0 0
117 1 1 0 3.205 42.913 3.000 0 0 0
118 1 1 0 3.883 41.668 3.000 0 0 0
119 1 1 0 3.143 40.458 3.000 0 0 0
120 1 1 0 3.821 39.212 3.000 0 0 0
121 1 1 0 3.082 38.003 3.000 0 0 0
122 1 1 0 3.760 36.757 3.000 0 0 0
123 1 1 0 3.020 35.547 3.000 0 0 0
124 1 1 0 3.698 34.302 3.000 0 0 0
125 1 1 0 2.958 33.092 3.000 0 0 0
126 1 1 0 3.636 31.847 3.000 0 0 0
127 1 1 0 2.897 30.637 3.000 0 0 0
128 1 1 0 3.575 29.392 3.000 0 0 0
129 1 1 0 2.835 28.182 3.000 0 0 0
130 1 1 0 3.513 26.936 3.000 0 0 0
131 1 1 0 2.773 25.727 3.000 0 0 0
132 1 1 0 3.451 24.481 3.000 0 0 0
133 1 1 0 2.712 23.271 3.000 0 0 0
134 1 1 0 3.390 22.026 3.000 0 0 0
135 1 1 0 2.650 20.816 3.000 0 0 0
136 1 1 0 3.328 19.571 3.000 0 0 0
137 1 1 0 2.589 18.361 3.000 0 0 0
138 1 1 0 3.266 17.115 3.000 0 0 0
139 1 1 0 2.527 15.906 3.000 0 0 0
140 1 1 0 3.205 14.660 3.000 0 0 0
141 1 1 0 2.465 13.450 3.000 0 0 0
142 1 1 0 3.143 12.205 3.000 0 0 0
143 1 1 0 2.404 10.995 3.000 0 0 0
144 1 1 0 3.082 9.750 3.000 0 0 0
145 1 1 0 2.342 8.540 3.000 0 0 0
146 1 1 0 3.020 7.295 3.000 0 0 0
147 1 1 0 2.280 6.085 3.000 0 0 0
148 1 1 0 2.958 4.839 3.000 0 0 0
149 1 1 0 2.219 3.629 3.000 0 0 0
150 1 1 0 2.897 2.384 3.000 0 0 0
151 1 1 0 2.157 1.174 3.000 0 0 0
152 1 1 0 7.088 84.581 3.000 0 0 0
153 1 1 0 6.348 83.371 3.000 0 0 0
154 1 1 0 7.026 82.126 3.000 0 0 0
155 1 1 0 6.286 80.916 3.000 0 0 0
156 1 1 0 6.964 79.670 3.000 0 0 0
157 1 1 0 6.225 78.461 3.000 0 0 0
158 1 1 0 6.903 77.215 3.000 0 0 0
159 1 1 0 6.163 76.005 3.000 0 0 0
160 1 1 0 6.841 74.760 3.000 0 0 0
161 1 1 0 6.102 73.550 3.000 0 0 0
162 1 1 0 6.779 72.305 3.000 0 0 0
163 1 1 0 6.040 71.095 3.000 0 0 0
164 1 1 0 6.718 69.849 3.000 0 0 0
165 1 1 0 5.978 68.640 3.000 0 0 0
166 1 1 0 6.656 67.394 3.000 0 0 0
167 1 1 0 5.917 66.184 3.000 0 0 0
168 1 1 0 6.595 64.939 3.000 0 0 0
169 1 1 0 5.855 63.729 3.000 0 0 0
170 1 1 0 6.533 62.484 3.000 0 0 0
171 1 1 0 5.793 61.274 3.000 0 0 0
172 1 1 0 6.471 60.029 3.000 0 0 0
173 1 1 0 5.732 58.819 3.000 0 0 0
174 1 1 0 6.410 57.573 3.000 0 0 0
175 1 1 0 5.670 56.363 3.000 0 0 0
176 1 1 0 6.348 55.118 3.000 0 0 0
177 1 1 0 5.608 53.908 3.000 0 0 0
178 1 1 0 6.286 52.663 3.000 0 0 0
179 1 1 0 5.547 51.453 3.000 0 0 0
180 1 1 0 6.225 50.208 3.000 0 0 0
181 1 1 0 5.485 48.998 3.000 0 0 0
182 1 1 0 6.163 47.752 3.000 0 0 0
183 1 1 0 5.424 46.543 3.000 0 0 0
184 1 1 0 6.102 45.297 3.000 0 0 0
185 1 1 0 5.362 44.087 3.000 0 0 0
186 1 1 0 6.040 42.842 3.000 0 0 0
187 1 1 0 5.300 41.632 3.000 0 0 0
188 1 1 0 5.978 40.387 3.000 0 0 0
189 1 1 0 5.239 39.177 3.000 0 0 0
190 1 1 0 5.917 37.931 3.000 0 0 0
191 1 1 0 5.177 36.722 3.000 0 0 0
192 1 1 0 5.855 35.476 3.000 0 0 0
193 1 1 0 5.115 34.266 3.000 0 0 0
194 1 1 0 5.793 33.021 3.000 0 0 0
195 1 1 0 5.054 31.811 3.000 0 0 0
196 1 1 0 5.732 30.566 3.000 0 0 0
197 1 1 0 4.992 29.356 3.000 0 0 0
198 1 1 0 5.670 28.111 3.000 0 0 0
199 1 1 0 4.931 26.901 3.000 0 0 0
200 1 1 0 5.608 25.655 3.000 0 0 0
201 1 1 0 4.869 24.446 3.000 0 0 0
202 1 1 0 5.547 23.200 3.000 0 0 0
203 1 1 0 4.807 21.990 3.000 0 0 0
204 1 1 0 5.485 20.745 3.000 0 0 0
205 1 1 0 4.746 19.535 3.000 0 0 0
206 1 1 0 5.424 18.290 3.000 0 0 0
207 1 1 0 4.684 17.080 3.000 0 0 0
208 1 1 0 5.362 15.834 3.000 0 0 0
209 1 1 0 4.622 14.625 3.000 0 0 0
210 1 1 0 5.300 13.379 3.000 0 0 0
211 1 1 0 4.561 12.169 3.000 0 0 0
212 1 1 0 5.239 10.924 3.000 0 0 0
213 1 1 0 4.499 9.714 3.000 0 0 0
214 1 1 0 5.177 8.469 3.000 0 0 0
215 1 1 0 4.437 7.259 3.000 0 0 0
216 1 1 0 5.115 6.014 3.000 0 0 0
217 1 1 0 4.376 4.804 3.000 0 0 0
218 1 1 0 5.054 3.558 3.000 0 0 0
219 1 1 0 4.314 2.348 3.000 0 0 0
220 1 1 0 4.992 1.103 3.000 0 0 0
221 1 1 0 8.505 84.545 3.000 0 0 0
222 1 1 0 9.183 83.300 3.000 0 0 0
223 1 1 0 8.444 82.090 3.000 0 0 0
224 1 1 0 9.121 80.845 3.000 0 0 0
225 1 1 0 8.382 79.635 3.000 0 0 0
226 1 1 0 9.060 78.389 3.000 0 0 0
227 1 1 0 8.320 77.180 3.000 0 0 0
228 1 1 0 8.998 75.934 3.000 0 0 0
229 1 1 0 8.259 74.724 3.000 0 0 0
230 1 1 0 8.937 73.479 3.000 0 0 0
231 1 1 0 8.197 72.269 3.000 0 0 0
232 1 1 0 8.875 71.024 3.000 0 0 0
233 1 1 0 8.135 69.814 3.000 0 0 0
234 1 1 0 8.813 68.568 3.000 0 0 0
235 1 1 0 8.074 67.359 3.000 0 0 0
236 1 1 0 8.752 66.113 3.000 0 0 0
237 1 1 0 8.012 64.903 3.000 0 0 0
238 1 1 0 8.690 63.658 3.000 0 0 0
239 1 1 0 7.950 62.448 3.000 0 0 0
240 1 1 0 8.628 61.203 3.000 0 0 0
241 1 1 0 7.889 59.993 3.000 0 0 0
242 1 1 0 8.567 58.748 3.000 0 0 0
243 1 1 0 7.827 57.538 3.000 0 0 0
244 1 1 0 8.505 56.292 3.000 0 0 0
245 1 1 0 7.766 55.082 3.000 0 0 0
246 1 1 0 8.444 53.837 3.000 0 0 0
247 1 1 0 7.704 52.627 3.000 0 0 0
248 1 1 0 8.382 51.382 3.000 0 0 0
249 1 1 0 7.642 50.172 3.000 0 0 0
250 1 1 0 8.320 48.927 3.000 0 0 0
251 1 1 0 7.581 47.717 3.000 0 0 0
252 1 1 0 8.259 46.471 3.000 0 0 0
253 1 1 0 7.519 45.262 3.000 0 0 0
254 1 1 0 8.197 44.016 3.000 0 0 0
255 1 1 0 7.457 42.806 3.000 0 0 0
256 1 1 0 8.135 41.561 3.000 0 0 0
257 1 1 0 7.396 40.351 3.000 0 0 0
258 1 1 0 8.074 39.106 3.000 0 0 0
259 1 1 0 7.334 37.896 3.000 0 0 0
260 1 1 0 8.012 36.650 3.000 0 0 0
261 1 1 0 7.273 35.441 3.000 0 0 0
262 1 1 0 7.950 34.195 3.000 0 0 0
263 1 1 0 7.211 32.985 3.000 0 0 0
264 1 1 0 7.889 31.740 3.000 0 0 0
265 1 1 0 7.149 30.530 3.000 0 0 0
266 1 1 0 7.827 29.285 3.000 0 0 0
267 1 1 0 7.088 28.075 3.000 0 0 0
268 1 1 0 7.766 26.830 3.000 0 0 0
269 1 1 0 7.026 25.620 3.000 0 0 0
270 1 1 0 7.704 24.374 3.000 0 0 0
271 1 1 0 6.964 23.165 3.000 0 0 0
272 1 1 0 7.642 21.919 3.000 0 0 0
273 1 1 0 6.903 20.709 3.000 0 0 0
274 1 1 0 7.581 19.464 3.000 0 0 0
275 1 1 0 6.841 18.254 3.000 0 0 0
276 1 1 0 7.519 17.009 3.000 0 0 0
277 1 1 0 6.779 15.799 3.000 0 0 0
278 1 1 0 7.457 14.553 3.000 0 0 0
279 1 1 0 6.718 13.344 3.000 0 0 0
280 1 1 0 7.396 12.098 3.000 0 0 0
281 1 1 0 6.656 10.888 3.000 0 0 0
282 1 1 0 7.334 9.643 3.000 0 0 0
283 1 1 0 6.595 8.433 3.000 0 0 0
284 1 1 0 7.273 7.188 3.000 0 0 0
285 1 1 0 6.533 5.978 3.000 0 0 0
286 1 1 0 7.211 4.733 3.000 0 0 0
287 1 1 0 6.471 3.523 3.000 0 0 0
288 1 1 0 7.149 2.277 3.000 0 0 0
289 1 1 0 6.410 1.067 3.000 0 0 0
290 1 1 0 11.340 84.474 3.000 0 0 0
291 1 1 0 10.601 83.264 3.000 0 0 0
292 1 1 0 11.279 82.019 3.000 0 0 0
293 1 1 0 10.539 80.809 3.000 0 0 0
294 1 1 0 11.217 79.564 3.000 0 0 0
295 1 1 0 10.477 78.354 3.000 0 0 0
296 1 1 0 11.155 77.108 3.000 0 0 0
297 1 1 0 10.416 75.899 3.000 0 0 0
298 1 1 0 11.094 74.653 3.000 0 0 0
299 1 1 0 10.354 73.443 3.000 0 0 0
300 1 1 0 11.032 72.198 3.000 0 0 0
301 1 1 0 10.292 70.988 3.000 0 0 0
302 1 1 0 10.970 69.743 3.000 0 0 0
303 1 1 0 10.231 68.533 3.000 0 0 0
304 1 1 0 10.909 67.287 3.000 0 0 0
305 1 1 0 10.169 66.078 3.000 0 0 0
306 1 1 0 10.847 64.832 3.000 0 0 0
307 1 1 0 10.108 63.622 3.000 0 0 0
308 1 1 0 10.786 62.377 3.000 0 0 0
309 1 1 0 10.046 61.167 3.000 0 0 0
310 1 1 0 10.724 59.922 3.000 0 0 0
311 1 1 0 9.984 58.712 3.000 0 0 0
312 1 1 0 10.662 57.467 3.000 0 0 0
313 1 1 0 9.923 56.257 3.000 0 0 0
314 1 1 0 10.601 55.011 3.000 0 0 0
315 1 1 0 9.861 53.801 3.000 0 0 0
316 1 1 0 10.539 52.556 3.000 0 0 0
317 1 1 0 9.799 51.346 3.000 0 0 0
318 1 1 0 10.477 50.101 3.000 0 0 0
319 1 1 0 9.738 48.891 3.000 0 0 0
320 1 1 0 10.416 47.646 3.000 0 0 0
321 1 1 0 9.676 46.436 3.000 0 0 0
322 1 1 0 10.354 45.190 3.000 0 0 0
323 1 1 0 9.615 43.981 3.000 0 0 0
324 1 1 0 10.292 42.735 3.000 0 0 0
325 1 1 0 9.553 41.525 3.000 0 0 0
326 1 1 0 10.231 40.280 3.000 0 0 0
327 1 1 0 9.491 39.070 3.000 0 0 0
328 1 1 0 10.169 37.825 3.000 0 0 0
329 1 1 0 9.430 36.615 3.000 0 0 0
330 1 1 0 10.108 35.369 3.000 0 0 0
331 1 1 0 9.368 34.160 3.000 0 0 0
332 1 1 0 10.046 32.914 3.000 0 0 0
333 1 1 0 9.306 31.704 3.000 0 0 0
334 1 1 0 9.984 30.459 3.000 0 0 0
335 1 1 0 9.245 29.249 3.000 0 0 0
336 1 1 0 9.923 28.004 3.000 0 0 0
337 1 1 0 9.183 26.794 3.000 0 0 0
338 1 1 0 9.861 25.549 3.000 0 0 0
339 1 1 0 9.121 24.339 3.000 0 0 0
340 1 1 0 9.799 23.093 3.000 0 0 0
341 1 1 0 9.060 21.884 3.000 0 0 0
342 1 1 0 9.738 20.638 3.000 0 0 0
343 1 1 0 8.998 19.428 3.000 0 0 0
344 1 1 0 9.676 18.183 3.000 0 0 0
345 1 1 0 8.937 16.973 3.000 0 0 0
346 1 1 0 9.615 15.728 3.000 0 0 0
347 1 1 0 8.875 14.518 3.000 0 0 0
348 1 1 0 9.553 13.272 3.000 0 0 0
349 1 1 0 8.813 12.063 3.000 0 0 0
350 1 1 0 9.491 10.817 3.000 0 0 0
351 1 1 0 8.752 9.607 3.000 0 0 0
352 1 1 0 9.430 8.362 3.000 0 0 0
353 1 1 0 8.690 7.152 3.000 0 0 0
354 1 1 0 9.368 5.907 3.000 0 0 0
355 1 1 0 8.628 4.697 3.000 0 0 0
356 1 1 0 9.306 3.452 3.000 0 0 0
357 1 1 0 8.567 2.242 3.000 0 0 0
358 1 1 0 9.245 0.996 3.000 0 0 0
359 1 1 0 12.758 84.438 3.000 0 0 0
360 1 1 0 13.436 83.193 3.000 0 0 0
361 1 1 0 12.696 81.983 3.000 0 0 0
362 1 1 0 13.374 80.738 3.000 0 0 0
363 1 1 0 12.634 79.528 3.000 0 0 0
364 1 1 0 13.312 78.283 3.000 0 0 0
365 1 1 0 12.573 77.073 3.000 0 0 0
366 1 1 0 13.251 75.827 3.000 0 0 0
367 1 1 0 12.511 74.618 3.000 0 0 0
368 1 1 0 13.189 73.372 3.000 0 0 0
369 1 1 0 12.450 72.162 3.000 0 0 0
370 1 1 0 13.128 70.917 3.000 0 0 0
371 1 1 0 12.388 69.707 3.000 0 0 0
372 1 1 0 13.066 68.462 3.000 0 0 0
373 1 1 0 12.326 67.252 3.000 0 0 0
374 1 1 0 13.004 66.006 3.000 0 0 0
375 1 1 0 12.265 64.797 3.000 0 0 0
376 1 1 0 12.943 63.551 3.000 0 0 0
377 1 1 0 12.203 62.341 3.000 0 0 0
378 1 1 0 12.881 61.096 3.000 0 0 0
379 1 1 0 12.141 59.886 3.000 0 0 0
380 1 1 0 12.819 58.641 3.000 0 0 0
381 1 1 0 12.080 57.431 3.000 0 0 0
382 1 1 0 12.758 56.186 3.000 0 0 0
383 1 1 0 12.018 54.976 3.000 0 0 0
384 1 1 0 12.696 53.730 3.000 0 0 0
385 1 1 0 11.957 52.520 3.000 0 0 0
386 1 1 0 12.634 51.275 3.000 0 0 0
387 1 1 0 11.895 50.065 3.000 0 0 0
388 1 1 0 12.573 48.820 3.000 0 0 0
389 1 1 0 11.833 47.610 3.000 0 0 0
390 1 1 0 12.511 46.365 3.000 0 0 0
391 1 1 0 11.772 45.155 3.000 0 0 0
392 1 1 0 12.450 43.909 3.000 0 0 0
393 1 1 0 11.710 42.700 3.000 0 0 0
394 1 1 0 12.388 41.454 3.000 0 0 0
395 1 1 0 11.648 40.244 3.000 0 0 0
396 1 1 0 12.326 38.999 3.000 0 0 0
397 1 1 0 11.587 37.789 3.000 0 0 0
398 1 1 0 12.265 36.544 3.000 0 0 0
399 1 1 0 11.525 35.334 3.000 0 0 0
400 1 1 0 12.203 34.089 3.000 0 0 0
401 1 1 0 11.463 32.879 3.000 0 0 0
402 1 1 0 12.141 31.633 3.000 0 0 0
403 1 1 0 11.402 30.423 3.000 0 0 0
404 1 1 0 12.080 29.178 3.000 0 0 0
405 1 1 0 11.340 27.968 3.000 0 0 0
406 1 1 0 12.018 26.723 3.000 0 0 0
407 1 1 0 11.279 25.513 3.000 0 0 0
408 1 1 0 11.957 24.268 3.000 0 0 0
409 1 1 0 11.217 23.058 3.000 0 0 0
410 1 1 0 11.895 21.812 3.000 0 0 0
411 1 1 0 11.155 20.603 3.000 0 0 0
412 1 1 0 11.833 19.357 3.000 0 0 0
413 1 1 0 11.094 18.147 3.000 0 0 0
414 1 1 0 11.772 16.902 3.000 0 0 0
415 1 1 0 11.032 15.692 3.000 0 0 0
416 1 1 0 11.710 14.447 3.000 0 0 0
417 1 1 0 10.970 13.237 3.000 0 0 0
418 1 1 0 11.648 11.991 3.000 0 0 0
419 1 1 0 10.909 10.782 3.000 0 0 0
420 1 1 0 11.587 9.536 3.000 0 0 0
421 1 1 0 10.847 8.326 3.000 0 0 0
422 1 1 0 11.525 7.081 3.000 0 0 0
423 1 1 0 10.786 5.871 3.000 0 0 0
424 1 1 0 11.463 4.626 3.000 0 0 0
425 1 1 0 10.724 3.416 3.000 0 0 0
426 1 1 0 11.402 2.171 3.000 0 0 0
427 1 1 0 10.662 0.961 3.000 0 0 0
428 1 1 0 15.593 84.367 3.000 0 0 0
429 1 1 0 14.853 83.157 3.000 0 0 0
430 1 1 0 15.531 81.912 3.000 0 0 0
431 1 1 0 14.792 80.702 3.000 0 0 0
432 1 1 0 15.470 79.457 3.000 0 0 0
433 1 1 0 14.730 78.247 3.000 0 0 0
434 1 1 0 15.408 77.002 3.000 0 0 0
435 1 1 0 14.668 75.792 3.000 0 0 0
436 1 1 0 15.346 74.546 3.000 0 0 0
437 1 1 0 14.607 73.337 3.000 0 0 0
438 1 1 0 15.285 72.091 3.000 0 0 0
439 1 1 0 14.545 70.881 3.000 0 0 0
440 1 1 0 15.223 69.636 3.000 0 0 0
441 1 1 0 14.483 68.426 3.000 0 0 0
442 1 1 0 15.161 67.181 3.000 0 0 0
443 1 1 0 14.422 65.971 3.000 0 0 0
444 1 1 0 15.100 64.725 3.000 0 0 0
445 1 1 0 14.360 63.516 3.000 0 0 0
446 1 1 0 15.038 62.270 3.000 0 0 0
447 1 1 0 14.299 61.060 3.000 0 0 0
448 1 1 0 14.976 59.815 3.000 0 0 0
449 1 1 0 14.237 58.605 3.000 0 0 0
450 1 1 0 14.915 57.360 3.000 0 0 0
451 1 1 0 14.175 56.150 3.000 0 0 0
452 1 1 0 14.853 54.905 3.000 0 0 0
453 1 1 0 14.114 53.695 3.000 0 0 0
454 1 1 0 14.792 52.449 3.000 0 0 0
455 1 1 0 14.052 51.240 3.000 0 0 0
456 1 1 0 14.730 49.994 3.000 0 0 0
457 1 1 0 13.990 48.784 3.000 0 0 0
458 1 1 0 14.668 47.539 3.000 0 0 0
459 1 1 0 13.929 46.329 3.000 0 0 0
460 1 1 0 14.607 45.084 3.000 0 0 0
461 1 1 0 13.867 43.874 3.000 0 0 0
462 1 1 0 14.545 42.628 3.000 0 0 0
463 1 1 0 13.805 41.419 3.000 0 0 0
464 1 1 0 14.483 40.173 3.000 0 0 0
465 1 1 0 13.744 38.963 3.000 0 0 0
466 1 1 0 14.422 37.718 3.000 0 0 0
467 1 1 0 13.682 36.508 3.000 0 0 0
468 1 1 0 14.360 35.263 3.000 0 0 0
469 1 1 0 13.621 34.053 3.000 0 0 0
470 1 1 0 14.299 32.808 3.000 0 0 0
471 1 1 0 13.559 31.598 3.000 0 0 0
472 1 1 0 14.237 30.352 3.000 0 0 0
473 1 1 0 13.497 29.142 3.000 0 0 0
474 1 1 0 14.175 27.897 3.000 0 0 0
475 1 1 0 13.436 26.687 3.000 0 0 0
476 1 1 0 14.114 25.442 3.000 0 0 0
477 1 1 0 13.374 24.232 3.000 0 0 0
478 1 1 0 14.052 22.987 3.000 0 0 0
479 1 1 0 13.312 21.777 3.000 0 0 0
480 1 1 0 13.990 20.531 3.000 0 0 0
481 1 1 0 13.251 19.322 3.000 0 0 0
482 1 1 0 13.929 18.076 3.000 0 0 0
483 1 1 0 13.189 16.866 3.000 0 0 0
484 1 1 0 13.867 15.621 3.000 0 0 0
485 1 1 0 13.128 14.411 3.000 0 0 0
486 1 1 0 13.805 13.166 3.000 0 0 0
487 1 1 0 13.066 11.956 3.000 0 0 0
488 1 1 0 13.744 10.710 3.000 0 0 0
489 1 1 0 13.004 9.501 3.000 0 0 0
490 1 1 0 13.682 8.255 3.000 0 0 0
491 1 1 0 12.943 7.045 3.000 0 0 0
492 1 1 0 13.621 5.800 3.000 0 0 0
493 1 1 0 12.881 4.590 3.000 0 0 0
494 1 1 0 13.559 3.345 3.000 0 0 0
495 1 1 0 12.819 2.135 3.000 0 0 0
496 1 1 0 13.497 0.890 3.000 0 0 0
497 1 1 0 17.010 84.332 3.000 0 0 0
498 1 1 0 17.688 83.086 3.000 0 0 0
499 1 1 0 16.949 81.876 3.000 0 0 0
500 1 1 0 17.627 80.631 3.000 0 0 0
501 1 1 0 16.887 79.421 3.000 0 0 0
502 1 1 0 17.565 78.176 3.000 0 0 0
503 1 1 0 16.825 76.966 3.000 0 0 0
504 1 1 0 17.503 75.721 3.000 0 0 0
505 1 1 0 16.764 74.511 3.000 0 0 0
506 1 1 0 17.442 73.265 3.000 0 0 0
507 1 1 0 16.702 72.056 3.000 0 0 0
508 1 1 0 17.380 70.810 3.000 0 0 0
509 1 1 0 16.641 69.600 3.000 0 0 0
510 1 1 0 17.318 68.355 3.000 0 0 0
511 1 1 0 16.579 67.145 3.000 0 0 0
512 1 1 0 17.257 65.900 3.000 0 0 0
513 1 1 0 16.517 64.690 3.000 0 0 0
514 1 1 0 17.195 63.444 3.000 0 0 0
515 1 1 0 16.456 62.235 3.000 0 0 0
516 1 1 0 17.134 60.989 3.000 0 0 0
517 1 1 0 16.394 59.779 3.000 0 0 0
518 1 1 0 17.072 58.534 3.000 0 0 0
519 1 1 0 16.332 57.324 3.000 0 0 0
520 1 1 0 17.010 56.079 3.000 0 0 0
521 1 1 0 16.271 54.869 3.000 0 0 0
522 1 1 0 16.949 53.624 3.000 0 0 0
523 1 1 0 16.209 52.414 3.000 0 0 0
524 1 1 0 16.887 51.168 3.000 0 0 0
525 1 1 0 16.147 49.959 3.000 0 0 0
526 1 1 0 16.825 48.713 3.000 0 0 0
527 1 1 0 16.086 47.503 3.000 0 0 0
528 1 1 0 16.764 46.258 3.000 0 0 0
529 1 1 0 16.024 45.048 3.000 0 0 0
530 1 1 0 16.702 43.803 3.000 0 0 0
531 1 1 0 15.963 42.593 3.000 0 0 0
532 1 1 0 16.641 41.347 3.000 0 0 0
533 1 1 0 15.901 40.138 3.000 0 0 0
534 1 1 0 16.579 38.892 3.000 0 0 0
535 1 1 0 15.839 37.682 3.000 0 0 0
536 1 1 0 16.517 36.437 3.000 0 0 0
537 1 1 0 15.778 35.227 3.000 0 0 0
538 1 1 0 16.456 33.982 3.000 0 0 0
539 1 1 0 15.716 32.772 3.000 0 0 0
540 1 1 0 16.394 31.527 3.000 0 0 0
541 1 1 0 15.654 30.317 3.000 0 0 0
542 1 1 0 16.332 29.071 3.000 0 0 0
543 1 1 0 15.593 27.861 3.000 0 0 0
544 1 1 0 16.271 26.616 3.000 0 0 0
545 1 1 0 15.531 25.406 3.000 0 0 0
546 1 1 0 16.209 24.161 3.000 0 0 0
547 1 1 0 15.470 22.951 3.000 0 0 0
548 1 1 0 16.147 21.706 3.000 0 0 0
549 1 1 0 15.408 20.496 3.000 0 0 0
550 1 1 0 16.086 19.250 3.000 0 0 0
551 1 1 0 15.346 18.041 3.000 0 0 0
552 1 1 0 16.024 16.795 3.000 0 0 0
553 1 1 0 15.285 15.585 3.000 0 0 0
554 1 1 0 15.963 14.340 3.000 0 0 0
555 1 1 0 15.223 13.130 3.000 0 0 0
556 1 1 0 15.901 11.885 3.000 0 0 0
557 1 1 0 15.161 10.675 3.000 0 0 0
558 1 1 0 15.839 9.429 3.000 0 0 0
559 1 1 0 15.100 8.220 3.000 0 0 0
560 1 1 0 15.778 6.974 3.000 0 0 0
561 1 1 0 15.038 5.764 3.000 0 0 0
562 1 1 0 15.716 4.519 3.000 0 0 0
563 1 1 0 14.976 3.309 3.000 0 0 0
564 1 1 0 15.654 2.064 3.000 0 0 0
565 1 1 0 14.915 0.854 3.000 0 0 0
566 1 1 0 19.845 84.261 3.000 0 0 0
567 1 1 0 19.106 83.051 3.000 0 0 0
568 1 1 0 19.784 81.805 3.000 0 0 0
569 1 1 0 19.044 80.595 3.000 0 0 0
570 1 1 0 19.722 79.350 3.000 0 0 0
571 1 1 0 18.983 78.140 3.000 0 0 0
572 1 1 0 19.660 76.895 3.000 0 0 0
573 1 1 0 18.921 75.685 3.000 0 0 0
574 1 1 0 19.599 74.440 3.000 0 0 0
575 1 1 0 18.859 73.230 3.000 0 0 0
576 1 1 0 19.537 71.984 3.000 0 0 0
577 1 1 0 18.798 70.775 3.000 0 0 0
578 1 1 0 19.476 69.529 3.000 0 0 0
579 1 1 0 18.736 68.319 3.000 0 0 0
580 1 1 0 19.414 67.074 3.000 0 0 0
581 1 1 0 18.674 65.864 3.000 0 0 0
582 1 1 0 19.352 64.619 3.000 0 0 0
583 1 1 0 18.613 63.409 3.000 0 0 0
584 1 1 0 19.291 62.163 3.000 0 0 0
585 1 1 0 18.551 60.954 3.000 0 0 0
586 1 1 0 19.229 59.708 3.000 0 0 0
587 1 1 0 18.489 58.498 3.000 0 0 0
588 1 1 0 19.167 57.253 3.000 0 0 0
589 1 1 0 18.428 56.043 3.000 0 0 0
590 1 1 0 19.106 54.798 3.000 0 0 0
591 1 1 0 18.366 53.588 3.000 0 0 0
592 1 1 0 19.044 52.343 3.000 0 0 0
593 1 1 0 18.305 51.133 3.000 0 0 0
594 1 1 0 18.983 49.887 3.000 0 0 0
595 1 1 0 18.243 48.678 3.000 0 0 0
596 1 1 0 18.921 47.432 3.000 0 0 0
597 1 1 0 18.181 46.222 3.000 0 0 0
598 1 1 0 18.859 44.977 3.000 0 0 0
599 1 1 0 18.120 43.767 3.000 0 0 0
600 1 1 0 18.798 42.522 3.000 0 0 0
601 1 1 0 18.058 41.312 3.000 0 0 0
602 1 1 0 18.736 40.066 3.000 0 0 0
603 1 1 0 17.996 38.857 3.000 0 0 0
604 1 1 0 18.674 37.611 3.000 0 0 0
605 1 1 0 17.935 36.401 3.000 0 0 0
606 1 1 0 18.613 35.156 3.000 0 0 0
607 1 1 0 17.873 33.946 3.000 0 0 0
608 1 1 0 18.551 32.701 3.000 0 0 0
609 1 1 0 17.812 31.491 3.000 0 0 0
610 1 1 0 18.489 30.246 3.000 0 0 0
611 1 1 0 17.750 29.036 3.000 0 0 0
612 1 1 0 18.428 27.790 3.000 0 0 0
613 1 1 0 17.688 26.580 3.000 0 0 0
614 1 1 0 18.366 25.335 3.000 0 0 0
615 1 1 0 17.627 24.125 3.000 0 0 0
616 1 1 0 18.305 22.880 3.000 0 0 0
617 1 1 0 17.565 21.670 3.000 0 0 0
618 1 1 0 18.243 20.425 3.000 0 0 0
619 1 1 0 17.503 19.215 3.000 0 0 0
620 1 1 0 18.181 17.969 3.000 0 0 0
621 1 1 0 17.442 16.760 3.000 0 0 0
622 1 1 0 18.120 15.514 3.000 0 0 0
623 1 1 0 17.380 14.304 3.000 0 0 0
624 1 1 0 18.058 13.059 3.000 0 0 0
625 1 1 0 17.318 11.849 3.000 0 0 0
626 1 1 0 17.996 10.604 3.000 0 0 0
627 1 1 0 17.257 9.394 3.000 0 0 0
628 1 1 0 17.935 8.149 3.000 0 0 0
629 1 1 0 17.195 6.939 3.000 0 0 0
630 1 1 0 17.873 5.693 3.000 0 0 0
631 1 1 0 17.134 4.483 3.000 0 0 0
632 1 1 0 17.812 3.238 3.000 0 0 0
633 1 1 0 17.072 2.028 3.000 0 0 0
634 1 1 0 17.750 0.783 3.000 0 0 0
635 1 1 0 21.263 84.225 3.000 0 0 0
636 1 1 0 21.941 82.980 3.000 0 0 0
637 1 1 0 21.201 81.770 3.000 0 0 0
638 1 1 0 21.879 80.524 3.000 0 0 0
639 1 1 0 21.140 79.314 3.000 0 0 0
640 1 1 0 21.818 78.069 3.000 0 0 0
641 1 1 0 21.078 76.859 3.000 0 0 0
642 1 1 0 21.756 75.614 3.000 0 0 0
643 1 1 0 21.016 74.404 3.000 0 0 0
644 1 1 0 21.694 73.159 3.000 0 0 0
645 1 1 0 20.955 71.949 3.000 0 0 0
646 1 1 0 21.633 70.703 3.000 0 0 0
647 1 1 0 20.893 69.494 3.000 0 0 0
648 1 1 0 21.571 68.248 3.000 0 0 0
649 1 1 0 20.831 67.038 3.000 0 0 0
650 1 1 0 21.509 65.793 3.000 0 0 0
651 1 1 0 20.770 64.583 3.000 0 0 0
652 1 1 0 21.448 63.338 3.000 0 0 0
653 1 1 0 20.708 62.128 3.000 0 0 0
654 1 1 0 21.386 60.883 3.000 0 0 0
655 1 1 0 20.647 59.673 3.000 0 0 0
656 1 1 0 21.325 58.427 3.000 0 0 0
657 1 1 0 20.585 57.217 3.000 0 0 0
658 1 1 0 21.263 55.972 3.000 0 0 0
659 1 1 0 20.523 54.762 3.000 0 0 0
660 1 1 0 21.201 53.517 3.000 0 0 0
661 1 1 0 20.462 52.307 3.000 0 0 0
662 1 1 0 21.140 51.062 3.000 0 0 0
663 1 1 0 20.400 49.852 3.000 0 0 0
664 1 1 0 21.078 48.606 3.000 0 0 0
665 1 1 0 20.338 47.397 3.000 0 0 0
666 1 1 0 21.016 46.151 3.000 0 0 0
667 1 1 0 20.277 44.941 3.000 0 0 0
668 1 1 0 20.955 43.696 3.000 0 0 0
669 1 1 0 20.215 42.486 3.000 0 0 0
670 1 1 0 20.893 41.241 3.000 0 0 0
671 1 1 0 20.154 40.031 3.000 0 0 0
672 1 1 0 20.831 38.785 3.000 0 0 0
673 1 1 0 20.092 37.576 3.000 0 0 0
674 1 1 0 20.770 36.330 3.000 0 0 0
675 1 1 0 20.030 35.120 3.000 0 0 0
676 1 1 0 20.708 33.875 3.000 0 0 0
677 1 1 0 19.969 32.665 3.000 0 0 0
678 1 1 0 20.647 31.420 3.000 0 0 0
679 1 1 0 19.907 30.210 3.000 0 0 0
680 1 1 0 20.585 28.965 3.000 0 0 0
681 1 1 0 19.845 27.755 3.000 0 0 0
682 1 1 0 20.523 26.509 3.000 0 0 0
683 1 1 0 19.784 25.300 3.000 0 0 0
684 1 1 0 20.462 24.054 3.000 0 0 0
685 1 1 0 19.722 22.844 3.000 0 0 0
686 1 1 0 20.400 21.599 3.000 0 0 0
687 1 1 0 19.660 20.389 3.000 0 0 0
688 1 1 0 20.338 19.144 3.000 0 0 0
689 1 1 0 19.599 17.934 3.000 0 0 0
690 1 1 0 20.277 16.688 3.000 0 0 0
691 1 1 0 19.537 15.479 3.000 0 0 0
692 1 1 0 20.215 14.233 3.000 0 0 0
693 1 1 0 19.476 13.023 3.000 0 0 0
694 1 1 0 20.154 11.778 3.000 0 0 0
695 1 1 0 19.414 10.568 3.000 0 0 0
696 1 1 0 20.092 9.323 3.000 0 0 0
697 1 1 0 19.352 8.113 3.000 0 0 0
698 1 1 0 20.030 6.868 3.000 0 0 0
699 1 1 0 19.291 5.658 3.000 0 0 0
700 1 1 0 19.969 4.412 3.000 0 0 0
701 1 1 0 19.229 3.202 3.000 0 0 0
702 1 1 0 19.907 1.957 3.000 0 0 0
703 1 1 0 19.167 0.747 3.000 0 0 0
704 1 1 0 24.098 84.154 3.000 0 0 0
705 1 1 0 23.358 82.944 3.000 0 0 0
706 1 1 0 24.036 81.699 3.000 0 0 0
707 1 1 0 23.297 80.489 3.000 0 0 0
708 1 1 0 23.975 79.243 3.000 0 0 0
709 1 1 0 23.235 78.034 3.000 0 0 0
710 1 1 0 23.913 76.788 3.000 0 0 0
711 1 1 0 23.173 75.578 3.000 0 0 0
712 1 1 0 23.851 74.333 3.000 0 0 0
713 1 1 0 23.112 73.123 3.000 0 0 0
714 1 1 0 23.790 71.878 3.000 0 0 0
715 1 1 0 23.050 70.668 3.000 0 0 0
716 1 1 0 23.728 69.422 3.000 0 0 0
717 1 1 0 22.989 68.213 3.000 0 0 0
718 1 1 0 23.667 66.967 3.000 0 0 0
719 1 1 0 22.927 65.757 3.000 0 0 0
720 1 1 0 23.605 64.512 3.000 0 0 0
721 1 1 0 22.865 63.302 3.000 0 0 0
722 1 1 0 23.543 62.057 3.000 0 0 0
723 1 1 0 22.804 60.847 3.000 0 0 0
724 1 1 0 23.482 59.602 3.000 0 0 0
725 1 1 0 22.742 58.392 3.000 0 0 0
726 1 1 0 23.420 57.146 3.000 0 0 0
727 1 1 0 22.680 55.936 3.000 0 0 0
728 1 1 0 23.358 54.691 3.000 0 0 0
729 1 1 0 22.619 53.481 3.000 0 0 0
730 1 1 0 23.297 52.236 3.000 0 0 0
731 1 1 0 22.557 51.026 3.000 0 0 0
732 1 1 0 23.235 49.781 3.000 0 0 0
733 1 1 0 22.496 48.571 3.000 0 0 0
734 1 1 0 23.173 47.325 3.000 0 0 0
735 1 1 0 22.434 46.116 3.000 0 0 0
736 1 1 0 23.112 44.870 3.000 0 0 0
737 1 1 0 22.372 43.660 3.000 0 0 0
738 1 1 0 23.050 42.415 3.000 0 0 0
739 1 1 0 22.311 41.205 3.000 0 0 0
740 1 1 0 22.989 39.960 3.000 0 0 0
741 1 1 0 22.249 38.750 3.000 0 0 0
742 1 1 0 22.927 37.504 3.000 0 0 0
743 1 1 0 22.187 36.295 3.000 0 0 0
744 1 1 0 22.865 35.049 3.000 0 0 0
745 1 1 0 22.126 33.839 3.000 0 0 0
746 1 1 0 22.804 32.594 3.000 0 0 0
747 1 1 0 22.064 31.384 3.000 0 0 0
748 1 1 0 22.742 30.139 3.000 0 0 0
749 1 1 0 22.002 28.929 3.000 0 0 0
750 1 1 0 22.680 27.684 3.000 0 0 0
751 1 1 0 21.941 26.474 3.000 0 0 0
752 1 1 0 22.619 25.228 3.000 0 0 0
753 1 1 0 21.879 24.019 3.000 0 0 0
754 1 1 0 22.557 22.773 3.000 0 0 0
755 1 1 0 21.818 21.563 3.000 0 0 0
756 1 1 0 22.496 20.318 3.000 0 0 0
757 1 1 0 21.756 19.108 3.000 0 0 0
758 1 1 0 22.434 17.863 3.000 0 0 0
759 1 1 0 21.694 16.653 3.000 0 0 0
760 1 1 0 22.372 15.407 3.000 0 0 0
761 1 1 0 21.633 14.198 3.000 0 0 0
762 1 1 0 22.311 12.952 3.000 0 0 0
763 1 1 0 21.571 11.742 3.000 0 0 0
764 1 1 0 22.249 10.497 3.000 0 0 0
765 1 1 0 21.509 9.287 3.000 0 0 0
766 1 1 0 22.187 8.042 3.000 0 0 0
767 1 1 0 21.448 6.832 3.000 0 0 0
768 1 1 0 22.126 5.587 3.000 0 0 0
769 1 1 0 21.386 4.377 3.000 0 0 0
770 1 1 0 22.064 3.131 3.000 0 0 0
771 1 1 0 21.325 1.921 3.000 0 0 0
772 1 1 0 22.002 0.676 3.000 0 0 0
773 1 1 0 25.515 84.118 3.000 0 0 0
774 1 1 0 26.193 82.873 3.000 0 0 0
775 1 1 0 25.454 81.663 3.000 0 0 0
776 1 1 0 26.132 80.418 3.000 0 0 0
777 1 1 0 25.392 79.208 3.000 0 0 0
778 1 1 0 26.070 77.962 3.000 0 0 0
779 1 1 0 25.331 76.753 3.000 0 0 0
780 1 1 0 26.009 75.507 3.000 0 0 0
781 1 1 0 25.269 74.297 3.000 0 0 0
782 1 1 0 25.947 73.052 3.000 0 0 0
783 1 1 0 25.207 71.842 3.000 0 0 0
784 1 1 0 25.885 70.597 3.000 0 0 0
785 1 1 0 25.146 69.387 3.000 0 0 0
786 1 1 0 25.824 68.141 3.000 0 0 0
787 1 1 0 25.084 66.932 3.000 0 0 0
788 1 1 0 25.762 65.686 3.000 0 0 0
789 1 1 0 25.022 64.476 3.000 0 0 0
790 1 1 0 25.700 63.231 3.000 0 0 0
791 1 1 0 24.961 62.021 3.000 0 0 0
792 1 1 0 25.639 60.776 3.000 0 0 0
793 1 1 0 24.899 59.566 3.000 0 0 0
794 1 1 0 25.577 58.321 3.000 0 0 0
795 1 1 0 24.838 57.111 3.000 0 0 0
796 1 1 0 25.515 55.865 3.000 0 0 0
797 1 1 0 24.776 54.655 3.000 0 0 0
798 1 1 0 25.454 53.410 3.000 0 0 0
799 1 1 0 24.714 52.200 3.000 0 0 0
800 1 1 0 25.392 50.955 3.000 0 0 0
801 1 1 0 24.653 49.745 3.000 0 0 0
802 1 1 0 25.331 48.500 3.000 0 0 0
803 1 1 0 24.591 47.290 3.000 0 0 0
804 1 1 0 25.269 46.044 3.000 0 0 0
805 1 1 0 24.529 44.835 3.000 0 0 0
806 1 1 0 25.207 43.589 3.000 0 0 0
807 1 1 0 24.468 42.379 3.000 0 0 0
808 1 1 0 25.146 41.134 3.000 0 0 0
809 1 1 0 24.406 39.924 3.000 0 0 0
810 1 1 0 25.084 38.679 3.000 0 0 0
811 1 1 0 24.344 37.469 3.000 0 0 0
812 1 1 0 25.022 36.223 3.000 0 0 0
813 1 1 0 24.283 35.014 3.000 0 0 0
814 1 1 0 24.961 33.768 3.000 0 0 0
815 1 1 0 24.221 32.558 3.000 0 0 0
816 1 1 0 24.899 31.313 3.000 0 0 0
817 1 1 0 24.160 30.103 3.000 0 0 0
818 1 1 0 24.838 28.858 3.000 0 0 0
819 1 1 0 24.098 27.648 3.000 0 0 0
820 1 1 0 24.776 26.403 3.000 0 0 0
821 1 1 0 24.036 25.193 3.000 0 0 0
822 1 1 0 24.714 23.947 3.000 0 0 0
823 1 1 0 23.975 22.738 3.000 0 0 0
824 1 1 0 24.653 21.492 3.000 0 0 0
825 1 1 0 23.913 20.282 3.000 0 0 0
826 1 1 0 24.591 19.037 3.000 0 0 0
827 1 1 0 23.851 17.827 3.000 0 0 0
828 1 1 0 24.529 16.582 3.000 0 0 0
829 1 1 0 23.790 15.372 3.000 0 0 0
830 1 1 0 24.468 14.126 3.000 0 0 0
831 1 1 0 23.728 12.917 3.000 0 0 0
832 1 1 0 24.406 11.671 3.000 0 0 0
833 1 1 0 23.667 10.461 3.000 0 0 0
834 1 1 0 24.344 9.216 3.000 0 0 0
835 1 1 0 23.605 8.006 3.000 0 0 0
836 1 1 0 24.283 6.761 3.000 0 0 0
837 1 1 0 23.543 5.551 3.000 0 0 0
838 1 1 0 24.221 4.306 3.000 0 0 0
839 1 1 0 23.482 3.096 3.000 0 0 0
840 1 1 0 24.160 1.850 3.000 0 0 0
841 1 1 0 23.420 0.640 3.000 0 0 0
842 1 1 0 28.351 84.047 3.000 0 0 0
843 1 1 0 27.611 82.837 3.000 0 0 0
844 1 1 0 28.289 81.592 3.000 0 0 0