ITEM: TIMESTEP
0
ITEM: NUMBER OF ATOMS
15608
ITEM: BOX BOUNDS pp pp pp
0.0000000000000000e+00 1.0863695199999999e+02
0.0000000000000000e+00 1.8816472099999999e+02
0.0000000000000000e+00 1.8399999600000001e+01
ITEM: ATOMS id type x y z c_csym c_2[1] c_2[2] c_2[3] c_2[4] c_2[5] c_2[6] c_3 
1 1 0 0 7.5 6.04904 10571.4 10377.9 -64754.3 -44.63 0.183879 0.191103 -7.41189 
2 1 2.14378 1.20557 7.5 6.04912 9786.68 11272.7 -62721.3 -1538.67 9814.1 -17437.5 -7.412 
3 1 3.56369 1.18949 7.5 6.04918 11468.9 8889.17 -60332.2 3131.36 9321.52 -27095.8 -7.41212 
4 1 6.40351 1.15734 7.5 6.04918 9582.97 8547.78 -51510.4 -4400.5 8957.58 -44766.6 -7.41258 
5 1 7.82342 1.14127 7.5 6.04918 10961.7 5995.16 -47263.9 6420.48 5972.9 -46508.2 -7.4128 
52 1 0.0278414 2.45935 7.5 6.04906 8203.96 12353.8 -62812.8 -66.0377 19650.1 73.0276 -7.412 
53 1 1.44775 2.44328 7.5 6.04911 12162.6 8787.77 -62113.6 1416.56 19889.1 -11308.9 -7.41202 
54 1 2.17163 3.66492 7.5 6.04912 6977.03 13156.2 -58943.2 -1183.73 27423.2 -16601.7 -7.41219 
55 1 3.59153 3.64885 7.5 6.0492 12444.2 7077.74 -56798.1 3680.34 27580 -25441.4 -7.4123 
56 1 4.28757 2.41113 7.5 6.04918 8455.02 11155.9 -56761.7 -2607.66 17965.4 -32526.7 -7.4123 
57 1 5.70748 2.39506 7.5 6.04918 11887.2 6774.09 -53698.2 5239.98 16697.2 -38096 -7.41247 
58 1 6.43135 3.6167 7.5 6.0492 6903.09 10454.8 -47532.4 -3449.97 23279.8 -43024.9 -7.41278 
59 1 7.85126 3.60062 7.5 6.0492 12088.1 4477.66 -45494.7 7380.95 20902.6 -43084.3 -7.41289 
60 1 8.5473 2.36291 7.5 6.04918 8192.94 7743.55 -41349.4 -5163.44 14872.3 -51033.8 -7.4131 
154 1 0.0556827 4.91871 7.5 6.04907 5006.69 14052.2 -57479.7 -128.681 35745.9 385.668 -7.41228 
155 1 1.47559 4.90263 7.5 6.04912 12637.2 6776.01 -56259.1 1680.71 37015.6 -10668.7 -7.41233 
156 1 2.19947 6.12427 7.5 6.04912 3559.15 14790.8 -52347.1 -932.86 40219.8 -14750.3 -7.41254 
157 1 3.61938 6.1082 7.5 6.0492 12619.8 5147.74 -49791.5 4140.22 41712.3 -22692.4 -7.41267 
158 1 4.31541 4.87049 7.5 6.0492 5343.71 12910.7 -51468.5 -2012.6 32225.4 -30218.6 -7.41258 
159 1 5.73532 4.85441 7.5 6.0492 12505.7 5006.37 -49243.2 6000.69 31936 -34534.8 -7.4127 
160 1 6.45919 6.07605 7.5 6.0492 3696.66 12221.7 -41268.3 -2700.12 33405.9 -38947 -7.4131 
161 1 7.8791 6.05998 7.5 6.0492 12535.1 2983.87 -40876.9 8116.39 32364.3 -37526.3 -7.41313 
162 1 8.57514 4.82226 7.5 6.0492 5321.34 9576.53 -36123.5 -4171.82 25239.8 -47725 -7.41337 
256 1 0.0835241 7.37806 7.5 6.04907 1444.09 15576.9 -49876.9 -187.675 45806.3 822.083 -7.41267 
257 1 1.50343 7.36199 7.5 6.04912 12468.6 4737.11 -47164.2 1869.28 48750.3 -9705.71 -7.41279 
258 1 2.22731 8.58363 7.5 6.04912 53.6593 16254.3 -44228.8 -768.347 46362.6 -12228.9 -7.41296 
259 1 3.64722 8.56755 7.5 6.0492 12356.3 3254.66 -40154.1 4395.08 49813.9 -19067.2 -7.41316 
260 1 4.34325 7.32984 7.5 6.0492 1902.6 14536.9 -44153.5 -1561.18 40913.5 -26397.2 -7.41296 
261 1 5.76316 7.31377 7.5 6.0492 12544.5 3303.7 -41914.7 6490.46 42283 -29437.1 -7.41308 
262 1 6.48704 8.53541 7.5 6.0492 436.909 13898.4 -33898.4 -2179.88 37788.3 -33219.8 -7.41348 
263 1 7.90694 8.51933 7.5 6.0492 12601.7 1638.03 -34054.4 8468.91 38751.6 -30366.9 -7.41348 
264 1 8.60298 7.28162 7.5 6.0492 2208.9 11406.6 -29537.1 -3406.94 31068.3 -42083.1 -7.4137 
6 1 10.6632 1.10912 7.5 6.04918 9155.3 5090.65 -34095 -7028.29 8206.17 -53019.5 -7.41347 
7 1 12.0831 1.09305 7.5 6.04918 10310.5 3250.44 -30693.3 8965.62 887.553 -45495.5 -7.41365 
8 1 14.923 1.0609 7.5 6.04918 8660.2 3150.35 -17447.2 -9151.01 8376.74 -41806.7 -7.41432 
9 1 16.3429 1.04482 7.5 6.04918 9725.49 2580.75 -16992 10512.2 -4699.21 -28996.6 -7.41435 
61 1 9.9672 2.34683 7.5 6.04918 11360.1 3817.58 -39027.6 8313.95 10136.7 -46883.1 -7.41323 
62 1 10.6911 3.56848 7.5 6.0492 6674.39 6951.81 -29668.4 -5862.2 17761.8 -51248.2 -7.4137 
63 1 12.111 3.5524 7.5 6.0492 11665.4 2171.01 -31452 9921.66 11068.7 -41434.2 -7.41362 
64 1 12.807 2.31469 7.5 6.04918 7785.5 4734.61 -23064.6 -7579.9 11980 -49053.4 -7.41403 
65 1 14.2269 2.29861 7.5 6.04918 10813.9 2178.21 -24433.1 10281.2 2152.03 -36777 -7.41398 
66 1 14.9508 3.52025 7.5 6.0492 6370.13 4789.09 -12267.4 -8176.7 13479.5 -40942 -7.41458 
67 1 16.3707 3.50418 7.5 6.0492 11343.3 1985.27 -20366.9 11097 1098.43 -25395 -7.41418 
68 1 17.0668 2.26646 7.5 6.04918 7387.64 3839.67 -8371.25 -9508.94 10930.1 -32024.8 -7.41478 
163 1 9.99505 4.80619 7.5 6.0492 12255.9 2511.62 -37201.8 9240.17 21495.1 -41771.4 -7.41333 
164 1 10.7189 6.02783 7.5 6.0492 3814.96 8827.52 -23814.9 -4919.73 24071.5 -46676.8 -7.41399 
165 1 12.1388 6.01176 7.5 6.0492 12504.2 1272.68 -30171.2 10592.4 18787.8 -35132.4 -7.41369 
166 1 12.8349 4.77404 7.5 6.0492 5210.79 6520.44 -17710.9 -6576.73 17949.6 -46221.7 -7.4143 
167 1 14.2548 4.75797 7.5 6.0492 12053 1413.49 -25686.8 10989.2 9189.62 -31791 -7.41392 
168 1 14.9786 5.97961 7.5 6.0492 3867.4 6558.33 -6518.15 -7373.96 16329.4 -37781.6 -7.41487 
169 1 16.3986 5.96353 7.5 6.0492 12595.5 1653.46 -22394.1 11416.6 5491.39 -20308.8 -7.41408 
170 1 17.0946 4.72582 7.5 6.0492 5057.77 5335.73 -2506.73 -8814.91 13581.9 -30899.1 -7.41507 
265 1 10.0229 7.26554 7.5 6.0492 12684.2 1415.93 -33143.4 9780 29045 -34630.9 -7.41354 
266 1 10.7468 8.48718 7.5 6.0492 962.007 10727.9 -17520.9 -4253.82 26029.3 -40144.7 -7.41431 
267 1 12.1667 8.47111 7.5 6.0492 13034 639.249 -27216.3 10816.5 22878.4 -27239.1 -7.41384 
268 1 12.8627 7.2334 7.5 6.0492 2513.28 8430.72 -11803.7 -5787.6 20651.5 -41111.5 -7.4146 
269 1 14.2826 7.21732 7.5 6.0492 12942.5 972.071 -25360.4 11300 13748.5 -25143 -7.41393 
270 1 15.0065 8.43896 7.5 6.0492 1437.59 8439.3 -974.501 -6786.27 16267.1 -33097.3 -7.41515 
271 1 16.4264 8.42289 7.5 6.0492 13588.2 1639.74 -23161.3 11345.3 7752.21 -14299.2 -7.41403 
272 1 17.1224 7.18517 7.5 6.0492 2720.92 7021.32 3259.84 -8240.79 14104.7 -28309.9 -7.41536 
10 1 19.1827 1.01268 7.5 6.04918 8304.25 3623.99 -6568.21 -10450.3 10058.2 -21357 -7.41486 
11 1 20.6026 0.996601 7.5 6.04918 9428.66 4164.72 -9540.76 10981.2 -9644.08 -9687.33 -7.41471 
12 1 23.4424 0.964453 7.5 6.04918 8274.95 5503.51 -2153.5 -10711.8 13263 -5220.85 -7.41506 
13 1 24.8623 0.948378 7.5 6.04918 9570.11 6427.22 -7388.64 10486.1 -13314.7 518.212 -7.41478 
69 1 18.4867 2.25039 7.5 6.04918 10458.4 2972.64 -14840.5 11043.6 -5131.75 -17420.3 -7.41445 
70 1 19.2105 3.47203 7.5 6.0492 6121.42 4834.53 -365.503 -9920.66 12458.4 -21933.5 -7.41518 
71 1 20.6304 3.45596 7.5 6.0492 11298.3 4004.93 -15030.7 11045.9 -6456.86 -7192.78 -7.41443 
72 1 21.3265 2.21824 7.5 6.04918 7182.92 4989.45 -315.216 -10554.3 12576.9 -12754.5 -7.41517 
73 1 22.7464 2.20217 7.5 6.04918 10473.8 5361.79 -11233.7 10749.3 -10278 -1985.41 -7.4146 
74 1 23.4703 3.42381 7.5 6.0492 6083.22 6168.38 5189.83 -10641.9 15222.7 -7150.92 -7.41544 
75 1 24.8902 3.40773 7.5 6.0492 11637.9 6583.91 -14178.1 10139.4 -10487.1 1854.27 -7.41443 
76 1 25.5862 2.17002 7.5 6.04918 7322.72 6565.94 2443.51 -10488 16614.9 -2921.11 -7.41528 
77 1 27.0061 2.15394 7.5 6.04918 10927.8 7305.26 -10801.9 9711.92 -12990.8 1037.92 -7.41459 
171 1 18.5145 4.70974 7.5 6.0492 12033.5 2693.75 -18817.7 11293.5 -1291.89 -13824.2 -7.41425 
172 1 19.2384 5.93138 7.5 6.0492 3867.82 6201.32 5840.38 -9462.84 13373.6 -21363.3 -7.41549 
173 1 20.6583 5.91531 7.5 6.0492 12893.6 4074.3 -19537.3 10928.3 -3837.05 -4389.54 -7.41419 
174 1 21.3543 4.6776 7.5 6.0492 4968.16 5969.45 6462.9 -10295.5 13912.8 -13765.4 -7.41551 
175 1 22.7742 4.66152 7.5 6.0492 12313.8 5423.31 -17040.3 10547.6 -7626.87 -205.182 -7.4143 
176 1 23.4981 5.88316 7.5 6.0492 3909.91 6928.14 12397.3 -10543.9 16087.9 -9170.07 -7.41581 
177 1 24.918 5.86709 7.5 6.0492 13442.3 6841.48 -19988.1 9727.02 -7768.27 2459.87 -7.41413 
178 1 25.614 4.62937 7.5 6.0492 5076.72 6951.83 10366.8 -10583 18596.1 -5597.14 -7.41569 
179 1 27.034 4.6133 7.5 6.0492 12916 7535.82 -17424.9 9279.11 -9595.78 1395.16 -7.41425 
273 1 18.5423 7.1691 7.5 6.0492 13338.7 2752.55 -21643.6 11226.7 1269.92 -9526.99 -7.4141 
274 1 19.2662 8.39074 7.5 6.0492 1745.72 7701.8 11448.7 -9087.31 12473.4 -20183.3 -7.41578 
275 1 20.6861 8.37466 7.5 6.0492 14232.1 4413.5 -22943.6 10557.5 -2197.01 -1614.22 -7.41401 
276 1 21.3822 7.13695 7.5 6.0492 2834.85 7122.14 12849.9 -10027.9 13852.8 -14451 -7.41584 
277 1 22.8021 7.12088 7.5 6.0492 13898.9 5729.85 -21802.3 10163.9 -5458.45 1218.78 -7.41406 
278 1 23.5259 8.34252 7.5 6.0492 1908.63 7783.33 18976.8 -10385.3 15676.1 -11516.3 -7.41615 
279 1 24.9459 8.32644 7.5 6.0492 14939.4 7243.24 -24612.6 9230 -5439.09 2261.21 -7.41389 
280 1 25.6419 7.08873 7.5 6.0492 2957.54 7440.23 18002.6 -10562 19413 -8894.04 -7.41609 
281 1 27.0618 7.07265 7.5 6.0492 14595.9 7862.97 -22856.8 8811.58 -6395.67 703.986 -7.41396 
14 1 27.7021 0.91623 7.5 6.04918 8669.73 6799.65 -1078.74 -9954.4 17397.6 -1944.2 -7.41509 
15 1 29.1221 0.900156 7.5 6.04918 10160.2 7331.86 -6635.7 9295.79 -15720.2 -2810.36 -7.41479 
16 1 31.9619 0.868007 7.5 6.04918 9443.67 6042.81 1044.8 -8444.72 21553 -11119 -7.41518 
17 1 33.3818 0.851933 7.5 6.04918 11055.3 5830.72 -3247.88 7743.76 -17321.9 -15529.7 -7.41495 
78 1 27.73 3.37558 7.5 6.0492 6373.72 6959.43 7311.32 -10167.4 20705.8 -4619.67 -7.41553 
79 1 29.1499 3.35951 7.5 6.0492 12334.4 7660.55 -13931.3 8812.26 -11500 -2228.38 -7.41441 
80 1 29.8459 2.1218 7.5 6.04918 7858.16 6739.73 3954.05 -9390.48 21819.6 -6561.76 -7.41534 
81 1 31.2658 2.10572 7.5 6.04918 11730.5 7111.9 -9275.87 8294.02 -13975.1 -8127.86 -7.41464 
82 1 31.9897 3.32736 7.5 6.0492 7010.38 5882.07 10217.6 -8696.62 26938.4 -13735.7 -7.41566 
83 1 33.4096 3.31129 7.5 6.0492 13210.7 6208.85 -10535.8 7404.48 -11026.6 -15145.2 -7.41457 
84 1 34.1057 2.07357 7.5 6.04918 8708.82 4748.27 8112.45 -7612.71 26704.3 -19228.9 -7.41555 
85 1 35.5256 2.0575 7.5 6.04918 12663.7 4508.35 -3666.81 6782.69 -14362.5 -22344 -7.41493 
180 1 27.7578 5.83494 7.5 6.0492 4121.64 7117.46 15808.3 -10294.3 22925.9 -8205.88 -7.41597 
181 1 29.1777 5.81886 7.5 6.0492 14178.9 7936.41 -20023.4 8385.18 -7325.17 -2883.73 -7.4141 
182 1 29.8738 4.58115 7.5 6.0492 5477.93 6648.23 12989.4 -9636.77 25595.8 -9857.18 -7.41582 
183 1 31.2937 4.56508 7.5 6.0492 13720.4 7377.99 -15963.1 7927.97 -8739.18 -8357.42 -7.41429 
184 1 32.0176 5.78672 7.5 6.0492 4589.34 5642.03 19952.5 -8863.86 30967.7 -17444.4 -7.41618 
185 1 33.4375 5.77064 7.5 6.0492 14920.8 6427.91 -16377 7226.47 -5011.47 -15893.7 -7.41427 
186 1 34.1335 4.53293 7.5 6.0492 6170.9 4422.75 18008 -7810.02 32355.9 -22054.3 -7.41607 
187 1 35.5534 4.51685 7.5 6.0492 14502.4 4750.86 -10116.7 6703.97 -7265.29 -22370.4 -7.41459 
282 1 27.7857 8.29429 7.5 6.0492 2059.24 7312.26 23968.3 -10262.4 23850.2 -12681.7 -7.4164 
283 1 29.2056 8.27822 7.5 6.0492 15623.4 8211.92 -24739.8 8025.75 -3517.4 -4634.68 -7.41385 
284 1 29.9016 7.0405 7.5 6.0492 3226.17 6586.6 22128.2 -9718.82 28013.8 -14186 -7.4163 
285 1 31.3215 7.02443 7.5 6.0492 15299.4 7606.55 -21242.1 7655.01 -3851.85 -9746.68 -7.41402 
286 1 32.0454 8.24607 7.5 6.0492 2350.09 5399.63 29821.6 -8845.25 33290.8 -22069.5 -7.41671 
287 1 33.4653 8.23 7.5 6.0492 16121.6 6552.92 -20734.4 7225.75 248.589 -17510 -7.41404 
288 1 34.1613 6.99228 7.5 6.0492 3722.83 4091.79 28505.3 -7859.62 36210.2 -25751.4 -7.41663 
289 1 35.5813 6.97621 7.5 6.0492 15808.2 4899.64 -15059.8 6805.62 -942.185 -23179.7 -7.41434 
18 1 36.2216 0.819785 7.5 6.04918 10422.8 3166.62 7121.11 -6578.1 24924.1 -25348.7 -7.41549 
19 1 37.6415 0.803711 7.5 6.04918 12017 2370.32 4609.22 6108.4 -18671 -28885.9 -7.41536 
20 1 40.4813 0.771562 7.5 6.04918 11379.4 -732.976 17191.3 -4704.15 27109.7 -35577 -7.41603 
21 1 41.9012 0.755488 7.5 6.04918 12824.5 -1687.78 15887.8 4538.96 -20093.8 -34948 -7.41596 
22 1 44.7411 0.723339 7.5 6.04918 12132.2 -4306.59 28800 -3010.99 28151.6 -35865.3 -7.41665 
86 1 36.2494 3.27914 7.5 6.0492 7893.59 2916 16757.5 -6684.01 32057.5 -27259.1 -7.416 
87 1 37.6694 3.26306 7.5 6.0492 14022.7 2735.31 -2520.77 6065.99 -10668.9 -28288.7 -7.41499 
88 1 38.3654 2.02535 7.5 6.04918 9691.46 1188.93 16474.5 -5603.69 30197.5 -32094.7 -7.41599 
89 1 39.7853 2.00928 7.5 6.04918 13485.8 548.674 6240.75 5315.52 -15059 -32737.2 -7.41545 
90 1 40.5092 3.23092 7.5 6.0492 8841.5 -896.317 27030.4 -4611.33 35079.4 -36504 -7.41654 
91 1 41.9291 3.21484 7.5 6.0492 14581 -1334.89 8800.6 4759.84 -11316.9 -34036 -7.4156 
92 1 42.6251 1.97713 7.5 6.04918 10597.6 -2635.89 27754.5 -3713.47 31988.8 -37374 -7.41659 
93 1 44.045 1.96105 7.5 6.04918 14045.5 -3299.9 18137.4 3884.56 -16354.9 -33409.7 -7.41609 
94 1 44.7689 3.18269 7.5 6.0492 9668.43 -4313.44 38686.2 -2792.9 36095.6 -35911.2 -7.41716 
188 1 36.2773 5.73849 7.5 6.0492 5298.3 2566.43 27427.6 -6756.47 37453.3 -29903.9 -7.41657 
189 1 37.6972 5.72242 7.5 6.0492 15447 2927.77 -8112.72 6254.37 -3328.97 -28326.8 -7.4147 
190 1 38.3932 4.48471 7.5 6.0492 7045.28 877.746 26894.8 -5643.93 37013 -33765.8 -7.41654 
191 1 39.8131 4.46863 7.5 6.0492 15047.3 788.376 -68.1089 5565.14 -6861.14 -32178 -7.41513 
192 1 40.537 5.69027 7.5 6.0492 6132.62 -1119.07 38252.3 -4551.97 40963.2 -37590.8 -7.41714 
193 1 41.9569 5.6742 7.5 6.0492 15629.9 -1079 3137.29 5232.6 -3584.33 -33229.2 -7.41531 
194 1 42.653 4.43648 7.5 6.0492 7927.86 -2779.81 38409.7 -3609.31 39046.9 -37792 -7.41715 
195 1 44.0729 4.42041 7.5 6.0492 15272.6 -3008.26 11704.6 4320.75 -8000.64 -32383.4 -7.41577 
196 1 44.7967 5.64205 7.5 6.0492 6924.91 -4304.24 50140.2 -2657.94 41729.2 -35677.5 -7.41777 
290 1 36.3051 8.19785 7.5 6.0492 2852.73 2218.64 38719.7 -6677.74 40572.4 -33069.3 -7.41718 
291 1 37.725 8.18177 7.5 6.0492 16262.3 3023.79 -12328 6673.28 2681.83 -28706.1 -7.41449 
292 1 38.4211 6.94406 7.5 6.0492 4419.8 579.678 38359.4 -5595.03 41544.4 -35800.7 -7.41715 
293 1 39.841 6.92799 7.5 6.0492 15961.1 973.324 -4988.88 6031.91 58.0246 -31845 -7.41488 
294 1 40.5649 8.14963 7.5 6.0492 3520.68 -1294.81 50482.9 -4406.44 44042.5 -38673.4 -7.4178 
295 1 41.9848 8.13355 7.5 6.0492 15996.8 -833.239 -1478.96 5932.79 2262.12 -32273.6 -7.41508 
296 1 42.6808 6.89584 7.5 6.0492 5192.1 -2851.05 50407.9 -3479.61 43434.1 -38063.3 -7.41779 
297 1 44.1007 6.87976 7.5 6.0492 15763 -2659.64 6361.47 4956.09 -1354.84 -31188.6 -7.4155 
298 1 44.8246 8.1014 7.5 6.0492 4214.41 -4181.01 62845.3 -2495.57 44193.5 -35091.2 -7.41845 
394 1 38.4489 9.40341 7.5 6.0492 2018.86 301.496 50424.5 -5405.19 43350.4 -37961.4 -7.4178 
395 1 39.8688 9.38734 7.5 6.0492 16254.6 1081.92 -8855.48 6741.59 5108.65 -31408.4 -7.41469 
398 1 42.7086 9.35519 7.5 6.0492 2648.41 -2843.48 63323.1 -3275.82 44600.9 -38039.4 -7.41848 
399 1 44.1285 9.33912 7.5 6.0492 15612.5 -2263.67 1572.55 5792.87 2894.3 -29570.6 -7.41526 
23 1 46.161 0.707265 7.5 6.04918 13364.1 -5053.42 27539.1 3054.6 -21582.6 -30108.3 -7.41659 
24 1 49.0008 0.675117 7.5 6.04918 12603.4 -6709.2 38433.6 -1518.15 28347.8 -25288.9 -7.41717 
25 1 50.4207 0.659043 7.5 6.04918 13643 -7088.11 36074 1613.47 -22902.7 -15576.3 -7.41705 
26 1 53.2605 0.626894 7.5 6.04918 12799.5 -7709.64 43070.7 -152.316 28004.9 -7154.6 -7.41742 
95 1 46.1888 3.16662 7.5 6.0492 14847.8 -4684.23 20314.2 3360.98 -12888.9 -29069.1 -7.41622 
96 1 46.8848 1.92891 7.5 6.04918 11276.2 -5620.3 38809.5 -2093.72 32431.8 -31715 -7.41718 
97 1 48.3048 1.91283 7.5 6.04918 14335.8 -6037.77 28559 2421.11 -17944.3 -23344.9 -7.41666 
98 1 49.0286 3.13447 7.5 6.0492 10244.4 -6582.6 48294.3 -1313.65 35903.8 -24781 -7.41768 
99 1 50.4485 3.1184 7.5 6.0492 14926.3 -6689.39 28639.1 1790.68 -14629 -14727.1 -7.41668 
100 1 51.1446 1.88068 7.5 6.04918 11663.1 -7282.37 46221 -718.581 32149.3 -16561.7 -7.41757 
101 1 52.5645 1.86461 7.5 6.04918 14445.5 -7351.92 34402.2 891.493 -19257.1 -5688.11 -7.41698 
102 1 53.2884 3.08625 7.5 6.0492 10509.6 -7521.42 52869.8 -77.5588 35373.4 -6427.94 -7.41792 
197 1 46.2166 5.62597 7.5 6.0492 15527.6 -4292.09 14270.1 3885.53 -5517.28 -27873.8 -7.41592 
198 1 46.9127 4.38826 7.5 6.0492 8649.38 -5568.36 49514.6 -1944.35 39151.2 -31250.4 -7.41774 
199 1 48.3326 4.37219 7.5 6.0492 15271.5 -5660.65 21826.3 2804.99 -10003.7 -22300.1 -7.41632 
200 1 49.0565 5.59383 7.5 6.0492 7517.56 -6366.13 59783.7 -1202.76 41074.5 -23892.5 -7.41828 
201 1 50.4764 5.57775 7.5 6.0492 15349.2 -6166.22 22163.7 2105.38 -7801.37 -13823.7 -7.41636 
202 1 51.1724 4.34004 7.5 6.0492 9093.73 -7097.67 56885.1 -641.114 38530.9 -15749.8 -7.41813 
203 1 52.5923 4.32396 7.5 6.0492 15229 -6917.13 27416.2 1017.39 -11687.9 -5088.04 -7.41663 
204 1 53.3162 5.5456 7.5 6.0492 7805.49 -7204.42 64305.6 -73.3488 40409.6 -5527.9 -7.41852 
299 1 46.2445 8.08533 7.5 6.0492 15481.5 -3776.91 8842.51 4583.6 -440.956 -26345.7 -7.41565 
300 1 46.9405 6.84761 7.5 6.0492 5873.2 -5370.86 61714.2 -1809.47 42982.1 -30401.4 -7.41838 
301 1 48.3604 6.83154 7.5 6.0492 15413.5 -5103.03 15850.8 3320.33 -4039.7 -21050.5 -7.41602 
302 1 49.0843 8.05318 7.5 6.0492 4767.03 -5974.26 72643.1 -1095.7 42907.3 -22644.2 -7.41896 
303 1 50.5042 8.03711 7.5 6.0492 15026.5 -5409.18 15961.7 2501.88 -3478.96 -12778.4 -7.41605 
304 1 51.2003 6.79939 7.5 6.0492 6316.41 -6714.04 69098.4 -583.055 41977.2 -14664.1 -7.41877 
305 1 52.6202 6.78332 7.5 6.0492 15195.2 -6227.41 20991.9 1172.23 -6177.58 -4566.75 -7.41631 
306 1 53.344 8.00496 7.5 6.0492 5045.33 -6682.82 77153.3 -75.9379 42112.6 -4551.89 -7.4192 
402 1 46.9684 9.30697 7.5 6.0492 3249.59 -5033.98 75017.3 -1650.07 43300.7 -29130.3 -7.41909 
403 1 48.3883 9.29089 7.5 6.0492 14915.4 -4362.93 9945.88 3958.29 -803.04 -19437.6 -7.41573 
406 1 51.2281 9.25875 7.5 6.0492 3659.55 -6150.93 82501.9 -523.189 41815.6 -13365.5 -7.41948 
407 1 52.648 9.24267 7.5 6.0492 14526.8 -5275.96 14368.6 1351.42 -3518.77 -4063.29 -7.41598 
27 1 54.6804 0.61082 7.5 6.04918 13717.8 -7699.94 38936.5 179.472 -23793.8 4074.8 -7.41721 
28 1 57.5202 0.578672 7.5 6.04918 12747.6 -7333.49 41240.7 1180.33 27290.4 12900.5 -7.41732 
29 1 58.9401 0.562597 7.5 6.04918 13609.5 -6922.37 35304.8 -1265.28 -24107 22789.2 -7.41701 
30 1 61.78 0.530449 7.5 6.04918 12441.8 -5555.83 33453.4 2563.22 26233.8 28747.3 -7.4169 
31 1 63.1999 0.514375 7.5 6.04918 13274.3 -4720.26 26320.6 -2754.91 -23805.6 34729 -7.41653 
103 1 54.7083 3.07017 7.5 6.0492 14950.8 -7290.81 31372.8 94.8193 -15702.8 4485.94 -7.41683 
104 1 55.4043 1.83246 7.5 6.04918 11752.6 -7583.08 47651.5 534.4 31614.2 3393.66 -7.41765 
105 1 56.8242 1.81639 7.5 6.04918 14447.9 -7271.38 33965.7 -669.599 -19853.4 14067.4 -7.41695 
106 1 57.5481 3.03803 7.5 6.0492 10449 -7165.6 50955.1 1097.35 34924.2 13675.6 -7.41782 
107 1 58.968 3.02195 7.5 6.0492 14964.2 -6529.43 27756.5 -1591.44 -15714 22709.9 -7.41663 
108 1 59.664 1.78424 7.5 6.04918 11547.8 -6536.54 42607.6 1811.89 30930.8 22127 -7.41738 
109 1 61.0839 1.76816 7.5 6.04918 14323.1 -5783.53 27412.4 -2208.68 -19641.2 29835.1 -7.4166 
110 1 61.8078 2.9898 7.5 6.0492 10063.6 -5478.52 43075.1 2401.8 34364.8 29621.8 -7.4174 
111 1 63.2277 2.97373 7.5 6.0492 14874.7 -4342.34 18859.6 -3160.48 -14866.3 34294 -7.41615 
205 1 54.7361 5.52953 7.5 6.0492 15310.5 -6726.69 24703 43.1372 -9027.1 4630.32 -7.4165 
206 1 55.4321 4.29181 7.5 6.0492 9205.2 -7371.31 58239.4 474.996 38085.9 4175.9 -7.4182 
207 1 56.852 4.27574 7.5 6.0492 15274.1 -6846.84 26939.4 -866.191 -12173.3 14022.1 -7.4166 
208 1 57.5759 5.49738 7.5 6.0492 7742.12 -6883 62306.2 977.85 40366.9 14332.2 -7.41841 
209 1 58.9958 5.48131 7.5 6.0492 15475.9 -6034.46 21233.1 -1981.13 -8578.78 22109.2 -7.4163 
210 1 59.6919 4.24359 7.5 6.0492 8969.92 -6404.22 53106.2 1640.06 37918.8 22848.5 -7.41793 
211 1 61.1118 4.22752 7.5 6.0492 15372 -5422.33 20542.7 -2617.62 -11381.2 29298.2 -7.41625 
212 1 61.8356 5.44916 7.5 6.0492 7335.98 -5348.91 54312.7 2218.68 40502.6 30276.4 -7.41799 
213 1 63.2556 5.43308 7.5 6.0492 15705.9 -3974.34 12673.8 -3690.33 -6938.44 33402 -7.41583 
307 1 54.7639 7.98888 7.5 6.0492 14921.9 -5893.01 18209.6 -36.3711 -4871.32 4507.61 -7.41617 
308 1 55.46 6.75117 7.5 6.0492 6430.47 -6949.23 70386.8 412.731 41712.8 4917.04 -7.41884 
309 1 56.8799 6.73509 7.5 6.0492 15288.7 -6179.57 20518.7 -1143.92 -6465.07 13532.1 -7.41628 
310 1 57.6038 7.95673 7.5 6.0492 4982.01 -6408.34 75064 857.709 42618.3 14713.1 -7.41909 
311 1 59.0237 7.94066 7.5 6.0492 15248.7 -5330.41 15081 -2502.97 -3809.1 20903 -7.416 
312 1 59.7197 6.70295 7.5 6.0492 6192.18 -6097.41 65144.7 1479.12 42254.9 23277.7 -7.41856 
313 1 61.1396 6.68687 7.5 6.0492 15645.9 -4911.34 14540.1 -3197.48 -4868.38 28162.9 -7.41595 
314 1 61.8635 7.90851 7.5 6.0492 4591.3 -5080.41 66893.4 2025.84 43705.7 30502.3 -7.41866 
315 1 63.2834 7.89244 7.5 6.0492 15826.6 -3521.17 7256.08 -4427.28 -1078.27 31893.5 -7.41556 
410 1 55.4878 9.21052 7.5 6.0492 3764.92 -6340.81 83745.9 347.726 41794.8 5478.42 -7.41955 
411 1 56.9077 9.19445 7.5 6.0492 14668.5 -5265.92 13958.5 -1499.9 -3550.28 12564.1 -7.41596 
414 1 59.7475 9.1623 7.5 6.0492 3536.86 -5635.74 78358.1 1305.78 43240.5 23210.4 -7.41927 
415 1 61.1675 9.14623 7.5 6.0492 15281.6 -4257.31 8761.31 -3943.79 -931.381 26302.6 -7.41566 
32 1 66.0397 0.482226 7.5 6.04918 11857.2 -2416.57 22050 4069.3 24808.6 35453.1 -7.41629 
33 1 67.4596 0.466152 7.5 6.04918 12656 -1256.16 14782.7 -4349.07 -22878.7 36068.9 -7.4159 
34 1 70.2994 0.434004 7.5 6.04918 11013.2 1569.08 10463.2 5732.68 22997.2 31142.8 -7.41567 
35 1 71.7193 0.417929 7.5 6.04918 11777.9 2711.21 4231.29 -6079.78 -21281 26947.4 -7.41534 
112 1 63.9238 1.73601 7.5 6.04918 11044.7 -4100.82 32582.6 3241.81 29880.7 33959.4 -7.41684 
113 1 65.3437 1.71994 7.5 6.04918 13974 -2886.73 16741.2 -3725.48 -18827.5 36585.9 -7.41602 
114 1 66.0675 2.94158 7.5 6.0492 9381.54 -2471.89 31580.2 3971.76 33109.4 36627.7 -7.41679 
115 1 67.4874 2.92551 7.5 6.0492 14536.5 -862.839 7347.54 -4618.96 -13734.4 35474.4 -7.41552 
116 1 68.1835 1.68779 7.5 6.04918 10266.5 -487.12 20601.9 4897.28 28138.1 35278.2 -7.4162 
117 1 69.6034 1.67172 7.5 6.04918 13328.1 994.428 5237.23 -5280.19 -17695 32247.7 -7.4154 
118 1 70.3273 2.89336 7.5 6.0492 8486.61 1398.72 19869.8 5821.38 30603 32811.3 -7.41616 
119 1 71.7472 2.87728 7.5 6.0492 13879.2 3139.65 -3298.53 -6064.6 -12830.6 26292.5 -7.41495 
214 1 63.9516 4.19537 7.5 6.0492 8412.95 -4125.91 42972.5 3061.71 37374.1 34907.5 -7.41739 
215 1 65.3715 4.17929 7.5 6.0492 15349.8 -2585.51 10048.3 -4120.13 -9987.74 35931.5 -7.41568 
216 1 66.0954 5.40094 7.5 6.0492 6651.12 -2557.8 42622.2 3831.59 39654.5 37828.9 -7.41737 
217 1 67.5153 5.38486 7.5 6.0492 15757.2 -590.962 1406.4 -5021.01 -5304.15 34868 -7.41522 
218 1 68.2113 4.14715 7.5 6.0492 7609.99 -685.441 30817.7 4832.85 35519.2 36843.3 -7.41674 
219 1 69.6312 4.13107 7.5 6.0492 15030.5 1282.9 -1444.8 -5436.75 -8919.74 31795.7 -7.41506 
220 1 70.3551 5.35271 7.5 6.0492 5814.53 1135.84 30536.6 5814.88 36716.9 35032.8 -7.41673 
221 1 71.775 5.33664 7.5 6.0492 15453.6 3391.9 -9286.02 -6138.93 -4784.75 26262.1 -7.41464 
316 1 63.9794 6.65472 7.5 6.0492 5647.02 -4047.72 54816.6 2878.48 42490.7 35608.2 -7.41802 
317 1 65.3993 6.63865 7.5 6.0492 16020.7 -2261.81 4566.96 -4731.73 -2565.29 34912.6 -7.4154 
318 1 66.1232 7.86029 7.5 6.0492 3962.63 -2574.62 54841.6 3642.96 43627.7 38802 -7.41803 
319 1 67.5431 7.84422 7.5 6.0492 16323 -362.023 -3348.97 -5661.17 1475.34 34034.9 -7.41498 
320 1 68.2392 6.6065 7.5 6.0492 4905.63 -853.606 42277.3 4720.15 40866.8 38555.2 -7.41736 
321 1 69.6591 6.59043 7.5 6.0492 16129.6 1496.85 -6663.7 -5803.62 -1163.58 31543.7 -7.41479 
322 1 70.3829 7.81207 7.5 6.0492 3246.93 882.722 42071.9 5700.29 40706 37524.4 -7.41735 
323 1 71.8029 7.79599 7.5 6.0492 16459.5 3535.05 -13827.1 -6430.54 2103.24 26628 -7.41441 
418 1 64.0073 9.11408 7.5 6.0492 3034.54 -3871.33 67715 2651.27 44579.2 35794.6 -7.41871 
419 1 65.4272 9.098 7.5 6.0492 16059.4 -1933.22 -176.299 -5570.21 2647.83 33317.5 -7.41517 
422 1 68.267 9.06586 7.5 6.0492 2392.29 -987.232 54547.1 4507.18 43634.9 40092.9 -7.41802 
423 1 69.6869 9.04978 7.5 6.0492 16630.1 1606.72 -10685.3 -6416.53 4880.42 31224.3 -7.41459 
36 1 74.5591 0.385781 7.5 6.04918 10032.5 5226.8 1889.59 7489.59 20794.5 18608.7 -7.41522 
37 1 75.9791 0.369707 7.5 6.04918 10788.5 5836.83 -2530.45 -7861.12 -18968.5 12557.8 -7.41499 
38 1 78.8189 0.337558 7.5 6.04918 9131.3 7173.24 -2291.96 9131.52 18187.8 5240.31 -7.41501 
39 1 80.2388 0.321484 7.5 6.04918 9923.46 6877.02 -4978.15 -9443.7 -15996.1 1763.65 -7.41488 
120 1 72.4432 1.63957 7.5 6.04918 9310.92 3479.84 10150.4 6737.69 25509.5 26383.3 -7.41565 
121 1 73.8631 1.6235 7.5 6.04918 12433.8 4738.33 -3701.66 -6914.83 -16376.7 19429.3 -7.41493 
122 1 74.587 2.84514 7.5 6.0492 7540.8 5043.58 11044.9 7781.02 26724.5 20798.4 -7.4157 
123 1 76.0069 2.82906 7.5 6.0492 12994.9 6257.68 -10168.5 -7572.12 -12230.4 11752 -7.41459 
124 1 76.7029 1.59135 7.5 6.04918 8365.59 6462.45 3638.71 8557.75 22086.5 12477.8 -7.41531 
125 1 78.1228 1.57527 7.5 6.04918 11481 6890.79 -8159.88 -8548 -14762.1 5488.34 -7.4147 
126 1 78.8467 2.79691 7.5 6.0492 6751.5 7156.03 6357.24 9494.31 21984.3 7731.75 -7.41547 
127 1 80.2666 2.78084 7.5 6.0492 12111.8 7174.39 -12483.5 -9069.46 -11451.4 556.989 -7.41449 
128 1 80.9627 1.54312 7.5 6.04918 7654.04 7349.35 1001.98 10006.4 18270.6 2232.07 -7.4152 
222 1 72.471 4.09892 7.5 6.0492 6703.18 3189 20037.3 6855.15 31784.7 28769.7 -7.41617 
223 1 73.891 4.08285 7.5 6.0492 14374.2 5046.14 -10564.3 -6735.24 -8711.09 19193.3 -7.41457 
224 1 74.6148 5.30449 7.5 6.0492 5000.84 4761.89 21054.7 7917.4 31421.1 24063.8 -7.41623 
225 1 76.0347 5.28842 7.5 6.0492 14808.5 6540.61 -16427.6 -7291.31 -5626.52 12031 -7.41427 
226 1 76.7308 4.0507 7.5 6.0492 5881.22 6258.08 12941.9 8802.36 26442 15492.7 -7.41581 
227 1 78.1507 4.03463 7.5 6.0492 13524.5 7183.42 -15186.3 -8124.47 -9072.28 5092.99 -7.41434 
228 1 78.8746 5.25627 7.5 6.0492 4383.41 7103.71 15393.6 9666.01 24737.9 11452.3 -7.41594 
229 1 80.2945 5.24019 7.5 6.0492 14010.4 7455.99 -18889.9 -8603.88 -6879.36 353.318 -7.41416 
230 1 80.9905 4.00248 7.5 6.0492 5323.77 7460.71 9421.94 10196.6 20688.5 5275.71 -7.41564 
324 1 72.4989 6.55828 7.5 6.0492 4130.36 2887.53 30802.3 6863.7 36404.5 31869 -7.41675 
325 1 73.9188 6.5422 7.5 6.0492 15833 5264.63 -15924.7 -6708.33 -1654.04 19766.7 -7.41429 
326 1 74.6427 7.76384 7.5 6.0492 2613.35 4473.07 31489.7 7892.42 34455.9 28137.9 -7.41679 
327 1 76.0626 7.74777 7.5 6.0492 16159.4 6746.03 -21219.8 -7156.32 300.97 13221.1 -7.41402 
328 1 76.7586 6.51006 7.5 6.0492 3491.31 6063.39 22647.5 8894.82 29478.4 19623.6 -7.41632 
329 1 78.1785 6.49398 7.5 6.0492 15205.3 7469.76 -20877 -7756.79 -3658.94 5777.43 -7.41404 
330 1 78.9024 7.71562 7.5 6.0492 2188.62 7079.94 24366.4 9665.5 26175.4 16220.7 -7.41642 
331 1 80.3223 7.69955 7.5 6.0492 15549.5 7779.66 -23991.4 -8168.19 -2655.58 1119.13 -7.4139 
332 1 81.0183 6.46183 7.5 6.0492 3105.72 7657.87 17796.3 10238.5 21961.1 9349.74 -7.41608 
426 1 72.5267 9.01763 7.5 6.0492 1778.77 2577.08 41995.1 6712.11 38976.3 35342.3 -7.41736 
427 1 73.9466 9.00156 7.5 6.0492 16761.2 5355 -19842.7 -6896.28 4256.87 20891.7 -7.4141 
430 1 76.7865 8.96941 7.5 6.0492 1336.08 5855.96 32305.4 8797.26 30963 24586.4 -7.41684 
431 1 78.2064 8.95334 7.5 6.0492 16447 7699.34 -25130.4 -7516.3 1110.49 7393.39 -7.41383 
434 1 81.0462 8.92119 7.5 6.0492 1115.88 7881.33 25671.4 10121.8 21953.3 14322.7 -7.41649 
40 1 83.0786 0.289336 7.5 6.04918 8538.53 6765.89 -3546.04 10331.3 15172.6 8.53316 -7.41498 
41 1 84.4985 0.273261 7.5 6.04918 9398.55 5660.22 -5523.64 -10472.9 -12581 2686.32 -7.41488 
42 1 87.3383 0.241113 7.5 6.04918 8397.31 4796.58 -5736.32 10754.3 11818.4 8159.14 -7.41489 
43 1 88.7582 0.225039 7.5 6.04918 9311.92 3492.89 -8478.07 -10625.6 -9069.02 17181.5 -7.41476 
129 1 82.3826 1.52705 7.5 6.04918 10721.9 6611.15 -8971.01 -9937.7 -12559.2 -399.609 -7.41469 
130 1 83.1064 2.74869 7.5 6.0492 6299.22 7107.42 4257.08 10520.8 17428.3 2386.3 -7.41538 
131 1 84.5264 2.73262 7.5 6.0492 11476.5 5680.08 -12374.8 -10305.6 -9638.04 811.157 -7.41453 
132 1 85.2224 1.4949 7.5 6.04918 7347.21 6170.69 -639.29 10700.9 14671.3 3415.08 -7.41514 
133 1 86.6423 1.47883 7.5 6.04918 10346.9 4485.62 -9652.67 -10742.3 -9464.09 7407.44 -7.41469 
134 1 87.3662 2.70047 7.5 6.0492 6265.37 5618.21 901.685 10522.8 14259.9 9978.98 -7.41523 
135 1 88.7861 2.68439 7.5 6.0492 11232.9 3105.3 -13999.8 -10914.8 -5985.53 14540.2 -7.41448 
136 1 89.4821 1.44668 7.5 6.04918 7489.84 4351.36 -5605.7 10389.2 11901 17523.4 -7.41491 
231 1 82.4104 3.9864 7.5 6.0492 12730.5 6777.18 -15776.2 -9524.27 -8894.89 -1571.49 -7.41434 
232 1 83.1343 5.20804 7.5 6.0492 4072.32 7523.5 12099.8 10529.4 18676.6 5526.84 -7.41579 
233 1 84.5542 5.19197 7.5 6.0492 13304.5 5839.28 -18322.5 -9946.03 -6695.17 -840.233 -7.41422 
234 1 85.2502 3.95426 7.5 6.0492 5131.77 6774.96 6664.81 10596 16264.7 5704.02 -7.41552 
235 1 86.6701 3.93818 7.5 6.0492 12210.1 4373.24 -15504.9 -10637.5 -6716.57 4924.63 -7.41439 
236 1 87.394 5.15982 7.5 6.0492 4072.02 6615.59 7555.65 10167.2 15497.6 11512.7 -7.41557 
237 1 88.8139 5.14375 7.5 6.0492 12856.3 2972.14 -18518.1 -10928.7 -3181 10833.6 -7.41425 
238 1 89.51 3.90603 7.5 6.0492 5288.89 5488.77 523.384 9813.24 14711.2 18459.6 -7.41522 
333 1 82.4383 6.44576 7.5 6.0492 14461.3 7085.37 -21476.1 -9046.31 -5375.43 -2014.94 -7.41404 
334 1 83.1621 7.6674 7.5 6.0492 2003.91 8042.46 19505.5 10418.4 18664.6 9411.18 -7.41617 
335 1 84.582 7.65132 7.5 6.0492 14842.7 6197.07 -23137.8 -9472.62 -4096.1 -2085.46 -7.41397 
336 1 85.2781 6.41361 7.5 6.0492 2990.14 7563.95 13695.9 10404.5 16593.7 8322.25 -7.41588 
337 1 86.698 6.39754 7.5 6.0492 13814.6 4552.26 -20334 -10343.7 -4303.71 2192.97 -7.41414 
338 1 87.4219 7.61918 7.5 6.0492 1981.86 7788.01 13691.7 9803.78 15094.8 12951.8 -7.41589 
339 1 88.8418 7.6031 7.5 6.0492 14200 3157.3 -21887.4 -10683.4 -1174.33 6489.57 -7.41408 
340 1 89.5378 6.36539 7.5 6.0492 3063.96 6872.65 6539.39 9253.92 15767.1 18597.7 -7.41553 
435 1 82.4661 8.90511 7.5 6.0492 15845.4 7475.41 -25894.2 -8556.52 -2256.39 -1657.73 -7.41381 
438 1 85.3059 8.87296 7.5 6.0492 1050.22 8439.18 19961.5 10154.8 15484.1 11378.2 -7.4162 
439 1 86.7258 8.85689 7.5 6.0492 15136.7 4954.73 -24004.1 -9869.85 -2506.37 -416.859 -7.41395 
442 1 89.5656 8.82474 7.5 6.0492 994.447 8382.64 11846.7 8781.44 14673.8 18313.5 -7.4158 