ITEM: TIMESTEP
235
ITEM: NUMBER OF ATOMS
15608
ITEM: BOX BOUNDS pp pp pp
0.0000000000000000e+00 1.0863695199999999e+02
0.0000000000000000e+00 1.8816472099999999e+02
0.0000000000000000e+00 1.8399999600000001e+01
ITEM: ATOMS id type x y z c_csym c_2[1] c_2[2] c_2[3] c_2[4] c_2[5] c_2[6] c_3 
1 1 6.99968e-06 3.19169e-07 7.43537 6.04537 -15918.1 -15901.4 -6947.97 2.31687 -0.00406178 -0.680381 -7.41274 
2 1 2.15754 1.1794 7.44218 6.03459 -26306.7 -6360.5 -4350.83 768.529 12682.1 -23036.3 -7.41303 
3 1 3.57677 1.14744 7.45009 6.02077 -25521.5 -9690.17 -3267.29 23094.2 10340.3 -28917.2 -7.41316 
4 1 6.41425 1.08599 7.46987 6.01607 -32253.9 -1645.12 3235.23 33105.6 10970.1 -42602.6 -7.41432 
5 1 7.83346 1.05881 7.4786 6.02307 -30303.5 -8579.33 -1800.42 66628.9 -2610.7 -25396.9 -7.4139 
52 1 0.0573736 2.45841 7.44218 6.02755 -22495.5 -10860.4 -4981.9 -8603.89 23853.6 1213.76 -7.41295 
53 1 1.47665 2.42519 7.44427 6.02719 -22159.3 -11294.4 -4181.38 -2371.37 26250.1 -12982.3 -7.41307 
54 1 2.21335 3.6387 7.45361 6.02096 -46228.3 11682.1 -1285.56 -14567.4 27812.8 -19747.4 -7.41339 
55 1 3.6325 3.60677 7.45987 6.01495 -43665.4 6266.42 -2695.58 6594.8 30270.8 -22482.9 -7.41343 
56 1 4.31362 2.36104 7.45843 6.02645 -45635.4 12678.6 1800.54 8977.06 18659.6 -38134.1 -7.41386 
57 1 5.73276 2.33132 7.46762 6.01755 -42925 2849.25 -3556.63 40372.3 13034.9 -28569.5 -7.41343 
58 1 6.46787 3.54611 7.4757 6.02289 -60138.2 30789.1 8827.53 16885.4 16899.9 -39100.7 -7.415 
59 1 7.88697 3.51845 7.48259 6.02392 -53827.8 11326.7 -8902.35 48517.4 8146.13 -17235.7 -7.4134 
60 1 8.56915 2.27345 7.48371 6.01803 -41952.1 13494.3 9673.9 41271.4 12734.3 -33667.5 -7.41538 
154 1 0.112066 4.91698 7.45839 6.01694 -30357.3 -7432.6 -3183.4 -29308.5 33812.1 2466.87 -7.4133 
155 1 1.53134 4.88402 7.4599 6.02075 -27552.7 -6368.97 1044.97 -23460.2 42105.1 -10936.9 -7.41385 
156 1 2.26587 6.0987 7.46982 6.01953 -60803.6 22212.7 -1411.4 -36648.5 27888.1 -13916.7 -7.41367 
157 1 3.685 6.06697 7.47379 6.01152 -53926.1 17299.9 398.637 -18274.3 36923.8 -14357.6 -7.41414 
158 1 4.36714 4.82159 7.46989 6.02003 -69061.7 35824 4390.49 -12454.6 23208.3 -30985.5 -7.4143 
159 1 5.78621 4.7916 7.47642 6.01351 -62335.7 21021.5 -5783.15 16071 23713.9 -18741.6 -7.41355 
160 1 6.51917 6.00752 7.48395 6.01583 -77585.1 50065.5 10645.5 -9332.61 13315.8 -29923.9 -7.4154 
161 1 7.93824 5.9791 7.48842 6.02023 -65794 24662.3 -12714.4 18653.3 11595.5 -7785.15 -7.41336 
162 1 8.62082 4.73406 7.48817 6.02071 -60002.8 37493.6 15908.4 17421.5 11663.4 -29168.9 -7.41613 
256 1 0.162866 7.37559 7.47557 6.01794 -35756.8 -6229.78 -6210.93 -47941.6 27321.7 2512.85 -7.41343 
257 1 1.58218 7.34326 7.47646 6.01994 -28030.3 -2618.64 7582.54 -42985.4 41852.5 -7931.32 -7.41493 
258 1 2.31488 8.55894 7.48355 6.02781 -65532.7 24420.3 -6540.68 -50621.3 15875.2 -8494.15 -7.41365 
259 1 3.73407 8.52773 7.48552 6.01407 -53385.7 22032.9 5681.84 -36479.2 30703.8 -5167.11 -7.41505 
260 1 4.41753 7.28291 7.48192 6.02011 -81184.5 45904.9 2334.77 -35157.9 15778.1 -21146.4 -7.41444 
261 1 5.8366 7.25275 7.48567 6.01315 -69150.5 30832.9 -4547.3 -11612 23283.4 -7828.29 -7.41405 
262 1 6.56803 8.46941 7.49069 6.01574 -83041.5 55049.9 7900.81 -32186.1 3222.41 -20345.2 -7.41536 
263 1 7.98713 8.44031 7.49326 6.02044 -66382.4 31068.7 -12128.7 -9693.21 9036.83 825.106 -7.41368 
264 1 8.67048 7.19548 7.49297 6.01685 -68439.6 48539.7 17512.5 -11139.2 4601.43 -22675.3 -7.4164 
6 1 10.6715 1.00346 7.49016 6.01622 -25143.5 -4010.98 6173.59 54495.4 11674.6 -19383.3 -7.41525 
7 1 12.0907 0.97888 7.49271 6.02213 -22792.7 -9547.53 -4513.46 77514 -12165.8 -2340.55 -7.41434 
8 1 14.9297 0.925291 7.49458 6.01776 -15904.6 -6667.58 5397.77 56999.3 16902.1 -3043.85 -7.41534 
9 1 16.349 0.901092 7.49509 6.01712 -13110.4 -8558.22 -6254.15 81130.3 -15196.3 -2364.43 -7.41451 
61 1 9.98834 2.2478 7.48876 6.03027 -37115.3 -2209.13 -8403.43 69648.6 -4456.14 -10204.5 -7.41373 
62 1 10.7232 3.46298 7.49194 6.02082 -38591.1 17119.9 16584.1 37411.8 12663.6 -19929.4 -7.41631 
63 1 12.1424 3.43771 7.49369 6.03137 -29967.1 -4886.54 -16507.4 60515.1 -7252.53 516.506 -7.41339 
64 1 12.8263 2.19371 7.49378 6.01881 -22823.7 213.349 12643.6 49117.3 15279.9 -8941.35 -7.41596 
65 1 14.2456 2.16908 7.49418 6.02379 -16967.8 -11248.3 -12580.5 70528.5 -11672.9 2094.59 -7.4139 
66 1 14.9811 3.38386 7.49547 6.01717 -15535.9 -5406.03 18721.4 42541.4 21328.7 -8123.66 -7.41649 
67 1 16.4004 3.35927 7.49597 6.02149 -6406.89 -16670.8 -20962.1 68596.4 -8025.62 -4116 -7.41361 
68 1 17.085 2.11572 7.49579 6.01094 -13058.2 -9599.86 11398.9 61435.7 24996.2 -9521.65 -7.41589 
163 1 10.04 4.70748 7.49174 6.03115 -49297.9 9501.2 -16804.7 44152.2 448.486 -4152.03 -7.41315 
164 1 10.7734 5.9233 7.49518 6.02505 -46225.5 29831.3 22930.1 9611.94 8703.14 -18750.1 -7.41698 
165 1 12.1927 5.89684 7.49656 6.03757 -31687.1 -348.792 -25071 32726.6 -4234.92 1542.89 -7.41288 
166 1 12.8771 4.65293 7.49593 6.02414 -26638.5 8831 23152.7 26849.3 15060 -12203.1 -7.41695 
167 1 14.2964 4.62745 7.49634 6.03174 -14580.5 -13097 -24761.9 49866.7 -6724.67 562.114 -7.41313 
168 1 15.0311 5.84253 7.4997 6.02217 -17369.2 -2959.88 29296.6 18929.2 21683.3 -16287.2 -7.4174 
169 1 16.4505 5.81723 7.50113 6.03007 -2947.48 -17497.7 -32809.7 48081.9 -1280.22 -9367.78 -7.41312 
170 1 17.1359 4.57404 7.4996 6.01117 -13904.2 -11533.4 25054.5 43689 30461.7 -17954.7 -7.417 
265 1 10.0897 7.16772 7.49538 6.02913 -52287.2 17239.3 -20925.7 12919.8 1193.54 820.1 -7.41303 
266 1 10.822 8.38399 7.49851 6.02286 -50321.7 35670.5 24701 -18231.6 2188.46 -19001.7 -7.4171 
267 1 12.2413 8.35623 7.50028 6.03664 -31602.5 6617.08 -28995 4356.5 -2274.14 226.301 -7.41283 
268 1 12.9263 7.11246 7.49979 6.02983 -30246 14718.4 29571.6 -837.642 11389 -17368.5 -7.41751 
269 1 14.3457 7.08587 7.50105 6.03879 -13308.4 -9197.65 -32988 24261 -2512.8 -3753.32 -7.41281 
270 1 15.0792 8.30146 7.50605 6.02889 -25003.9 4744.78 36444.3 -6073.67 18794.8 -27304 -7.41795 
271 1 16.4986 8.27545 7.50893 6.02771 -7091.77 -7117 -40976 26389.8 4403.64 -15998.1 -7.41302 
272 1 17.1848 7.03251 7.50734 6.01712 -21355.7 -6097.14 36791.7 20750.9 30581.2 -29768.1 -7.41795 
10 1 19.1885 0.848679 7.4992 6.00269 -13729.2 -6327.14 3197.82 87529.3 24696.5 -16310.6 -7.41541 
11 1 20.6078 0.827281 7.50326 5.99724 -10553.4 -4057.77 -7020.91 127202 -17129.1 -24014.4 -7.41479 
12 1 23.4473 0.780219 7.5154 5.96993 -17210.2 -116.13 3613.77 162538 33544.9 -36595 -7.41592 
13 1 24.8666 0.765033 7.52233 5.96774 -14229.8 3552.96 -6866.41 211777 -22148.1 -39794.4 -7.41513 
69 1 18.5043 2.09236 7.49774 6.0103 -6953.21 -11979.7 -14778.1 93645.2 -10832.4 -12821.2 -7.41419 
70 1 19.2402 3.30711 7.5016 5.99989 -16385.7 -10619.3 18592.9 76064.8 35794.4 -22816 -7.41655 
71 1 20.6596 3.28566 7.50632 6.00072 -7576.7 -9395.12 -23271.8 117420 -4337 -25529.2 -7.41407 
72 1 21.3439 2.04223 7.50701 5.98737 -19139 -4583.71 11277.4 116628 36800 -29730.2 -7.41619 
73 1 22.7632 2.02364 7.51343 5.98472 -13209.4 -1166.44 -15589.6 163421 -11632.2 -33756.1 -7.41456 
74 1 23.4987 3.23928 7.521 5.97204 -33240.2 6683.99 21974.7 150334 49026.9 -40923.5 -7.41723 
75 1 24.9179 3.22402 7.52881 5.97554 -25129.2 10071.3 -25065.6 200206 -5913.98 -38869.8 -7.41435 
76 1 25.6024 1.98097 7.52883 5.9569 -30348.3 10845 13844.2 203456 46866.4 -43378.1 -7.41688 
77 1 27.0216 1.96929 7.53593 5.9579 -25207.3 12796.8 -16481.2 251876 -15972.2 -40298.7 -7.41477 
171 1 18.5553 4.55039 7.50232 6.01567 -2286.29 -16593.4 -29275.3 78615.1 -1139.66 -16876.6 -7.41357 
172 1 19.2901 5.76561 7.5096 6.00266 -24676.6 -7164.19 33960.4 55877.3 40305.4 -33063.1 -7.41775 
173 1 20.7094 5.74407 7.51522 6.00808 -11309.8 -4608.52 -38295.4 99592.2 6084.67 -29055.5 -7.41366 
174 1 21.3948 4.50103 7.51415 5.98758 -30410.2 -1147.07 28819.7 99664.3 46723.9 -37075.9 -7.4175 
175 1 22.814 4.48242 7.52135 5.9927 -19532.2 3453.65 -32578.3 147621 1807.8 -34852.7 -7.414 
176 1 23.5477 5.699 7.53212 5.97811 -53568.6 20717.1 42145.3 126667 54492.6 -46849.2 -7.41876 
177 1 24.9668 5.68364 7.54029 5.98882 -41036.5 25470.7 -44053.6 176795 5437.9 -38256.9 -7.41383 
178 1 25.6521 4.44083 7.53909 5.96101 -54005.9 27549.8 34842.2 181645 58169.5 -46578.3 -7.41849 
179 1 27.0711 4.42891 7.54675 5.97155 -44115.5 28134.3 -36363.7 230251 -1456.52 -38897.2 -7.41406 
273 1 18.6042 7.00851 7.51125 6.01934 -5560.57 -9478.3 -41343.9 58991.4 6585.26 -22542.3 -7.41331 
274 1 19.3372 8.22468 7.52033 6.01146 -41227 7009.13 47756.8 33580.2 37813.4 -44886.4 -7.41885 
275 1 20.7565 8.20314 7.52652 6.00923 -24460.3 13071.9 -52066.2 79602.5 12501.4 -31732.1 -7.41345 
276 1 21.4428 6.9604 7.52552 5.99508 -48249.6 12148.7 46616.5 76435.9 47364.5 -46137 -7.41888 
277 1 22.862 6.94181 7.53306 6.00166 -33421.8 19460.6 -49611.6 125498 10329.6 -35605.3 -7.41364 
278 1 23.593 8.15979 7.5444 5.99132 -78653.5 43092.4 61986.4 99825.4 49626.4 -52783.2 -7.42027 
279 1 25.0121 8.14442 7.55223 6.00064 -62441.9 50597.1 -63693.6 149726 10373.7 -35966.4 -7.41338 
280 1 25.6983 6.90184 7.552 5.97367 -80642.8 50481.1 57224 151055 57257.3 -49943.3 -7.42019 
281 1 27.1173 6.88965 7.5596 5.98896 -66586.1 52083.2 -57801.4 199123 5858.46 -36601.1 -7.41349 
14 1 27.7063 0.72662 7.53579 5.94097 -21844.2 8584.91 4735.72 252344 40676.8 -43582.7 -7.41642 
15 1 29.1255 0.718438 7.54129 5.94115 -19863.8 10724.9 -7146.4 296002 -27225.5 -39170.7 -7.41535 
16 1 31.9656 0.688672 7.54971 5.92284 -26030.3 15072 4784.24 323608 44298.7 -37607 -7.41657 
17 1 33.3848 0.686075 7.55245 5.92361 -24950.4 15239.5 -7280.42 353550 -29883.8 -29704.2 -7.41545 
78 1 27.7562 3.1863 7.54492 5.94513 -48541.6 29296.7 25570.5 236680 57569.3 -44872.1 -7.41801 
79 1 29.1753 3.17782 7.5511 5.95395 -41646.4 26682 -27378 280887 -9793.56 -37252.8 -7.41438 
80 1 29.8606 1.93561 7.5485 5.93209 -38691.4 24772.2 15276.9 285733 52616.7 -41748.7 -7.41735 
81 1 31.2797 1.93031 7.55284 5.93744 -34729.4 21883.5 -17596.3 323364 -19383.4 -33860.4 -7.41483 
82 1 32.0134 3.14861 7.56156 5.92616 -55820 43269.4 26786.7 304704 61176.7 -36920.6 -7.41839 
83 1 33.4324 3.14555 7.56449 5.93887 -50120.4 33851.3 -28588.2 335788 -12155.3 -28058.1 -7.41434 
84 1 34.119 1.90435 7.55941 5.91701 -42683.6 31751.1 15422.9 341453 54605.7 -32149.3 -7.41746 
85 1 35.5381 1.9036 7.56108 5.92513 -39640.5 25131.5 -17656.4 365375 -21049.4 -23572.4 -7.41485 
180 1 27.8033 5.64724 7.55808 5.95593 -76616.2 53662 48859.6 205081 62412.5 -46245.9 -7.41985 
181 1 29.2222 5.63828 7.56447 5.97214 -65187.9 49079.1 -49328.2 249157 838.012 -35379.7 -7.41368 
182 1 29.9082 4.39616 7.56136 5.93953 -67868.2 51112.8 38265.6 257851 63907.4 -41764 -7.41923 
183 1 31.3272 4.39032 7.566 5.95498 -59317.9 42417.4 -39320.2 296032 -4950.93 -32299 -7.41396 
184 1 32.0582 5.61006 7.57653 5.93953 -84777.8 71907.1 51402.5 266392 65802.6 -36111.8 -7.42046 
185 1 33.477 5.60622 7.5795 5.95931 -74659.9 57208.1 -51708.8 298148 -2381.97 -26835.5 -7.41355 
186 1 34.1643 4.36506 7.574 5.92568 -70711.6 60519 38891.4 309638 65867.4 -30791.4 -7.41951 
187 1 35.5832 4.36361 7.57553 5.94357 -63205.6 44998.7 -39870.7 334754 -6877.58 -22604.9 -7.41391 
282 1 27.8464 8.10962 7.57058 5.97403 -105590 81340.5 72594.4 169016 55425.7 -47516.5 -7.4216 
283 1 29.2652 8.10018 7.57677 5.99005 -90027 78165.7 -72451.8 212318 3586.04 -32171.5 -7.41303 
284 1 29.9522 6.8582 7.5755 5.95618 -97025.6 79294 63137.3 218407 61995.8 -41850.6 -7.42118 
285 1 31.371 6.85165 7.58018 5.9759 -84120.9 69106.1 -62927.4 256430 711.898 -30257.9 -7.41325 
286 1 32.0988 8.07307 7.59017 5.96021 -112489 100448 76917.9 222433 58356.3 -35870.2 -7.42239 
287 1 33.5176 8.06832 7.59317 5.97704 -98068.4 85786.7 -76147.9 254260 -1447.88 -24942.5 -7.41281 
288 1 34.2059 6.8273 7.5896 5.94364 -97299.4 88600.3 64420.4 264315 64203 -29916.3 -7.42163 
289 1 35.6247 6.82486 7.59101 5.96476 -85459.4 69710.1 -64014.2 290213 -2235.33 -21697.2 -7.41315 
18 1 36.2253 0.662934 7.55615 5.91221 -29741.2 18601.5 4681.28 365718 45433.5 -27643.8 -7.41654 
19 1 37.6444 0.66397 7.55714 5.91473 -29089.7 17406.9 -6801.88 383117 -31116.3 -19519.8 -7.41551 
20 1 40.485 0.645223 7.5584 5.90873 -32318.2 20426.3 4690.23 385350 45448.6 -18891.7 -7.41648 
21 1 41.9041 0.648366 7.55859 5.91146 -31661 18737.9 -6143.5 394453 -31955.5 -11431.7 -7.41557 
22 1 44.7448 0.632311 7.55877 5.90867 -33655 21623.4 4714.9 392349 44985.4 -12284.6 -7.41645 
86 1 36.2708 3.12288 7.56915 5.91566 -56614.7 47209.7 26664.7 345014 61986.8 -26191.9 -7.41846 
87 1 37.6898 3.12341 7.56975 5.92984 -51667.3 33853.7 -28152.5 364003 -13498.2 -18331 -7.41435 
88 1 38.3777 1.88309 7.56351 5.91005 -43799.7 33306.6 15241.7 370615 54781.7 -22292.2 -7.41742 
89 1 39.7967 1.88514 7.5637 5.91897 -41087.2 24973.2 -16897.3 384177 -22128.1 -14534 -7.4149 
90 1 40.5286 3.10508 7.57085 5.911 -53652.1 45406.5 26105.1 363952 61662.7 -17280.5 -7.41842 
91 1 41.9476 3.10773 7.57017 5.92483 -48975.3 30473.7 -27003.1 374704 -14605.9 -10585.1 -7.4144 
92 1 42.6366 1.86808 7.56401 5.90791 -42526.1 32486.8 14997.2 382626 54250.1 -14612.5 -7.41737 
93 1 44.0556 1.87171 7.56347 5.91659 -39921.2 23294.7 -15999.7 389750 -23067.7 -7709.08 -7.41496 
94 1 44.7869 3.09205 7.56933 5.90949 -48365.8 41105.3 25522.9 370577 60888 -10687.2 -7.41837 
188 1 36.3133 5.58428 7.58517 5.92927 -81480.6 74504 51149.8 303224 67016.8 -24746.4 -7.42064 
189 1 37.7322 5.58389 7.58536 5.94989 -72264 54154 -51264 323410 -4133.41 -17852.5 -7.41353 
190 1 38.4209 4.34368 7.57836 5.9182 -66715.2 59680.3 38195.1 337045 66148.4 -20567.4 -7.41953 
191 1 39.8398 4.34498 7.57788 5.93603 -59859.1 40846.9 -38778.7 352126 -8160.03 -14020.8 -7.41394 
192 1 40.5693 5.56617 7.58645 5.92355 -72305.9 68445.8 49773.7 320772 67252.4 -15715.4 -7.42062 
193 1 41.9882 5.56788 7.58485 5.94278 -63588.3 45637 -49562.3 332793 -5326.5 -10518.9 -7.41358 
194 1 42.6781 4.32844 7.57758 5.91472 -59033.9 53988.6 37151.4 348428 65700.9 -12855.6 -7.41948 
195 1 44.0971 4.33133 7.57593 5.93113 -52520.1 33649.7 -37251.1 357076 -9260.24 -7466.08 -7.414 
196 1 44.8262 5.55274 7.58303 5.92043 -60237.7 58598.3 48310 326861 66908.8 -9110.88 -7.42057 
290 1 36.3517 8.04711 7.60019 5.95017 -104658 100514 76869.3 254786 60278.8 -24324 -7.42269 
291 1 37.7705 8.04561 7.60015 5.96867 -91238.3 78944 -75911.9 275695 -4032.19 -17250.2 -7.41277 
292 1 38.4604 6.80561 7.59455 5.93559 -87674.9 84199.7 63211 289043 65330.8 -19511.7 -7.42173 
293 1 39.8793 6.80584 7.59346 5.9564 -76671.7 60896 -62634.8 305186 -3788.36 -13872.9 -7.41318 
294 1 40.6059 8.02845 7.6017 5.94337 -89229.8 89651.6 74865.1 270198 61592.5 -15264.9 -7.42274 
295 1 42.0247 8.02898 7.59934 5.96333 -76505.4 64934.5 -73849.2 283032 -5329.21 -10597.5 -7.41284 
296 1 42.7161 6.78987 7.5928 5.93069 -73427.3 73241 61255.1 299285 65749.2 -11747.4 -7.42169 
297 1 44.135 6.79167 7.59004 5.95014 -62969.9 47910.6 -60483.7 308878 -4814.37 -7660.35 -7.41326 
298 1 44.8615 8.01432 7.59686 5.93875 -70559.9 73973.7 72549.3 275233 62210.8 -8560.1 -7.42271 
394 1 38.4958 9.26882 7.60807 5.95769 -107104 107436 88505 240705 55008.6 -19691.9 -7.42365 
395 1 39.9146 9.26788 7.60667 5.97341 -92036 84949.4 -87216.4 257519 -7082.1 -13552 -7.41241 
398 1 42.7499 9.25229 7.60624 5.95169 -86617 91012.1 86003.8 249195 56499.3 -11873.1 -7.42368 
399 1 44.1688 9.25287 7.60259 5.97008 -72289.3 65947.4 -84776.7 259293 -8154.64 -7894.52 -7.41251 
23 1 46.1639 0.63658 7.55861 5.911 -33001.5 19297.6 -5592.8 396744 -32691.8 -5410.41 -7.41562 
24 1 49.0046 0.622047 7.55832 5.90979 -34064.6 22031.8 4725.29 394023 44320.9 -7321.09 -7.41644 
25 1 50.4236 0.626862 7.55801 5.91141 -33219.9 19266.1 -5219.48 395909 -33399.7 -780.351 -7.41566 
26 1 53.2644 0.613021 7.55754 5.91026 -32843.1 21713.8 4697.99 394395 43597 -3263.34 -7.41644 
95 1 46.2059 3.09585 7.56794 5.92188 -43849.7 25304.9 -25865.6 376492 -15609.1 -4819.18 -7.41447 
96 1 46.8957 1.85668 7.5627 5.90792 -39991.2 30356.9 14792.5 386056 53456.6 -8922.48 -7.41734 
97 1 48.3148 1.86112 7.56178 5.91537 -37346.8 20596.9 -15281.4 389733 -23914.4 -2596.03 -7.41501 
98 1 49.0458 3.08164 7.56602 5.90907 -41440 35613.9 25112.4 371833 59976.2 -5726.49 -7.41834 
99 1 50.4649 3.08601 7.56424 5.92002 -36844.5 19284.9 -25040 375109 -16478.6 -384.873 -7.41452 
100 1 51.1552 1.84714 7.56047 5.90838 -35888 27462.8 14669.4 386445 52615 -4492.9 -7.41733 
101 1 52.5743 1.85193 7.55935 5.91448 -33097.8 17078.6 -14837.7 388261 -24664.2 1504.14 -7.41504 
102 1 53.3053 3.07242 7.56177 5.90843 -32967.1 29246.8 24899.9 371656 59087.9 -1593.96 -7.41833 
197 1 46.2452 5.55561 7.58032 5.93823 -51875.2 34535.1 -47754.1 333898 -6328.88 -4955.4 -7.41366 
198 1 46.9362 4.31676 7.57377 5.91313 -49520.7 45994.5 36268.5 351546 64913.1 -7183.69 -7.41943 
199 1 48.3552 4.32049 7.57143 5.92805 -43049.8 25083.8 -35942.6 356534 -10233.3 -2533.71 -7.41406 
200 1 49.0843 5.54188 7.5767 5.91828 -46291.2 47078.9 47234.8 327789 66223.9 -4110.75 -7.42053 
201 1 50.5034 5.54533 7.57334 5.9347 -37966.6 22344.5 -46393.9 331852 -7201.5 -633.816 -7.41371 
202 1 51.1951 4.3069 7.56821 5.91184 -38240.2 37058 35723.4 351560 64019.9 -2710.05 -7.41941 
203 1 52.6142 4.31099 7.56551 5.92547 -31710.9 15436 -35098.1 354377 -11037.3 1442.34 -7.4141 
204 1 53.3436 5.53216 7.56878 5.91601 -30859.7 34541 46650 327116 65386 153.068 -7.42052 
299 1 46.2805 8.01599 7.59289 5.95741 -58347.4 47576 -71468.3 282803 -6178.72 -5286.81 -7.41294 
300 1 46.9731 6.77761 7.58657 5.92741 -57092.4 59284.8 59528.1 301829 65578 -6005.15 -7.42165 
301 1 48.3921 6.78025 7.58274 5.94548 -46848.8 33044.8 -58553.8 307464 -5675.46 -2860.84 -7.41333 
302 1 49.1189 8.0027 7.58771 5.93487 -49802.6 56200.2 70744.9 275457 62152.2 -3382.99 -7.42269 
303 1 50.538 8.00494 7.58273 5.95233 -37730.3 28992.5 -69604.3 279756 -6910.87 -1029.85 -7.413 
304 1 51.2315 6.76711 7.57759 5.92443 -38869.8 44176.3 58396.5 301365 64992.1 -1389.16 -7.42162 
305 1 52.6507 6.77011 7.5732 5.94128 -28606.9 17149.3 -57274.1 304522 -6422.27 1068.07 -7.41337 
306 1 53.378 7.99215 7.57611 5.93112 -27556.8 37330.6 69686.6 274294 61587.2 1141.98 -7.42267 
402 1 47.0059 9.23914 7.59823 5.94684 -63587.1 70946.8 83578.2 250568 57202.2 -5930.13 -7.42367 
403 1 48.4249 9.24052 7.59301 5.96404 -49629.2 44579.6 -82407.6 256428 -8881.63 -3261.16 -7.4126 
406 1 51.2639 9.22769 7.58613 5.94234 -38608.8 49311.2 81866.6 249386 57132.7 -1022.14 -7.42366 
407 1 52.6831 9.22942 7.58006 5.95832 -24733.2 21932.3 -80759.4 252339 -9513.14 648.274 -7.41264 
27 1 54.6835 0.618013 7.55716 5.91155 -31888.2 18091.8 -5029.01 394856 -34092 3139.91 -7.41568 
28 1 57.5243 0.604205 7.55665 5.90922 -30687.5 20128.2 4605.88 395049 42885.6 680.729 -7.41643 
29 1 58.9434 0.609074 7.55626 5.91045 -29651 15516.5 -4994.26 394133 -34718.8 7083.68 -7.41568 
30 1 61.7845 0.594655 7.55577 5.90794 -27210.2 17291.8 4427.38 395731 42250.1 5267.13 -7.4164 
31 1 63.2036 0.59906 7.55536 5.90941 -25956.3 12140 -5091.03 392549 -35205.1 11830 -7.41568 
103 1 54.7244 3.07698 7.55983 5.91819 -28300.5 11985.2 -24588.3 373298 -17176 3410.62 -7.41454 
104 1 55.4151 1.83826 7.55784 5.90826 -30473.2 23477.6 14596.9 386598 51820.6 -534.828 -7.41733 
105 1 56.8342 1.84308 7.55669 5.91328 -27608.3 12148.3 -14652.1 386970 -25288.3 5286.84 -7.41505 
106 1 57.5656 3.06334 7.55732 5.90729 -23721.9 21391.4 24833.6 371642 58302.8 2525.81 -7.41833 
107 1 58.9847 3.06778 7.55547 5.91596 -18879.6 3269.55 -24458.4 371724 -17661.8 7292 -7.41453 
108 1 59.6754 1.82909 7.55528 5.90769 -24236.8 18106.9 14542.2 387032 51144.5 3754.32 -7.41731 
109 1 61.0945 1.83363 7.55422 5.91169 -21157.1 5954.44 -14688.4 385698 -25728.7 9511.6 -7.41505 
110 1 61.8266 3.05347 7.55337 5.90596 -13377.2 12384.8 24869.9 371606 57705.3 7395.5 -7.41831 
111 1 63.2458 3.05745 7.55175 5.91357 -8167.19 -6247.06 -24614.2 369340 -17851.2 11994.5 -7.41452 
205 1 54.7628 5.53579 7.56517 5.93123 -22465.5 8822.77 -45620 329295 -7890.79 3106.23 -7.41373 
206 1 55.455 4.29763 7.56189 5.91016 -25853.9 26883.6 35490 351122 63147.9 1394.06 -7.41941 
207 1 56.8741 4.30175 7.55916 5.92262 -19221.1 4192.75 -34702.9 352299 -11622.6 5163.49 -7.41411 
208 1 57.6042 5.52251 7.56058 5.91342 -14822.8 20386 46467.5 326585 64536.1 4505.49 -7.42052 
209 1 59.0235 5.52602 7.55718 5.92738 -6103.99 -6190.31 -45360.5 326950 -8364.26 6964.26 -7.41372 
210 1 59.7159 4.28801 7.55587 5.90813 -12684.8 15292 35487.5 350917 62404.4 5932.7 -7.4194 
211 1 61.1352 4.29186 7.55343 5.91943 -5722.32 -8182.39 -34697.8 350192 -11950.5 9348.98 -7.41409 
212 1 61.8661 5.512 7.5534 5.9107 1943.87 4986.15 46593.1 326154 63803.7 9695.52 -7.42051 
213 1 63.2855 5.51508 7.55053 5.92342 11139.3 -22006.3 -45573.5 323873 -8537.26 11614.1 -7.41369 
307 1 54.7973 7.99457 7.57076 5.94729 -15405.2 9014.93 -68512.3 276310 -7541.06 2709.7 -7.41301 
308 1 55.4915 6.75716 7.56742 5.92127 -19707.4 27781 57866 300448 64176.6 2952.84 -7.42162 
309 1 56.9108 6.76018 7.563 5.93684 -9303.09 -483.161 -56656.5 301703 -7002.07 4781.33 -7.41337 
310 1 57.639 7.98161 7.56407 5.92709 -5007.94 16520.1 69284.4 273474 60740 5826.81 -7.42267 
311 1 59.0584 7.9839 7.55904 5.94183 7521.26 -12878.5 -68139.6 273360 -8040.03 6559.08 -7.41299 
312 1 59.7531 6.74677 7.55776 5.91785 -32.3485 9552.52 57803.4 300006 63314.2 7804.35 -7.42161 
313 1 61.1725 6.74953 7.55385 5.93205 10815.8 -19387.4 -56637.2 298983 -7389.22 8939.05 -7.41334 
314 1 61.9019 7.97017 7.5536 5.92302 17727.6 -5832.77 69386.5 273209 59822.6 11375.5 -7.42266 
315 1 63.3215 7.97204 7.54943 5.93625 30907.3 -35342.2 -68446.2 270186 -8303.29 11091.2 -7.41294 
410 1 55.5241 9.21671 7.57222 5.93774 -12801.4 26136.9 80965.7 248077 56502.8 3683.38 -7.42365 
411 1 56.9434 9.21845 7.56611 5.95228 1312.87 -2633.25 -79931.2 248795 -10044.4 4357 -7.41263 
414 1 59.7864 9.20524 7.559 5.9329 13166.3 687.219 80723.7 247778 55593.3 8922.37 -7.42364 
415 1 61.2059 9.20672 7.55364 5.94583 27920 -28502.9 -79886.4 246010 -10433.8 8415.94 -7.41259 
32 1 66.0449 0.583252 7.55476 5.90736 -22632.7 13956.2 4141.36 393949 41673.5 11170.6 -7.41635 
33 1 67.4641 0.586665 7.55421 5.90874 -21250.3 8353.86 -5276.88 386565 -35413.2 18107.2 -7.4157 
34 1 70.3056 0.568388 7.55308 5.90941 -17805.8 10255 3714.42 384504 41029.6 19074.1 -7.41629 
35 1 71.7248 0.569912 7.55207 5.91094 -16249.1 4718.32 -5447.79 369459 -35110.5 26435.9 -7.41575 
112 1 63.9362 1.81864 7.55304 5.90627 -16616.3 11944 14482.2 386595 50626 9075.3 -7.41728 
113 1 65.3554 1.8225 7.55206 5.9104 -13264.8 -552.261 -14913.7 382161 -25863.3 14917.7 -7.41504 
114 1 66.0884 3.04172 7.55017 5.90551 -2483.34 3189.85 24953.7 369315 57276.4 13682 -7.41828 
115 1 67.5077 3.04475 7.54878 5.91225 3000.3 -15646.9 -24968.9 362629 -17546.3 18200.7 -7.41452 
116 1 68.1976 1.80563 7.55097 5.90605 -8993.58 5704.27 14346.5 381644 50170.5 16104.3 -7.41723 
117 1 69.6169 1.80813 7.54994 5.91108 -5485.95 -6995.35 -15215.5 371408 -25495.2 22145.4 -7.41507 
118 1 70.351 3.02657 7.54753 5.90751 7132.81 -5657.87 24897.9 359772 56846.8 22028 -7.41822 
119 1 71.7704 3.02777 7.54618 5.9142 13068.7 -23398.1 -25256.7 345414 -16448.8 26346.8 -7.41457 
214 1 63.9779 4.27707 7.55092 5.90635 1293.72 2894.87 35662.9 350003 61852.9 11607.4 -7.41939 
215 1 65.3973 4.28027 7.5489 5.91659 8676.32 -20764.1 -35028.4 345902 -11855.9 14684.1 -7.41407 
216 1 66.1294 5.49964 7.54799 5.909 18315.9 -10690.4 46923 323752 63220.3 16363.4 -7.42049 
217 1 67.5489 5.50179 7.54576 5.92061 27993.7 -37437.2 -46100.2 316781 -8109.05 17653.8 -7.41367 
218 1 68.241 4.26361 7.54727 5.9065 14091.6 -9308.33 35866.8 344860 61428.2 19056.5 -7.41935 
219 1 69.6604 4.26548 7.54565 5.91587 21927.1 -32422.7 -35469.9 334813 -11028.2 21739.2 -7.41409 
220 1 70.3938 5.48396 7.54454 5.91045 32233.7 -25149.8 47134.4 314806 62773.8 25041.5 -7.42042 
221 1 71.8134 5.48437 7.54291 5.92118 42567.6 -50091.7 -46496.7 300099 -6567.03 25407.1 -7.4137 
316 1 64.0163 6.73505 7.55 5.9148 19599 -9541.93 58099.8 299126 62529.4 13833.4 -7.4216 
317 1 65.4359 6.73718 7.5469 5.92764 31066.7 -38399.3 -57131.8 294434 -7363.68 14129.3 -7.4133 
318 1 66.1667 7.95689 7.54605 5.92008 39141.3 -28439.5 69825.3 271556 58992 18325.9 -7.42262 
319 1 67.5863 7.9579 7.54301 5.93186 53076.1 -57034.3 -69180.8 263590 -7883.64 16741.2 -7.41289 
320 1 68.281 6.72086 7.54484 5.91376 37175 -28234.3 58521.6 294572 61905.6 21574.4 -7.42156 
321 1 69.7007 6.72174 7.54265 5.92542 49379.2 -55660.5 -57779.6 283704 -6418.4 20777.2 -7.41328 
322 1 70.4329 7.94043 7.54206 5.92032 56961 -49221.4 70148 264229 58530.4 26989.9 -7.42252 
323 1 71.8527 7.93979 7.54023 5.93094 71743 -75278.5 -69715.3 248487 -5998.14 23646.2 -7.41288 
418 1 64.0509 9.19244 7.54862 5.92849 38277 -25557.8 80978.6 247732 54648.8 15255.7 -7.4236 
419 1 65.4705 9.19332 7.54451 5.93979 53784.9 -54327.1 -80497.9 242010 -10364.1 13248.4 -7.41251 
422 1 68.3173 9.17724 7.54231 5.92613 60455 -51004.8 81406.2 244770 53976.3 23006 -7.42352 
423 1 69.7371 9.17695 7.5397 5.93601 76885.8 -77767.3 -81259.8 232680 -9109.57 19061.2 -7.41245 
36 1 74.5663 0.547578 7.54936 5.91703 -12711.6 7058.81 3188.71 358706 39966.6 29197.7 -7.4162 
37 1 75.9856 0.545778 7.54712 5.92004 -11327.9 1566.6 -5334.49 331684 -33806.2 36148 -7.41583 
38 1 78.8268 0.517227 7.54073 5.93379 -9527.6 4126.57 2799.43 306544 37422.5 39331.3 -7.41604 
39 1 80.2461 0.510164 7.53614 5.93532 -8806.02 -899.837 -4799.5 265425 -30556.9 42837.4 -7.41581 
120 1 72.4594 1.78808 7.5484 5.91005 -2027.11 179.543 13986.2 365376 49513 25395.4 -7.41715 
121 1 73.8787 1.78808 7.54688 5.91599 1693.28 -11564 -15304.5 345331 -24291.7 31274.4 -7.41516 
122 1 74.6139 3.00563 7.54452 5.91471 13958.7 -11925.9 24396.2 335112 56004.1 32543.3 -7.41807 
123 1 76.0334 3.00359 7.54263 5.92174 20093.9 -27060.6 -24914.5 308853 -14066.2 35657.1 -7.4147 
124 1 76.7212 1.763 7.54349 5.92199 2092.73 -3334.6 13329.3 328248 47923.3 36256.4 -7.41698 
125 1 78.1406 1.75879 7.54052 5.92598 5624.45 -12938.6 -14668.8 294603 -21662.6 40092.7 -7.41526 
126 1 78.8766 2.97537 7.53875 5.93227 13486.6 -13355.1 23272.9 286417 53566.3 42892.9 -7.41773 
127 1 80.2961 2.96818 7.53522 5.93582 19428.5 -23393.1 -23300.4 246319 -10020.6 41956.2 -7.41482 
128 1 80.9823 1.72638 7.5331 5.94515 61.6306 -3524.76 12433.6 262964 43764.7 43992.9 -7.41663 
222 1 72.5048 4.24574 7.54463 5.91127 24379.5 -19518.1 35728.5 329505 60959.5 28724.3 -7.41924 
223 1 73.9243 4.24521 7.54314 5.92005 32688.1 -40273.7 -35515.6 309669 -8970.8 30506.9 -7.41417 
224 1 74.6589 5.46272 7.54257 5.91845 40729.2 -35706.1 46638.7 292646 62391.3 35658.5 -7.42021 
225 1 76.0786 5.46004 7.54111 5.92762 51578.8 -55981 -45908.7 266401 -3171.62 34119.6 -7.41384 
226 1 76.7688 4.2206 7.54168 5.92367 27939.4 -24858.7 34783.2 295594 59891.9 39774 -7.41896 
227 1 78.1884 4.21601 7.5395 5.9294 36448.5 -40319.7 -34262.3 262549 -5110.64 38932.6 -7.41435 
228 1 78.9239 5.4326 7.54004 5.93681 37502.8 -37734.2 44819.5 249939 61263.5 45993.3 -7.41971 
229 1 80.3436 5.42501 7.53763 5.94028 48503.2 -49350 -43096.7 210441 2323.59 40357.3 -7.41407 
230 1 81.0321 4.18432 7.53536 5.94754 19376.7 -21298.7 32737.6 237071 56480.7 47773.3 -7.41837 
324 1 72.5469 6.70244 7.5424 5.91738 50541.4 -44115.7 58507.7 281092 61626.4 31262.8 -7.42142 
325 1 73.9667 6.70104 7.541 5.92816 63519.6 -67954.8 -57841 260664 -3756.26 28769.5 -7.41334 
326 1 74.7002 7.9187 7.54149 5.92683 67631.5 -64743 69534.7 245467 58864.5 37101.5 -7.42224 
327 1 76.1201 7.91517 7.54053 5.93531 82976.1 -85161.9 -68910.2 218673 -1643.03 31135 -7.41302 
328 1 76.8132 6.67714 7.54172 5.92937 54127.8 -52864.7 57252.1 251781 61691.9 41996.9 -7.42103 
329 1 78.233 6.67191 7.54037 5.93584 67380.2 -69574.8 -55987.6 218781 1415.47 36445.2 -7.41356 
330 1 78.9675 7.88865 7.54236 5.94344 63224.1 -68964.9 66901.6 209244 59694.1 46918.9 -7.42162 
331 1 80.3874 7.88054 7.54098 5.94628 78769.8 -78714 -64851.4 170222 5502.12 36893.7 -7.41335 
332 1 81.0787 6.6413 7.53958 5.95304 41355.9 -47996.2 53841.5 201726 60543 50248.2 -7.42024 
426 1 72.5851 9.15805 7.54056 5.92835 76998.4 -72654 81292.2 233923 54136.4 32138.1 -7.42331 
427 1 74.0051 9.15564 7.53939 5.93725 94342.8 -95083.1 -81234.5 212575 -5647.8 25637.3 -7.4125 
430 1 76.8538 9.13242 7.5425 5.93852 81481.8 -85469.7 79557.7 209425 55554.8 41882.7 -7.42283 
431 1 78.2738 9.12646 7.54196 5.94287 99042.4 -99603.2 -78710.7 176425 866.285 31908.7 -7.41276 
434 1 81.1217 9.09705 7.54431 5.95991 66940.3 -81086.9 74596.4 167329 56855 50160.5 -7.42192 
40 1 83.0866 0.473223 7.52484 5.96097 -9318.72 1860.28 2393.51 226350 31941 41995.8 -7.41573 
41 1 84.5059 0.459238 7.51842 5.96352 -9407.6 -2171.19 -4694.74 177469 -24850.9 37850.2 -7.41549 
42 1 87.3456 0.41341 7.50668 5.99261 -12414.7 259.469 1591.02 139964 24653.2 28489.8 -7.41533 
43 1 88.7649 0.392835 7.50206 5.99864 -12553.1 -2719.98 -4520.68 98138.5 -18610.9 18544.7 -7.41498 
129 1 82.4017 1.71597 7.52791 5.94751 3162.42 -9311.62 -13400.8 216990 -17234.2 41824.3 -7.41521 
130 1 83.138 2.93171 7.52732 5.96176 2907.87 -7237.52 21433.6 212174 47434.8 45830.8 -7.41714 
131 1 84.5575 2.91766 7.52201 5.96438 8454.1 -11022.2 -21003.2 164073 -5448.11 37371.9 -7.4147 
132 1 85.2423 1.67461 7.51696 5.97754 -8540.96 474.554 11060.7 177704 35893.9 39210.9 -7.41612 
133 1 86.6616 1.65706 7.51128 5.9819 -5863.28 -2502.12 -12465.6 130645 -12446.6 29078.4 -7.41482 
134 1 87.3976 2.87227 7.51236 5.99573 -13872.8 3804.02 19032.2 131369 36798.8 33218.6 -7.41651 
135 1 88.817 2.85157 7.50765 6.00162 -8011.97 1074.94 -19071.9 89367.6 -3594.15 18858.2 -7.41422 
136 1 89.501 1.60773 7.50278 6.00711 -17402.7 4264.49 9823.5 104859 26438 18861.6 -7.41573 
231 1 82.4517 4.17372 7.53141 5.94981 27777.4 -28066.4 -31177.6 191985 14.4664 41150.1 -7.41447 
232 1 83.1873 5.38963 7.53319 5.96658 18361.9 -25537.4 41117.7 185214 56607.8 49986.5 -7.41883 
233 1 84.6069 5.37543 7.52883 5.9672 29109.9 -26908.3 -38005.7 137603 7675.49 37668.1 -7.41416 
234 1 85.2934 4.13321 7.52347 5.98158 -1519.68 -6636.86 29421.7 160398 47949.3 44395.7 -7.41754 
235 1 86.7128 4.11557 7.51825 5.98418 6744.62 -7414.79 -27596.7 113404 3226.91 30317 -7.41424 