ITEM: TIMESTEP
0
ITEM: NUMBER OF ATOMS
8216
ITEM: BOX BOUNDS pp pp pp
0.0000000000000000e+00 7.8819589800000003e+01
0.0000000000000000e+00 1.3651953399999999e+02
0.0000000000000000e+00 1.8399999600000001e+01
ITEM: ATOMS id type x y z c_csym c_2[1] c_2[2] c_2[3] c_2[4] c_2[5] c_2[6] c_3 
1 1 0 0 7.5 6.04912 5179.35 5141.37 -158800 10.6907 -0.0355339 0.117598 -7.40754 
2 1 2.14893 1.19637 7.5 6.04916 3821.47 6688.25 -157700 -2746.03 4480.79 -8003.72 -7.4076 
3 1 3.56875 1.17422 7.5 6.04919 6711.01 3656.45 -156541 4762.49 3557.98 -12048.3 -7.40767 
4 1 6.40841 1.12991 7.5 6.04919 4089.43 5259 -151258 -7749.59 6033.69 -22289.5 -7.40799 
5 1 7.82824 1.10775 7.5 6.04919 6569.14 2786.99 -149324 9739.88 298.946 -23928.8 -7.4081 
38 1 0.0383737 2.45921 7.5 6.04912 1820.37 8341.3 -157811 -150.461 8466.48 -94.3852 -7.4076 
39 1 1.4582 2.43706 7.5 6.04915 8228.05 2191.06 -157413 2098.78 8971.34 -4780.37 -7.40761 
40 1 2.1873 3.65559 7.5 6.04916 346.701 9807.26 -155692 -2706.2 12253.6 -8503.11 -7.40772 
41 1 3.60713 3.63343 7.5 6.0492 9484.52 607.63 -154707 5103.26 12659.4 -10881.6 -7.40778 
42 1 4.29786 2.39275 7.5 6.0492 2221.56 7598.02 -154265 -5242.31 8962.73 -16048.1 -7.40781 
43 1 5.71768 2.37059 7.5 6.0492 8101.2 1864.72 -153189 7618.31 6583.48 -17575.9 -7.40787 
44 1 6.44678 3.58912 7.5 6.0492 552.046 8066.46 -148418 -7353.45 13160.3 -23603.8 -7.40816 
45 1 7.86661 3.56697 7.5 6.0492 9423.22 222.574 -148943 10244.8 8714.51 -21448.5 -7.40813 
46 1 8.55734 2.32628 7.5 6.0492 2457.43 5479.13 -144426 -9661.84 10910.4 -28887.4 -7.4084 
112 1 0.0767474 4.91843 7.5 6.04912 -1661.6 11482.2 -155133 -293.078 15617.6 -167.025 -7.40776 
113 1 1.49657 4.89627 7.5 6.04915 10684.8 -898.865 -154058 2301.88 18162.2 -4335.74 -7.40782 
114 1 2.22568 6.1148 7.5 6.04916 -3110.02 12842.7 -152250 -2603.12 18474.8 -8802.25 -7.40793 
115 1 3.6455 6.09264 7.5 6.0492 11637.6 -2286.93 -150539 5342.73 21515.3 -9477.84 -7.40803 
116 1 4.33623 4.85196 7.5 6.0492 -1300.15 10588.5 -151181 -4954.62 15764.5 -16770.1 -7.40799 
117 1 5.75606 4.8298 7.5 6.0492 10619.6 -893.691 -150844 7976.2 15375.3 -15518.4 -7.40801 
118 1 6.48516 6.04833 7.5 6.0492 -2973.11 10835.6 -144275 -6828.05 18791.8 -24411.6 -7.4084 
119 1 7.90498 6.02618 7.5 6.0492 11657.3 -2168 -146388 10575 17022.9 -18525.6 -7.40828 
120 1 8.59571 4.78549 7.5 6.0492 -1149.18 8050.16 -140231 -9043.34 16871.5 -30277.1 -7.40865 
186 1 0.115121 7.37764 7.5 6.04912 -4996.07 14457.8 -151281 -420.378 21013.8 -232.192 -7.40799 
187 1 1.53495 7.35548 7.5 6.04915 12461.5 -3831.05 -148304 2458.09 26791.6 -3801.82 -7.40816 
188 1 2.26405 8.57401 7.5 6.04916 -6301.83 15675.9 -147923 -2452.55 22830.3 -8940.68 -7.40819 
189 1 3.68388 8.55186 7.5 6.0492 13070.1 -4993.78 -144021 5486.49 29604.3 -7881.91 -7.40842 
190 1 4.3746 7.31117 7.5 6.0492 -4684.35 13442.4 -146978 -4588.17 20859.9 -17149.1 -7.40824 
191 1 5.79443 7.28902 7.5 6.0492 12456.1 -3482.78 -146198 8198.24 23709.1 -13140 -7.40829 
192 1 6.52353 8.50755 7.5 6.0492 -6244.58 13453.8 -139369 -6194.77 22652.7 -24784 -7.4087 
193 1 7.94336 8.48539 7.5 6.0492 13155.9 -4367.97 -141592 10737.9 24742.5 -15259.4 -7.40857 
194 1 8.63408 7.24471 7.5 6.0492 -4631.32 10549.4 -135103 -8287.3 21223.7 -31096.5 -7.40895 
265 1 5.8328 9.74823 7.5 6.0492 13535.2 -5864.88 -139282 8285.37 31159.7 -10525.8 -7.40871 
268 1 8.67246 9.70392 7.5 6.0492 -7759.51 12889.8 -129588 -7393.28 23824.8 -31436.8 -7.40929 
6 1 10.6679 1.06344 7.5 6.04919 4379.73 3017.14 -139738 -11724.4 9187.16 -32394.8 -7.40868 
7 1 12.0877 1.04129 7.5 6.04919 6547.64 1293.59 -138172 13406.3 -4743.81 -31474.4 -7.40877 
8 1 14.9274 0.996978 7.5 6.04919 4714.34 296.384 -125174 -14207.9 13585.9 -37518.6 -7.40955 
9 1 16.3472 0.974823 7.5 6.04919 6647.57 -734.543 -124849 15407.8 -10855.9 -34636.6 -7.40958 
10 1 19.1869 0.930513 7.5 6.04919 5079.7 -2845.01 -109540 -14985.3 18711.6 -38317 -7.4105 
47 1 9.97716 2.30413 7.5 6.0492 8064.02 960.329 -144713 12070.8 1898.07 -26860.8 -7.40838 
48 1 10.7063 3.52266 7.5 6.0492 747.441 5261.57 -135348 -11096.1 15300.2 -34448.4 -7.40894 
49 1 12.1261 3.5005 7.5 6.0492 9497.78 -575.022 -140060 13990.6 2681.46 -28125.5 -7.40866 
50 1 12.8168 2.25982 7.5 6.0492 2719.85 2639.05 -130160 -12856.9 14197.2 -36828.9 -7.40925 
51 1 14.2366 2.23766 7.5 6.0492 8149.9 -426.799 -133507 14953.2 -4313.82 -31823.3 -7.40906 
52 1 14.9657 3.45619 7.5 6.0492 980.751 1830.93 -118674 -13482.8 18613.6 -40134.2 -7.40994 
53 1 16.3856 3.43404 7.5 6.0492 9662.97 -1848.57 -129514 16008.8 -4454.75 -30900.8 -7.4093 
54 1 17.0763 2.19335 7.5 6.0492 3034.02 -655.616 -113649 -14478.8 18513.3 -39865 -7.41025 
55 1 18.4961 2.1712 7.5 6.0492 8317.67 -2390.79 -121141 16074.3 -11176 -33009.9 -7.4098 
56 1 19.2252 3.38973 7.5 6.0492 1272.04 -2052.03 -100580 -14258.5 22784.6 -41195 -7.41104 
121 1 10.0155 4.76334 7.5 6.0492 10676.2 -1175.86 -144368 12523.9 9896.06 -23627.4 -7.4084 
122 1 10.7446 5.98187 7.5 6.0492 -2888.52 7534.05 -129888 -10286.7 19990 -35844.4 -7.40927 
123 1 12.1645 5.95971 7.5 6.0492 11817.2 -2256.47 -139987 14371.3 10195.5 -24273.9 -7.40867 
124 1 12.8552 4.71903 7.5 6.0492 -1000.27 4588.77 -124240 -12057.7 19098.8 -38852.3 -7.40961 
125 1 14.275 4.69687 7.5 6.0492 10841.3 -1816.51 -135844 15446.3 2738.38 -27968.6 -7.40892 
126 1 15.0041 5.9154 7.5 6.0492 -2793.75 3448.58 -111365 -12547.9 22268.8 -42098.9 -7.41038 
127 1 16.4239 5.89325 7.5 6.0492 12025.2 -2781.47 -132440 16418.4 2227.39 -26713.2 -7.40912 
128 1 17.1147 4.65256 7.5 6.0492 -801.877 573.118 -105542 -13631.7 22388.5 -42348.5 -7.41074 
129 1 18.5345 4.63041 7.5 6.0492 11031.7 -3044.22 -126508 16579.2 -5011.47 -29027.9 -7.40948 
130 1 19.2636 5.84894 7.5 6.0492 -2639.79 -1149.22 -91042.5 -13323.6 25496.7 -43517.5 -7.41161 
195 1 10.0539 7.22255 7.5 6.0492 12593.1 -3134.47 -141887 12789.9 17639.9 -19956 -7.40855 
196 1 10.783 8.44108 7.5 6.0492 -6291.54 9729.84 -123885 -9312.07 23035.9 -36656.4 -7.40963 
197 1 12.2028 8.41893 7.5 6.0492 13376.3 -3756.83 -137818 14557.8 17371.2 -20032 -7.4088 
198 1 12.8936 7.17824 7.5 6.0492 -4624.38 6537.3 -117639 -11073.4 22487.6 -40233.2 -7.41 
199 1 14.3134 7.15609 7.5 6.0492 12815.4 -3034.97 -136232 15745.8 9769.24 -23677.4 -7.40889 
200 1 15.0425 8.37462 7.5 6.0492 -6375.65 5055.64 -103764 -11404.4 24378 -43463.5 -7.41084 
201 1 16.4623 8.35246 7.5 6.0492 13603 -3552.3 -133424 16648 8813.31 -22167 -7.40906 
202 1 17.153 7.11178 7.5 6.0492 -4594.53 1849.39 -97002 -12576.9 24804.7 -44238.6 -7.41125 
203 1 18.5729 7.08962 7.5 6.0492 13006.2 -3542.48 -130114 16919.3 1329.41 -24675.7 -7.40926 
204 1 19.302 8.30815 7.5 6.0492 -6426.37 -210.166 -81444.8 -12165 26699.7 -45304.7 -7.4122 
269 1 10.0923 9.68177 7.5 6.0492 13725.5 -4898.54 -137230 12873.6 24736.8 -15968 -7.40883 
272 1 12.9319 9.63745 7.5 6.0492 -7924.68 8404.16 -110885 -9894.57 24257.5 -41048.9 -7.41041 
273 1 14.3518 9.6153 7.5 6.0492 13973.7 -4080.44 -134558 15859.7 16421 -19063.7 -7.40899 
276 1 17.1914 9.57099 7.5 6.0492 -8117.35 3110.9 -88551.5 -11289.3 25678.1 -45576.2 -7.41176 
277 1 18.6112 9.54883 7.5 6.0492 14141.2 -3889.39 -131777 17097 7516.75 -20035.1 -7.40916 
11 1 20.6067 0.908358 7.5 6.04919 6825.86 -3421.29 -110930 15660.1 -17281.8 -34267.8 -7.41041 
12 1 23.4463 0.864048 7.5 6.04919 5423.09 -6496.95 -94411.4 -14062.9 23956.8 -35733.2 -7.41141 
13 1 24.8662 0.841893 7.5 6.04919 7015.67 -6854.93 -97647.8 14254.2 -23328.9 -30995.3 -7.41121 
14 1 27.7058 0.797582 7.5 6.04919 5678.43 -10507 -81084.4 -11605.3 28715 -30151 -7.41222 
15 1 29.1256 0.775427 7.5 6.04919 7166.45 -10718.2 -86095.7 11379.6 -28396.2 -24829.1 -7.41191 
57 1 20.6451 3.36757 7.5 6.0492 9841.88 -3824.54 -118582 16249.9 -11765.2 -30556.1 -7.40995 
58 1 21.3358 2.12689 7.5 6.0492 3380.85 -4409.25 -96796.6 -14404.8 23348.8 -38904.3 -7.41127 
59 1 22.7556 2.10473 7.5 6.0492 8497.34 -5120.25 -108872 15463.2 -17903.3 -31238.9 -7.41054 
60 1 23.4847 3.32326 7.5 6.0492 1594.24 -6387.11 -82888.1 -13386.4 27263.1 -38491.5 -7.41211 
61 1 24.9045 3.30111 7.5 6.0492 9964.32 -6625.4 -108228 14811.6 -18520.7 -27635.6 -7.41058 
62 1 25.5953 2.06042 7.5 6.0492 3701.86 -8604.66 -81137 -12715.9 28086 -34643.3 -7.41221 
63 1 27.0151 2.03827 7.5 6.0492 8628.52 -8549.63 -97693 13263 -23853.5 -26782.4 -7.41121 
64 1 27.7442 3.2568 7.5 6.0492 1886.47 -10961.8 -67177.7 -11023.2 31418.1 -32409.3 -7.41306 
65 1 29.164 3.23464 7.5 6.0492 10007.2 -9947.09 -99267.8 11857.5 -24151.8 -22108.1 -7.41111 
131 1 20.6834 5.82678 7.5 6.0492 12179.6 -4058.8 -124698 16684.7 -5820.92 -26481.8 -7.40959 
132 1 21.3742 4.5861 7.5 6.0492 -541.73 -3894.72 -86248.4 -13596.1 26357.7 -41521.6 -7.4119 
133 1 22.794 4.56394 7.5 6.0492 11161.2 -5104.13 -117328 15969 -12477.9 -27499.3 -7.41003 
134 1 23.5231 5.78247 7.5 6.0492 -2421.27 -6154.21 -70972.6 -12533 29189.5 -40802.5 -7.41283 
135 1 24.9429 5.76032 7.5 6.0492 12215.6 -6223.87 -117449 15257.6 -13191.8 -23991.4 -7.41002 
136 1 25.6336 4.51963 7.5 6.0492 -253.482 -8714.06 -68160.1 -12000.2 30401.1 -36995.6 -7.413 
137 1 27.0535 4.49748 7.5 6.0492 11189.4 -7936.15 -109030 13738.8 -19026.6 -23578.2 -7.41053 
138 1 27.7826 5.71601 7.5 6.0492 -2178.06 -11273.5 -53023.3 -10312.7 32714.5 -34313.5 -7.41392 
139 1 29.2024 5.69385 7.5 6.0492 12142.6 -8976.08 -111235 12259.1 -19332.2 -19174.1 -7.41039 
205 1 20.7218 8.286 7.5 6.0492 13717 -4145.37 -129026 16974.6 208.877 -22107.1 -7.40933 
206 1 21.4125 7.04531 7.5 6.0492 -4498.18 -3307.1 -75477.4 -12589.9 27910.7 -43642.9 -7.41256 
207 1 22.8324 7.02316 7.5 6.0492 13072.1 -4939.45 -124195 16351.3 -6741.75 -23462.5 -7.40962 
208 1 23.5615 8.24169 7.5 6.0492 -6399.75 -5853.28 -59185.9 -11475.8 29590.6 -42666.4 -7.41355 
209 1 24.9813 8.21953 7.5 6.0492 13666.4 -5668.72 -125031 15593.5 -7664.01 -20101.5 -7.40956 
210 1 25.672 6.97885 7.5 6.0492 -4334.63 -8728.74 -55124.6 -11125.3 31232.9 -38948.1 -7.4138 
211 1 27.0918 6.95669 7.5 6.0492 12995.7 -7156.85 -118936 14127.2 -13809.7 -20140.3 -7.40993 
212 1 27.8209 8.17522 7.5 6.0492 -6300.77 -11490.5 -39146.7 -9448.15 32448.6 -35861.1 -7.41477 
213 1 29.2408 8.15307 7.5 6.0492 13495.2 -7815.57 -121700 12579.5 -14247.3 -16054.7 -7.40976 
280 1 21.4509 9.50452 7.5 6.0492 -8261.31 -2686.09 -65010.3 -11345.7 27927.5 -45275.4 -7.4132 
281 1 22.8707 9.48237 7.5 6.0492 14140.1 -4627.64 -129247 16601 -1005.89 -19178.7 -7.40931 
284 1 25.7104 9.43806 7.5 6.0492 -8312.04 -8675.43 -42569.7 -10046.8 30491.9 -40492.4 -7.41456 
285 1 27.1302 9.4159 7.5 6.0492 13979.6 -6204.91 -127152 14411.1 -8500.65 -16500.1 -7.40944 
16 1 31.9653 0.731117 7.5 6.04919 5809.54 -14223.9 -70819.7 -7894.91 32450.3 -21540.5 -7.41284 
17 1 33.3851 0.708962 7.5 6.04919 7270.46 -14192.4 -77418 7319.13 -31985.3 -15701.7 -7.41243 
18 1 36.2248 0.664652 7.5 6.04919 5829.51 -16672.8 -64831.3 -3320.53 34735.4 -10247 -7.4132 
19 1 37.6446 0.642497 7.5 6.04919 7353.32 -16270 -72709.5 2478.72 -33741.4 -4252.5 -7.41272 
66 1 29.8547 1.99396 7.5 6.0492 3936.12 -12827.7 -68075.7 -9645.45 32131.5 -27205.2 -7.413 
67 1 31.2746 1.9718 7.5 6.0492 8701.36 -12106.3 -88571.4 9690.89 -28490.3 -19492.3 -7.41176 
68 1 32.0037 3.19033 7.5 6.0492 2093.02 -15090.2 -55013.2 -7470.51 34703.6 -23003.9 -7.4138 
69 1 33.4235 3.16817 7.5 6.0492 10012.1 -13008 -92548.4 7638.57 -28167 -13888.5 -7.41152 
70 1 34.1142 1.92749 7.5 6.0492 4053.71 -16202.2 -59024.1 -5540.43 35007.5 -16696.1 -7.41355 
71 1 35.5341 1.90534 7.5 6.0492 8753.33 -14840.8 -82511.7 5079.26 -31370.2 -9560.25 -7.41212 
72 1 36.2632 3.12386 7.5 6.0492 2186.56 -17773 -47889.1 -3127.52 36734.2 -10748.7 -7.41423 
73 1 37.683 3.10171 7.5 6.0492 10050 -14864.1 -88884.5 2565.31 -30164 -3563.67 -7.41174 
74 1 38.3737 1.86103 7.5 6.0492 4064.65 -17756.9 -55186.9 -837.767 36379.1 -3960.96 -7.41378 
140 1 29.8931 4.45317 7.5 6.0492 2.28184 -13416.1 -52983.7 -9078.05 33907.9 -28940.6 -7.41392 
141 1 31.3129 4.43101 7.5 6.0492 11147.7 -10990.6 -102290 10065.2 -24140.7 -17105.3 -7.41093 
142 1 32.042 5.64954 7.5 6.0492 -1970.87 -15781.8 -39070 -6969.94 35535.2 -24211.6 -7.41477 
143 1 33.4619 5.62739 7.5 6.0492 12048.5 -11582.5 -106589 7905.31 -23737.6 -11958.8 -7.41067 
144 1 34.1526 4.3867 7.5 6.0492 170.29 -17098.4 -42430.6 -5190.99 36422.7 -17591.3 -7.41456 
145 1 35.5724 4.36455 7.5 6.0492 11121.4 -13381.9 -97806.7 5263.52 -27346.9 -8258.25 -7.4112 
146 1 36.3015 5.58308 7.5 6.0492 -1853.43 -18669.1 -30881.7 -2904.04 37313.8 -11124.1 -7.41527 
147 1 37.7214 5.56092 7.5 6.0492 12043.9 -13189.2 -104025 2616.79 -25948.3 -2891.53 -7.41082 
148 1 38.4121 4.32024 7.5 6.0492 223.532 -18780.2 -37943.1 -767.837 37665.3 -3931.18 -7.41484 
214 1 29.9315 6.91238 7.5 6.0492 -4147.42 -13881.8 -37960.1 -8407.28 34172.6 -30370.4 -7.41484 
215 1 31.3513 6.89023 7.5 6.0492 12848.3 -9667.5 -114712 10379.5 -19353.7 -14561.5 -7.41018 
216 1 32.0804 8.10876 7.5 6.0492 -6174.46 -16347.9 -23516.6 -6377.79 34775.3 -25169.9 -7.41573 
217 1 33.5002 8.0866 7.5 6.0492 13327.4 -9919.6 -119235 8116.58 -19000.8 -9935.36 -7.40991 
218 1 34.191 6.84592 7.5 6.0492 -3997.5 -17841.5 -25996 -4795.16 36313.5 -18298.4 -7.41557 
219 1 35.6108 6.82376 7.5 6.0492 12757 -11673.5 -111891 5410.05 -22853.8 -6913.75 -7.41035 
220 1 36.3399 8.04229 7.5 6.0492 -6084.48 -19412.7 -14333 -2650.11 36291.7 -11390.1 -7.41629 
221 1 37.7597 8.02013 7.5 6.0492 13298 -11248.8 -117822 2638.41 -21397.8 -2253.75 -7.40999 
222 1 38.4505 6.77945 7.5 6.0492 -3935.35 -19631.3 -20902.3 -700.681 37432.1 -3862.49 -7.41588 
288 1 29.9699 9.37159 7.5 6.0492 -8278.64 -14247.1 -23556 -7592.43 32820.9 -31489.4 -7.41573 
289 1 31.3897 9.34944 7.5 6.0492 13762.1 -8125.54 -125556 10615.3 -14417.2 -11884.8 -7.40953 
292 1 34.2293 9.30513 7.5 6.0492 -8213.56 -18453 -10278.2 -4324.87 34560.4 -18823.2 -7.41654 
293 1 35.6492 9.28297 7.5 6.0492 13635.1 -9706.14 -124470 5506.66 -18174 -5544.1 -7.40959 
296 1 38.4888 9.23866 7.5 6.0492 -8176.68 -20333.6 -4622.43 -628.763 35547.1 -3770.62 -7.41688 
20 1 40.4843 0.598187 7.5 6.04919 5777.01 -17053 -63965.8 1632.9 35279.1 2469.52 -7.41325 
21 1 41.9041 0.576032 7.5 6.04919 7428.73 -16277.1 -72674.1 -2618.12 -33514.6 7965.9 -7.41272 
22 1 44.7437 0.531722 7.5 6.04919 5681.22 -15205.7 -68347.7 6428.16 33961.6 14697.1 -7.41298 
23 1 46.1636 0.509567 7.5 6.04919 7470.07 -14244 -77331.6 -7401.81 -31391 19073.2 -7.41244 
24 1 49.0032 0.465256 7.5 6.04919 5543.85 -11718.7 -77306.7 10554.5 30869.8 24718 -7.41244 
75 1 39.7935 1.83887 7.5 6.0492 8829.6 -15876.9 -80345.1 -87.9406 -32205 1931.19 -7.41225 
76 1 40.5226 3.0574 7.5 6.0492 2168.69 -18194 -46841 1546.42 37270.8 2970.19 -7.41429 
77 1 41.9425 3.03524 7.5 6.0492 10159.4 -14889.9 -88812.5 -2784.67 -29939.8 7432.36 -7.41174 
78 1 42.6332 1.79456 7.5 6.0492 3993.08 -16964.2 -57142.7 3966.2 36053 9270.13 -7.41367 
79 1 44.053 1.77241 7.5 6.0492 8930.42 -14879.3 -82415.5 -5218.39 -30946.8 13224.2 -7.41213 
80 1 44.7821 2.99093 7.5 6.0492 2056.18 -16192.5 -52030.8 6070.27 36197.8 16137.4 -7.41398 
81 1 46.2019 2.96878 7.5 6.0492 10307.6 -13110.3 -92369.4 -7770.56 -27581.1 17376.6 -7.41153 
82 1 46.8927 1.7281 7.5 6.0492 3854.7 -14058.5 -64579.8 8366.06 33996.9 21016.3 -7.41322 
83 1 48.3125 1.70594 7.5 6.0492 8996.69 -12232.4 -88435.5 -9727.14 -27807.3 22686.8 -7.41177 
84 1 49.0416 2.92447 7.5 6.0492 1869.53 -12371.7 -62661.1 9981.05 33552.8 26949.7 -7.41333 
149 1 39.8319 4.29808 7.5 6.0492 11191.5 -14307.7 -96164.1 -147.814 -28295.5 1969.07 -7.4113 
150 1 40.561 5.51661 7.5 6.0492 -1850.35 -19121.3 -29669.5 1453.54 37859.8 3443.15 -7.41534 
151 1 41.9808 5.49446 7.5 6.0492 12189.6 -13240.8 -103897 -2968.86 -25707.2 6738.99 -7.41083 
152 1 42.6716 4.25377 7.5 6.0492 161.34 -17932.1 -40212.4 3737.48 37472.9 10206.2 -7.4147 
153 1 44.0914 4.23162 7.5 6.0492 11366.8 -13462.4 -97624 -5504.52 -26908.4 11982.5 -7.41121 
154 1 44.8205 5.45015 7.5 6.0492 -1956 -16981.9 -35626.1 5670.77 37056.5 17406.5 -7.41498 
155 1 46.2403 5.42799 7.5 6.0492 12446.8 -11755.9 -106266 -8134.91 -23105.7 15407.1 -7.41069 
156 1 46.931 4.18731 7.5 6.0492 4.85262 -14793 -48879.2 7873.29 35784.5 22765.1 -7.41417 
157 1 48.3509 4.16515 7.5 6.0492 11569.7 -11193 -102020 -10159.2 -23433.4 20319.7 -7.41095 
158 1 49.08 5.38368 7.5 6.0492 -2136.38 -12857.6 -47833.3 9324.8 34890.8 28902.4 -7.41424 
223 1 39.8703 6.7573 7.5 6.0492 12827.5 -12478 -110790 -225.149 -23894.2 1908.83 -7.41042 
224 1 40.5994 7.97582 7.5 6.0492 -6074.55 -19888.9 -12971.3 1334.29 36853.9 3864.42 -7.41637 
225 1 42.0192 7.95367 7.5 6.0492 13478.7 -11336.8 -117616 -3156.7 -21128.2 5876.52 -7.41 
226 1 42.7099 6.71299 7.5 6.0492 -3980.27 -18731.1 -23472 3461.83 37391.3 11025.1 -7.41573 
227 1 44.1298 6.69083 7.5 6.0492 13073.9 -11814.5 -111582 -5786.69 -22369 10514.9 -7.41037 
228 1 44.8589 7.90936 7.5 6.0492 -6147.57 -17627.5 -19650.1 5188.67 36341.2 18475.2 -7.41596 
229 1 46.2787 7.8872 7.5 6.0492 13827.5 -10188.8 -118708 -8475.94 -18289.2 13166.1 -7.40994 
230 1 46.9694 6.64652 7.5 6.0492 -4110.71 -15382.7 -33299.2 7286.63 36099.4 24268 -7.41513 
231 1 48.3892 6.62437 7.5 6.0492 13405 -9971.84 -114238 -10560.6 -18564.1 17641.7 -7.41021 
232 1 49.1183 7.84289 7.5 6.0492 -6259.61 -13226.6 -33336.1 8530.99 34689.5 30542.4 -7.41513 
297 1 39.9087 9.21651 7.5 6.0492 13714.8 -10379 -123921 -318.622 -19288.5 1742.69 -7.40963 
300 1 42.7483 9.1722 7.5 6.0492 -8198.52 -19387.6 -7474.64 3124.19 35667.4 11703.9 -7.41671 
301 1 44.1681 9.15004 7.5 6.0492 14018.2 -9923.43 -123991 -6050.56 -17629.3 8825.41 -7.40962 
304 1 47.0078 9.10573 7.5 6.0492 -8256.79 -15853.1 -18383.9 6574.36 34798.7 25495.1 -7.41604 
305 1 48.4276 9.08358 7.5 6.0492 14448.6 -8557.99 -124801 -10913.3 -13517.3 14669.4 -7.40958 
25 1 50.4231 0.443101 7.5 6.04919 7419.94 -10873.2 -86025 -11355.4 -27662.1 27725.6 -7.41192 
26 1 53.2627 0.398791 7.5 6.04919 5359.76 -7600.52 -89659 13589.8 26304.4 31696.8 -7.4117 
27 1 54.6825 0.376636 7.5 6.04919 7233.82 -7131.57 -97713.6 -14077 -22758.7 33498.9 -7.41121 
28 1 57.5222 0.332326 7.5 6.04919 5150.83 -3750.32 -104105 15221.1 20747.2 35607.3 -7.41082 
29 1 58.942 0.310171 7.5 6.04919 6921.9 -3731.53 -111284 -15283.3 -17196.9 36456.5 -7.41039 
85 1 50.4614 2.90231 7.5 6.0492 10400.9 -10180 -99092.6 -11835.4 -23436.4 25064.1 -7.41112 
86 1 51.1522 1.66163 7.5 6.0492 3660.93 -9914.27 -76421.5 11907 30377.8 29912.9 -7.4125 
87 1 52.572 1.63948 7.5 6.0492 8949.84 -8811.81 -97635.5 -13146.3 -23187.6 29497.4 -7.41121 
88 1 53.3011 2.858 7.5 6.0492 1643.2 -7767.65 -77302.4 12867.3 29590.4 34492.2 -7.41245 
89 1 54.7209 2.83585 7.5 6.0492 10348 -7009.3 -108233 -14589.9 -17988.7 30158.2 -7.41058 
90 1 55.4116 1.59516 7.5 6.0492 3437.78 -5565.26 -91243.6 14217.6 25582.4 35557.3 -7.4116 
91 1 56.8315 1.57301 7.5 6.0492 8745.86 -5492.43 -109062 -15149.2 -17577.9 33609.3 -7.41053 
92 1 57.5606 2.79154 7.5 6.0492 1433.51 -3304.95 -94362.2 14398 24800.8 38667.2 -7.41141 
93 1 58.9804 2.76938 7.5 6.0492 10116 -4278.11 -118978 -15787.8 -11748.1 32771.1 -7.40993 
159 1 50.4998 5.36153 7.5 6.0492 12692.7 -9312.15 -110885 -12280.4 -18553.3 22057.7 -7.41041 
160 1 51.1905 4.12084 7.5 6.0492 -207.796 -10249.6 -62677.4 11212.7 32710.8 32303.2 -7.41333 
161 1 52.6104 4.09869 7.5 6.0492 11678.8 -8302.25 -108849 -13627.1 -18338.2 26267.9 -7.41054 
162 1 53.3395 5.31722 7.5 6.0492 -2330.83 -7789.28 -64624.2 12017.5 31569.3 36924.8 -7.41322 
163 1 54.7593 5.29506 7.5 6.0492 12792.5 -6735.46 -117320 -15025.8 -12592.8 26412 -7.41003 
164 1 55.45 4.05438 7.5 6.0492 -418.668 -5354.67 -79906.9 13379.2 28615.4 38327 -7.41229 
165 1 56.8698 4.03222 7.5 6.0492 11601.7 -5609.98 -117469 -15613.6 -12143.2 29824.9 -7.41002 
166 1 57.5989 5.25075 7.5 6.0492 -2465.93 -2721.67 -84111.5 13410.8 27582.4 41271.6 -7.41203 
167 1 59.0188 5.2286 7.5 6.0492 12668.3 -4670.46 -125066 -16169.5 -5739.07 28598 -7.40956 
233 1 50.5382 7.82074 7.5 6.0492 14206.5 -8279.97 -121094 -12672.7 -13351.1 18722.3 -7.4098 
234 1 51.2289 6.58006 7.5 6.0492 -4271.48 -10467.7 -48935.9 10375.4 33608.4 34354.1 -7.41417 
235 1 52.6487 6.5579 7.5 6.0492 13666.9 -7649.08 -118549 -14043.3 -13018 22675.3 -7.40995 
236 1 53.3778 7.77643 7.5 6.0492 -6338.55 -7718.45 -52131.9 10982.5 32050.7 38959.8 -7.41398 
237 1 54.7977 7.75427 7.5 6.0492 14449.5 -6327.82 -124676 -15374.5 -6922.57 22299.6 -7.40959 
238 1 55.4884 6.51359 7.5 6.0492 -4386.55 -5044.04 -68409.7 12357.6 30250.5 40673.9 -7.41299 
239 1 56.9082 6.49144 7.5 6.0492 13727.5 -5595.05 -124203 -15972.7 -6292.49 25622 -7.40962 
240 1 57.6373 7.70996 7.5 6.0492 -6313.91 -2067.42 -73854.8 12210.2 28895.8 43394.6 -7.41266 
241 1 59.0571 7.68781 7.5 6.0492 14441.7 -4929.75 -129270 -16425.2 458.616 24009.7 -7.40931 
308 1 51.2673 9.03927 7.5 6.0492 -8290.2 -10594.3 -35729 9355.76 32933.1 36030.8 -7.41498 
309 1 52.6871 9.01711 7.5 6.0492 14836.5 -6849.45 -126465 -14382.5 -7560.33 18754.6 -7.40948 
312 1 55.5268 8.9728 7.5 6.0492 -8225.41 -4669.47 -57270.8 11114.3 30355 42567.6 -7.41367 
313 1 56.9466 8.95065 7.5 6.0492 15022.9 -5451.06 -129018 -16222.5 -373.64 21065.8 -7.40933 
30 1 61.7817 0.265861 7.5 6.04919 4973.02 -585.082 -119411 15233.6 14803.2 36488 -7.4099 
31 1 63.2015 0.243706 7.5 6.04919 6542.05 -882.693 -125600 -14792.1 -11556.1 36336.5 -7.40953 
32 1 66.0412 0.199396 7.5 6.04919 4892.06 1914.17 -134252 13524.1 9139.36 33795.8 -7.40901 
33 1 67.461 0.17724 7.5 6.04919 6163.12 1530.29 -139282 -12550.3 -6464.31 32248 -7.40871 
94 1 59.6711 1.5287 7.5 6.0492 3241.23 -1706.3 -107633 15023.1 20178.7 38038 -7.41061 
95 1 61.0909 1.50654 7.5 6.0492 8407.73 -2727.25 -121751 -15518.7 -11510.7 35037.4 -7.40976 
96 1 61.82 2.72507 7.5 6.0492 1309.06 565.593 -112319 14347.4 19828.2 39467.7 -7.41033 
97 1 63.2399 2.70292 7.5 6.0492 9743.64 -2173.34 -130468 -15267.5 -5253.92 32685.7 -7.40924 
98 1 63.9306 1.46223 7.5 6.0492 3138.18 1475.28 -124207 14161.6 14821 37125.3 -7.40961 
99 1 65.3504 1.44008 7.5 6.0492 8004.55 -496.949 -134612 -14128.1 -5581.86 33199.1 -7.40899 
100 1 66.0795 2.65861 7.5 6.0492 1320.97 3800.29 -129588 12639.8 15312.6 36351.3 -7.40929 
101 1 67.4994 2.63645 7.5 6.0492 9311.2 -523.046 -141592 -12957.6 843.827 29057.3 -7.40857 
102 1 68.1901 1.39577 7.5 6.0492 3169.72 4049.62 -139369 11626.9 10137.2 32009.8 -7.4087 
168 1 59.7095 3.98791 7.5 6.0492 -555.526 -833.281 -98856.9 14087.1 24095.2 40850.6 -7.41114 
169 1 61.1293 3.96576 7.5 6.0492 11325.5 -3550.23 -127203 -15943.5 -5352.76 31041.8 -7.40944 
170 1 61.8584 5.18429 7.5 6.0492 -2477.21 1842.94 -104480 13283.4 23600.4 41885.2 -7.4108 
171 1 63.2782 5.16213 7.5 6.0492 12334.2 -3299.91 -133532 -15586.6 1500.84 28455.3 -7.40906 
172 1 63.969 3.92145 7.5 6.0492 -560.861 3071.36 -117869 13187.5 19819.7 39632 -7.40999 
173 1 65.3888 3.89929 7.5 6.0492 10910.1 -2083.23 -137230 -14499.2 1460.28 29406.7 -7.40883 
174 1 66.1179 5.11782 7.5 6.0492 -2340.16 5778.27 -123885 11593.5 20227.5 38277.9 -7.40963 
175 1 67.5377 5.09567 7.5 6.0492 11874 -2416.25 -141887 -13203 8462.45 25254.6 -7.40855 
176 1 68.2285 3.85498 7.5 6.0492 -420.052 6338.06 -135103 10718.7 16318.5 33928.5 -7.40895 
242 1 59.7479 6.44712 7.5 6.0492 -4387.91 126.142 -89706.1 12947.8 26632.4 43144 -7.41169 
243 1 61.1677 6.42497 7.5 6.0492 13536.2 -4231.27 -130811 -16221.4 1119.61 26551.6 -7.40922 
244 1 61.8968 7.6435 7.5 6.0492 -6145.89 3163.01 -96388.1 12008.4 25893.4 43734.7 -7.41129 
245 1 63.3166 7.62134 7.5 6.0492 14168.2 -4275.65 -134558 -15745.4 8299.12 23752.9 -7.40899 
246 1 64.0073 6.38066 7.5 6.0492 -4243.8 4723.7 -110885 12019.4 23420.6 41532.1 -7.41041 
247 1 65.4272 6.3585 7.5 6.0492 13136.7 -3516.28 -137818 -14698.4 8662.55 25059.9 -7.4088 
248 1 66.1563 7.57703 7.5 6.0492 -5847.13 7750.81 -117639 10371.3 23599.1 39591.4 -7.41 
249 1 67.5761 7.55488 7.5 6.0492 13706.3 -4145.74 -139987 -13280.1 15924 20966.6 -7.40867 
250 1 68.2668 6.31419 7.5 6.0492 -3973.27 8628.28 -129888 9656.28 21047.1 35234 -7.40927 
316 1 59.7862 8.90634 7.5 6.0492 -8017.53 1117.93 -80688.9 11579 27649.3 44907 -7.41224 
317 1 61.2061 8.88418 7.5 6.0492 14925.3 -4771.48 -132369 -16356.1 7537.7 21672.6 -7.40913 
320 1 64.0457 8.83987 7.5 6.0492 -7672.38 6361.42 -103764 10652 25451.5 42843.7 -7.41084 
321 1 65.4655 8.81772 7.5 6.0492 14567.7 -4786.87 -136232 -14734.4 15620.6 20299.1 -7.40889 
324 1 68.3052 8.77341 7.5 6.0492 -7247.55 10836.5 -124240 8450.82 24097.6 35966.1 -7.40961 
34 1 70.3006 0.13293 7.5 6.04919 4941.65 3843.95 -146978 10163.2 4421.6 26639.8 -7.40824 
35 1 71.7205 0.110775 7.5 6.04919 5823.15 3551.6 -150539 -8710.07 -2549.65 23371.8 -7.40803 
36 1 74.5601 0.0664651 7.5 6.04919 5106.47 5083.98 -155692 5467.86 1237.14 14863.5 -7.40772 
37 1 75.9799 0.04431 7.5 6.04916 5523.02 4948 -157413 -3690.24 -345.638 10159.6 -7.40762 
103 1 69.6099 1.37361 7.5 6.0492 7604.64 1368.86 -146198 -10998.6 -475.004 27102.6 -7.40829 
104 1 70.339 2.59214 7.5 6.0492 1469.94 6392.72 -144275 9393.41 11745.2 28479.9 -7.4084 
105 1 71.7588 2.56999 7.5 6.0492 8892.39 832.736 -150844 -8971.67 5751.7 21074.6 -7.40801 
106 1 72.4496 1.3293 7.5 6.0492 3327.44 5962.43 -151181 7626.96 6641.01 22037.5 -7.40799 
107 1 73.8694 1.30715 7.5 6.0492 7247.79 2844.75 -154707 -6396.05 3094.04 16404.2 -7.40778 
108 1 74.5985 2.52568 7.5 6.0492 1708.47 8100.52 -154265 4949.6 9416.71 15786 -7.40781 
109 1 76.0183 2.50352 7.5 6.04916 8534.36 1808.93 -156541 -3717.22 8655.16 9105.44 -7.40767 
110 1 76.709 1.26284 7.5 6.04915 3524.53 6932.39 -157700 2613.93 4691.01 7882.26 -7.4076 
111 1 78.1289 1.24068 7.5 6.04912 6791.66 3464.45 -158450 -881.758 4532.86 2408.84 -7.40756 
177 1 69.6483 3.83283 7.5 6.0492 10448.8 -959.07 -146388 -11274.8 7532.21 24005.1 -7.40828 
178 1 70.3774 5.05136 7.5 6.0492 -2085.34 8976.68 -140231 8506.77 17785 29749.7 -7.40865 
179 1 71.7972 5.0292 7.5 6.0492 11393.8 -1747.81 -148943 -9106.97 14217.7 18271.2 -7.40813 
180 1 72.4879 3.78852 7.5 6.0492 -174.016 8801.57 -148418 6930.17 13861.4 23199 -7.40816 
181 1 73.9078 3.76636 7.5 6.0492 10024.8 -58.7419 -153189 -6508.3 11929.4 14489.4 -7.40787 
182 1 74.6369 4.98489 7.5 6.0492 -1783.56 11096.3 -151258 4381.35 16286.4 16370.1 -7.40799 
183 1 76.0567 4.96274 7.5 6.04916 10987.9 -1214.88 -153346 -3694.89 17717 7806.19 -7.40786 
184 1 76.7474 3.72205 7.5 6.04915 67.448 10078.8 -155718 2264.29 12506 8218.77 -7.40772 
185 1 78.1672 3.6999 7.5 6.04912 9537.66 300.337 -156214 -772.244 13788.8 2009.89 -7.40769 
251 1 69.6867 6.29204 7.5 6.0492 12637.4 -3136.86 -144368 -11391.9 15513.9 20384 -7.4084 
252 1 70.4158 7.51057 7.5 6.0492 -5476.99 11486 -135348 7502.43 22183.1 30474.6 -7.40894 
253 1 71.8356 7.48841 7.5 6.0492 13189 -4166.11 -144713 -9110.12 22313.1 15074.2 -7.40838 
254 1 72.5263 6.24773 7.5 6.0492 -3642.53 11577.9 -144426 6139.8 19562.1 23892.3 -7.4084 
255 1 73.9461 6.22557 7.5 6.0492 12160.9 -2828.27 -149324 -6520.76 20573.5 12223.3 -7.4081 
256 1 74.6752 7.4441 7.5 6.0492 -5118.82 13952.4 -147180 3761.61 21428.1 16629.5 -7.40823 
257 1 76.0951 7.42195 7.5 6.04916 12752.8 -4082.59 -147743 -3618.89 26252.4 6324.56 -7.4082 
258 1 76.7858 6.18126 7.5 6.04915 -3369.19 13115.7 -152327 1890.61 18759.9 8387.07 -7.40792 
259 1 78.2056 6.15911 7.5 6.04912 11654.3 -2737.08 -151582 -657.128 22768 1546.86 -7.40797 
325 1 69.725 8.75125 7.5 6.0492 14062.3 -5138.33 -140060 -11358 23016.7 16385 -7.40866 
328 1 72.5647 8.70694 7.5 6.0492 -6828.63 14198 -139738 5272.16 23461.1 24153.7 -7.40868 
329 1 73.9845 8.68479 7.5 6.0492 13561.7 -5416.67 -143087 -6438.46 28524.6 9713.43 -7.40848 
332 1 76.8242 8.64048 7.5 6.04915 -6531.02 15948.8 -148074 1504.17 23135.4 8391.69 -7.40818 
333 1 78.244 8.61832 7.5 6.04912 13050.7 -5592.14 -144553 -539.425 30941.6 1053.95 -7.40839 
260 1 0.153495 9.83685 7.5 6.04912 -7952.6 17181 -146821 -527.154 24463 -308.714 -7.40826 
261 1 1.57332 9.8147 7.5 6.04915 13493.6 -6553.24 -140219 2564.86 34417.9 -3186.89 -7.40864 
262 1 2.30242 11.0332 7.5 6.04916 -9028.09 18220.6 -143277 -2250.9 25261 -8966.7 -7.40847 
263 1 3.72225 11.0111 7.5 6.0492 13738.3 -7474.23 -135271 5537.1 36584.3 -6148.58 -7.40895 
264 1 4.41298 9.77039 7.5 6.0492 -7699.77 16071.4 -142218 -4143.82 24072 -17254.1 -7.40853 
266 1 6.5619 10.9668 7.5 6.0492 -9061.22 15831.3 -134252 -5454.05 24698.3 -24812.8 -7.40901 
267 1 7.98173 10.9446 7.5 6.0492 13863.2 -6357.04 -134612 10744 31542.2 -11765.5 -7.40899 
334 1 0.191869 12.2961 7.5 6.04912 -10370.4 19565.8 -142304 -607.052 26028.7 -412.011 -7.40853 
335 1 1.6117 12.2739 7.5 6.04915 13761.4 -9031.4 -129985 2623.44 40794.2 -2503.61 -7.40926 
336 1 2.3408 13.4924 7.5 6.04916 -11174.5 20395.9 -138832 -1997.35 25938 -8923.45 -7.40874 
337 1 3.76062 13.4703 7.5 6.0492 13631.1 -9703.04 -124491 5506.36 42295.9 -4336.42 -7.40959 
338 1 4.45135 12.2296 7.5 6.0492 -10184 18388.6 -137443 -3621.65 25464.7 -17159.5 -7.40882 
339 1 5.87118 12.2074 7.5 6.0492 13828.6 -8016.02 -130237 8251.42 37478.2 -7769.41 -7.40925 
340 1 6.60028 13.426 7.5 6.0492 -11306.3 17886.5 -129426 -4607.11 25090.1 -24586 -7.4093 
341 1 8.0201 13.4038 7.5 6.0492 13758.1 -8122.47 -125600 10615.3 37246.3 -8160.41 -7.40953 
342 1 8.71083 12.1631 7.5 6.0492 -10371.8 14984 -124207 -6361.26 24740.9 -31398.1 -7.40961 
408 1 0.230242 14.7553 7.5 6.04912 -12184.9 21539.4 -138210 -658.068 25974.9 -548.195 -7.40878 
409 1 1.65007 14.7331 7.5 6.04915 13264 -11242.9 -117849 2638.85 45843.1 -1769.59 -7.40999 
410 1 2.37917 15.9516 7.5 6.04916 -12717.8 22132.9 -135019 -1690.66 25185.8 -8838.29 -7.40897 
411 1 3.799 15.9295 7.5 6.0492 12753.9 -11670.8 -111937 5410.32 46714.3 -2501.14 -7.41035 
412 1 4.48972 14.6888 7.5 6.0492 -12068.7 20317 -133128 -3021.07 25289.2 -16926.8 -7.40908 
413 1 5.90955 14.6667 7.5 6.0492 13331 -9922.46 -119276 8116.42 42569.4 -4961.07 -7.40991 
414 1 6.63865 15.8852 7.5 6.0492 -12949.2 19543 -125307 -3656.41 24124.5 -24168 -7.40955 
415 1 8.05848 15.863 7.5 6.0492 12845.1 -9664.81 -114764 10379.8 41792 -4546.11 -7.41018 
416 1 8.74921 14.6223 7.5 6.0492 -12389.4 16750.4 -119411 -5191.57 24197.9 -31064 -7.4099 
482 1 0.268616 17.2145 7.5 6.04912 -13415.6 23038 -134917 -677.451 24672 -711.275 -7.40898 
483 1 1.68844 17.1923 7.5 6.04915 12010.8 -13183.7 -104087 2617.43 49588.1 -1005.66 -7.41082 