ITEM: TIMESTEP
70
ITEM: NUMBER OF ATOMS
8216
ITEM: BOX BOUNDS pp pp pp
0.0000000000000000e+00 7.8819589800000003e+01
0.0000000000000000e+00 1.3651953399999999e+02
0.0000000000000000e+00 1.8399999600000001e+01
ITEM: ATOMS id type x y z c_csym c_2[1] c_2[2] c_2[3] c_2[4] c_2[5] c_2[6] c_3 
1 1 -7.26152e-06 -2.20265e-06 7.34047 6.04824 -3103.54 -2958.95 -298.608 1.86164 -0.358906 -0.166249 -7.41135 
2 1 2.15397 1.18695 7.34168 6.04632 -5004.45 -655.21 -226.164 -956.852 2323.94 -4318.98 -7.41139 
3 1 3.57361 1.15883 7.34325 6.04327 -3711.3 -1710.96 -384.3 5835.56 1646.67 -6245.5 -7.41142 
4 1 6.41267 1.10311 7.34844 6.04086 -7284.26 1523.84 270.161 4532.85 3364.06 -11823.8 -7.41163 
5 1 7.8323 1.07619 7.35185 6.03886 -5879.29 403.956 -751.183 20330.2 -739.624 -12116.4 -7.41165 
38 1 0.04906 2.45891 7.34168 6.04498 -5155.03 -908.512 -322.652 -1564.48 4391.47 -113.156 -7.41138 
39 1 1.4687 2.43057 7.34207 6.04499 -2694.83 -3203.38 -269.849 280.165 4737.86 -2515.34 -7.4114 
40 1 2.20276 3.64602 7.34402 6.04303 -9789.62 4135.62 -221.208 -3950.31 6226.11 -4735.64 -7.41146 
41 1 3.62238 3.61792 7.34553 6.04134 -6095.57 705.463 -502.993 2836.55 6555.56 -5501.89 -7.41148 
42 1 4.30769 2.3743 7.34516 6.04426 -9771.24 4238.94 166.214 -419.196 4659.68 -8715.48 -7.41152 
43 1 5.72731 2.34667 7.34772 6.04033 -7259.27 1759.47 -863.668 11165.5 2990.92 -8878.94 -7.41152 
44 1 6.46093 3.56245 7.35053 6.04238 -16550.1 10699.9 1103.33 1637.19 6841.36 -12857.6 -7.41175 
45 1 7.88052 3.53552 7.35381 6.03715 -12492.4 7212.61 -1979.44 17264.7 3799.98 -10532.6 -7.41163 
46 1 8.56596 2.292 7.35447 6.03858 -13424.7 7764.1 1416.22 9175.7 6041.72 -15392.6 -7.4119 
112 1 0.0976295 4.91787 7.34515 6.04179 -7222.97 1247.46 -591.284 -5965.97 7893.63 -203.896 -7.41147 
113 1 1.51727 4.88956 7.34553 6.04305 -2560.68 -3304.48 62.9689 -4109.03 9710.63 -2282.62 -7.41153 
114 1 2.25084 6.10528 7.34843 6.04023 -14150.9 8739.98 -598.974 -9548.38 9120.64 -5021.74 -7.41156 
115 1 3.67045 6.07722 7.34983 6.03862 -8390.92 3065.88 -193.732 -2855.01 11364.9 -4631.66 -7.41164 
116 1 4.35598 4.83367 7.34844 6.04115 -16776.2 11206.6 331.463 -4702.61 7911.59 -9323.78 -7.41163 
117 1 5.77557 4.80606 7.35085 6.03757 -11887.5 6399.87 -1265.88 6635.76 7762.15 -7571.86 -7.41159 
118 1 6.50853 6.02221 7.35447 6.03874 -25240 19525.8 1535.99 -4092.19 9351.22 -13588.1 -7.4119 
119 1 7.92809 5.99529 7.35752 6.0332 -18866.8 13894.5 -2774.51 11191.9 8359.98 -8730.17 -7.41169 
120 1 8.61355 4.7517 7.35726 6.03891 -24343.9 18489.1 2756.96 4753.8 8782.16 -16534.8 -7.41208 
186 1 0.145278 7.37687 7.35051 6.03835 -8992.41 3514.52 -1380.19 -12696.6 10298.7 -291.987 -7.41157 
187 1 1.56493 7.34862 7.35086 6.04108 -2543.15 -3130.68 936.838 -10809.4 14388 -2003.92 -7.41175 
188 1 2.29781 8.56471 7.35444 6.03797 -18140.9 13206.3 -1612.94 -17166.9 10911.9 -5214.85 -7.41167 
189 1 3.71743 8.53672 7.3557 6.03574 -10821.9 5553.94 754.498 -10785.3 15775.5 -3660.44 -7.41189 
190 1 4.40336 7.29334 7.35349 6.03855 -23212.7 17919.4 -27.2905 -11455.5 10107.7 -9724.44 -7.41175 
191 1 5.82294 7.26576 7.35569 6.03372 -16371.2 11089.4 -1120.03 -517.2 12323.1 -6100.17 -7.41176 
192 1 6.55506 8.48238 7.35986 6.03538 -33278.4 27963.4 1304.44 -12034.8 10822 -14070.2 -7.41204 
193 1 7.9746 8.45546 7.36261 6.02892 -25105.1 20425.8 -2892.58 2558.97 12655.4 -6763.04 -7.41184 
194 1 8.66029 7.21193 7.36159 6.03441 -34397.2 28788.8 3537.13 -2365.73 10521.9 -17362.4 -7.41226 
265 1 5.86907 9.72579 7.36179 6.03031 -20733.3 15651.3 -230.685 -9669.74 16447 -4511.46 -7.41201 
268 1 8.70584 9.67264 7.36705 6.03037 -43504.1 38475 3516.42 -11513 11283.4 -17925.5 -7.41242 
6 1 10.6713 1.02264 7.35985 6.033 -8209.21 2960.05 1013.89 17642.4 5566.13 -16870 -7.41204 
7 1 12.0909 0.99764 7.36419 6.03469 -6688.03 2132.42 -1355.99 39952.3 -4273.85 -15668.8 -7.41198 
8 1 14.9299 0.947056 7.37321 6.02454 -8453.55 3861.5 1786.96 36169.6 8643.23 -19335.4 -7.41251 
9 1 16.3495 0.924397 7.37766 6.027 -6955.54 3210.27 -2066.16 62058.1 -8364.27 -17181.6 -7.41235 
10 1 19.1887 0.877156 7.38636 6.01623 -8158.75 4065.91 2478.68 58033.4 12171.5 -19697.8 -7.41297 
47 1 9.98556 2.26596 7.35839 6.03698 -10476.2 5625.54 -2075.97 28554.8 -281.187 -13278.3 -7.41176 
48 1 10.7187 3.48217 7.36158 6.03663 -20724.9 15113.6 3343.69 14684 8483.27 -18434.1 -7.41226 
49 1 12.1382 3.45714 7.36575 6.03481 -16135.3 11923.3 -4278.86 36817.9 -209.867 -13622.9 -7.41183 
50 1 12.8241 2.21389 7.36703 6.0305 -15144.4 9962.76 3067.78 25287.4 8457.82 -19317.1 -7.41241 
51 1 14.2436 2.19001 7.37144 6.03307 -11887.7 8202.2 -3698.83 49721.2 -4411.19 -15600.2 -7.41204 
52 1 14.9762 3.4067 7.3746 6.02836 -22511.6 17272.5 6037.79 33116.1 11074.4 -21230.5 -7.41286 
53 1 16.3958 3.38398 7.37888 6.03167 -17586.5 14309.9 -6999.74 58866.4 -4716.79 -14996.7 -7.41205 
54 1 17.0822 2.14112 7.38039 6.02203 -15695.5 10669.2 4822.87 45721.4 11614.6 -20763.1 -7.41295 
55 1 18.5018 2.11967 7.3846 6.02481 -12263 9240.16 -5428.4 72300 -8760.54 -16239.6 -7.41233 
56 1 19.2338 3.33683 7.3875 6.01986 -22298 17213.8 8791.77 54869.7 14254.7 -21652.5 -7.41345 
121 1 10.0331 4.72564 7.36098 6.03411 -18705 14032.2 -3910.32 23797.1 4108.04 -11298.9 -7.41171 
122 1 10.7654 5.9423 7.36485 6.03495 -32544.6 26893.9 5241.1 8638.48 10457.6 -19659.5 -7.41249 
123 1 12.1849 5.91721 7.36876 6.03051 -25258.5 21613.1 -6749.34 30316 4021.89 -11365.3 -7.41175 
124 1 12.8707 4.67381 7.36931 6.03377 -28395.6 22828 6141.03 20600.2 10657 -20918.8 -7.4127 
125 1 14.2902 4.64986 7.37349 6.03287 -22058.7 18753.8 -7414.9 44721.7 -416.795 -13353.3 -7.41185 
126 1 15.0219 5.86702 7.37724 6.03078 -35911 30324.9 9836.9 26622.4 12546.4 -22851.5 -7.41321 
127 1 16.4415 5.84417 7.38127 6.03024 -27939.5 25304.6 -11465.8 51993.2 -788.795 -12648.4 -7.41182 
128 1 17.1277 4.60113 7.38223 6.02541 -29745.3 23949.5 9921.98 40769.2 13381.3 -22607.8 -7.41337 
129 1 18.5472 4.57957 7.38624 6.03028 -22887.7 20410.6 -11210.6 67101.7 -5089.6 -14006 -7.41199 
130 1 19.2785 5.7972 7.38967 6.02248 -35862.3 30064.6 14656.7 47937.7 15336.3 -23417 -7.41393 
195 1 10.0798 7.18583 7.36502 6.02905 -26529.5 22349.2 -5163.29 16095.8 8443.75 -9119.42 -7.41175 
196 1 10.8112 8.40301 7.36933 6.02995 -43491.5 38200.4 6419.6 115.13 11439.9 -20581.7 -7.41271 
197 1 12.2307 8.37783 7.37291 6.0253 -34110.3 31082.5 -8482.24 20946.2 8151.39 -8936.37 -7.41177 
198 1 12.9165 7.13439 7.37283 6.03103 -40715.3 35297.9 8611.86 12938.5 11869.4 -22216.6 -7.41298 
199 1 14.336 7.11031 7.37673 6.02735 -31785.4 29241.1 -10510.4 36446.5 3669.13 -10930.6 -7.41174 
200 1 15.0667 8.32803 7.38087 6.02739 -48338.5 43023.8 12865.7 17356.9 13012.3 -24200.3 -7.41353 
201 1 16.4862 8.30499 7.3846 6.02477 -37875.4 36324.2 -15142.2 41935.9 3158.65 -10149.8 -7.41168 
202 1 17.1725 7.06185 7.3851 6.02734 -42871.9 36993 14397.5 32443.4 14125 -24219.2 -7.41377 
203 1 18.5919 7.04009 7.38884 6.02821 -33080.2 31543.8 -16352.5 58328.7 -1234.55 -11632.7 -7.41173 
204 1 19.3222 8.25825 7.39265 6.02443 -48547.3 42664.7 19727.9 37857.1 15351.6 -24973.6 -7.41438 
269 1 10.1253 9.64651 7.37013 6.02447 -34033.1 30348.3 -5601.36 5993.51 12495.3 -6792.31 -7.41189 
272 1 12.9612 9.59558 7.37729 6.02569 -52041.6 47077.4 10207.7 2993.26 12120.6 -23224.9 -7.41322 
273 1 14.3806 9.57136 7.38084 6.02212 -41169.9 39542 -12708.5 25501.2 7611.1 -8359.29 -7.41173 
276 1 17.2161 9.52324 7.38871 6.02415 -54993 49577.3 17936 21570.9 13859.2 -25576.1 -7.41413 
277 1 18.6356 9.50122 7.39215 6.02288 -42939.4 42685.1 -20536.1 46562.1 2565.65 -9123.29 -7.41156 
11 1 20.6083 0.856977 7.3904 6.01823 -6638.54 3806.99 -2710.99 84602.8 -12457.6 -17028.6 -7.4127 
12 1 23.4476 0.813117 7.39795 6.00867 -7624.03 3856.99 3015.04 81299.1 15666.5 -18231.7 -7.41336 
13 1 24.8672 0.79534 7.40126 6.00982 -6127.84 3950.1 -3171.51 105788 -16086.8 -15284.9 -7.41299 
14 1 27.7068 0.754592 7.40717 6.00262 -7027.8 3536.74 3322.94 103655 18692.2 -15041 -7.41364 
15 1 29.1264 0.738912 7.40958 6.00267 -5659.26 3679.95 -3394.07 123457 -18910.1 -11991.2 -7.41322 
57 1 20.6534 3.31657 7.39136 6.02297 -17092.9 14751.2 -9700.34 81386 -9127.5 -14938 -7.41225 
58 1 21.3405 2.07416 7.3928 6.01385 -14912.3 10306.1 6459.8 68527.8 15046.3 -20148.7 -7.41344 
59 1 22.7601 2.05518 7.39642 6.01607 -11516.7 9082.72 -6980.49 94443.9 -12818 -15382.7 -7.41259 
60 1 23.4918 3.27277 7.39891 6.01189 -20509.7 15553.2 11263.8 78032.6 17509 -19987.7 -7.41396 
61 1 24.9113 3.25489 7.40203 6.01434 -15178.1 13573.6 -12010.2 102516 -13005.3 -13469.6 -7.41242 
62 1 25.5991 2.01295 7.40323 6.00668 -13288.2 9141.65 7781.18 91625.7 18255.7 -17645.2 -7.41384 
63 1 27.0186 1.99624 7.406 6.00799 -10030.3 8019.05 -8157.33 114143 -16191.5 -13020.2 -7.4128 
64 1 27.75 3.21418 7.40801 6.00487 -17706.5 12777.7 13168 100235 20364.4 -16411.1 -7.41436 
65 1 29.1696 3.19839 7.41022 6.00674 -12423.3 11037.6 -13685.2 120077 -16032.3 -10595.6 -7.41255 
131 1 20.698 5.77675 7.3933 6.02797 -27298.6 25661.8 -16226.3 74234.4 -5453.82 -12724.8 -7.41188 
132 1 21.3849 4.53417 7.39435 6.01717 -28370.1 22638.2 13596.7 63325.5 16505.2 -21955.5 -7.414 
133 1 22.8044 4.51504 7.39775 6.02151 -21290.4 19527.5 -14751.6 89090.4 -9404.45 -13356.9 -7.41211 
134 1 23.5353 5.73306 7.40076 6.01454 -32924 27007.7 19086 70669.9 18310.6 -21616.1 -7.41458 
135 1 24.9549 5.71496 7.40365 6.02012 -24064 23202.9 -20408.9 95040.7 -9553.67 -11560.3 -7.41192 
136 1 25.6425 4.47287 7.40456 6.00973 -25019.9 19524.7 16718 86151.5 19499.9 -19174.3 -7.41451 
137 1 27.062 4.45598 7.40712 6.01314 -17962.3 16611.5 -17610.6 108571 -12995.7 -11360.6 -7.4122 
138 1 27.7928 5.67429 7.40964 6.00779 -27878.3 21834 22614.7 92418.9 20975.4 -17696.5 -7.41508 
139 1 29.2123 5.65825 7.41162 6.01245 -18890.5 18470.7 -23566.6 112238 -12777.5 -9134.65 -7.41194 
205 1 20.7417 8.23754 7.39601 6.0268 -37190.1 36703.6 -21942.1 63525 -1694.05 -10384.9 -7.41158 
206 1 21.4286 6.99484 7.39674 6.02003 -41023.6 34899.4 20116.6 54416.6 16885.4 -23600 -7.41453 
207 1 22.8481 6.97545 7.3999 6.02597 -30716.4 30041.3 -21892.1 79854.6 -5762.65 -11219.1 -7.41171 
208 1 23.5781 8.19398 7.40328 6.01811 -44626.2 38314.8 26122.2 59801.6 17980.4 -23097.4 -7.41516 
209 1 24.9976 8.17554 7.40593 6.02449 -32712.2 33026 -28011.8 83720.7 -5987.57 -9546.55 -7.41149 
210 1 25.6852 6.93337 7.40663 6.01261 -36115 29870.2 25064.1 76640 19621.8 -20594.2 -7.41517 
211 1 27.1048 6.91618 7.40896 6.01853 -25611.6 25364.3 -26464.1 98872.8 -9556.54 -9615.04 -7.41168 
212 1 27.8346 8.13493 7.41186 6.01139 -37313.1 30826.7 31306.3 80805.3 20410.7 -18884.2 -7.41578 
213 1 29.2542 8.1185 7.41361 6.01764 -25046.8 26177.2 -32689.5 100347 -9400.04 -7598.13 -7.41142 
280 1 21.4713 9.45618 7.39973 6.02211 -52786.4 46848.1 25671.7 42512.4 16177.5 -25047.6 -7.41502 
281 1 22.8907 9.43645 7.40263 6.02571 -39859.7 40667.8 -28055.1 67296.4 -2131.31 -8961.61 -7.41139 
284 1 25.727 9.39445 7.4092 6.01685 -46380.2 39954.6 32455.7 63814.5 18586.6 -21874.6 -7.41579 
285 1 27.1465 9.37685 7.41129 6.02359 -32953 34328 -34359.6 85575.9 -6109.5 -7773.4 -7.41125 
16 1 31.9662 0.700703 7.41361 5.99771 -6238.99 3112.74 3368.54 122349 20948.6 -10396.5 -7.41382 
17 1 33.3858 0.686593 7.41506 5.99763 -5052.44 3087.42 -3372.76 135437 -20747.2 -7411.85 -7.41338 
18 1 36.2258 0.650072 7.41717 5.99517 -5368.07 2555.94 3180.95 134947 22290.1 -4797.6 -7.4139 
19 1 37.6454 0.63683 7.41766 5.99528 -4282.66 2284.78 -3136.04 139992 -21554.2 -2009.66 -7.41347 
66 1 29.858 1.95686 7.41105 6.00069 -11302.4 7366.75 8642.41 112439 20853.8 -13448.5 -7.41412 
67 1 31.2775 1.942 7.41287 6.0015 -8128.69 6337.61 -8859.2 129167 -18624.6 -9269.38 -7.41295 
68 1 32.0088 3.1602 7.41437 5.99895 -13916.5 9335.71 14344.8 118768 22509.3 -11274.2 -7.41462 
69 1 33.4284 3.14597 7.41561 6.00104 -8763.1 7531.05 -14622 131888 -18024.2 -6536.28 -7.41264 
70 1 34.1172 1.90477 7.41602 5.99628 -8860.54 5207.05 9002.48 128312 22621.1 -7990.8 -7.41428 
71 1 35.5368 1.89114 7.41688 5.99738 -5767.15 4104.29 -9073.9 137497 -20009 -4485.89 -7.41305 
72 1 36.268 3.10944 7.41787 5.99544 -9372.33 5403.81 14784.7 131179 23801 -5136.14 -7.41474 
73 1 37.6876 3.09608 7.41816 5.99755 -4343.93 3370 -14832.7 136257 -18921.9 -1709.39 -7.4127 
74 1 38.3767 1.85508 7.41812 5.99456 -5939.67 2814.54 8911.14 137161 23475.1 -1856.21 -7.41433 
140 1 29.9006 4.41663 7.41224 6.00299 -20337.7 15034.7 18964.7 106643 21954.4 -14547.1 -7.41489 
141 1 31.3202 4.40158 7.41385 6.00612 -13309.1 12301.2 -19536.6 123367 -15608.7 -8100.81 -7.41227 
142 1 32.0509 5.62006 7.41586 6.00183 -21000 15375.7 24948.5 110567 23006.9 -12100.4 -7.41542 
143 1 33.4704 5.60556 7.41688 6.00602 -12054.2 12111.2 -25488.1 123710 -14925.7 -5630.24 -7.41197 
144 1 34.1594 4.36434 7.41712 5.99791 -14369.8 9674.22 20213.3 122219 23643.8 -8582.99 -7.41511 
145 1 35.5789 4.35052 7.41777 6.00108 -7368.36 6974.07 -20461.9 131474 -17118.6 -3888.05 -7.41232 
146 1 36.3098 5.56901 7.41928 5.99756 -12830.3 8144.02 26029.7 122697 24256.3 -5452.95 -7.41559 
147 1 37.7294 5.55536 7.41935 6.00121 -3978.42 4678.14 -26160.4 127811 -15916.6 -1419.19 -7.41199 
148 1 38.4187 4.31444 7.41917 5.99536 -7676.7 3827.95 20500.1 130834 24485.8 -1915.02 -7.41518 
214 1 29.9426 6.87685 7.4141 6.00669 -28721.9 22696.6 28730.9 96570.3 21912.6 -15577 -7.41565 
215 1 31.3622 6.86147 7.41548 6.01222 -18138.5 18486.6 -29651.6 113232 -12348.2 -6879.56 -7.41167 
216 1 32.0921 8.0803 7.41789 6.00642 -27361.1 21426 34833.6 98321.6 22309.9 -12870.1 -7.41621 
217 1 33.5117 8.06538 7.41869 6.0122 -15011.1 16930.4 -35635.2 111337 -11705.5 -4688.43 -7.41137 
218 1 34.2009 6.82421 7.41885 6.00128 -19361.4 14093.3 30896 111719 23522.1 -9140.23 -7.41594 
219 1 35.6205 6.81003 7.41929 6.00603 -8741.43 10025.5 -31315.6 120950 -13987.1 -3279.22 -7.41166 
220 1 36.3507 8.02878 7.4212 6.00151 -15565.5 10763.8 36582.5 110009 23515.3 -5748.95 -7.41643 
221 1 37.7703 8.01469 7.42106 6.00646 -3197.05 6218.51 -36794.9 115161 -12792.3 -1140.5 -7.41136 
222 1 38.4601 6.7739 7.42083 5.99803 -8843.78 4776.33 31572.9 120058 24359.1 -1969.21 -7.41604 
288 1 29.9836 9.33753 7.4164 6.011 -36372.9 30158.5 37576 82950.2 20671.8 -16517.7 -7.41637 
289 1 31.4032 9.32168 7.41756 6.0175 -22675.5 24986.6 -38848.3 99302.5 -9074.94 -5597.31 -7.41115 
292 1 34.2414 9.28437 7.42099 6.00644 -23674.1 18344.5 40693.6 97486.1 22184.3 -9651.66 -7.41673 
293 1 35.661 9.26969 7.42121 6.01236 -9793.92 13388.6 -41288.1 106569 -10843.2 -2655.35 -7.41109 
296 1 38.5005 9.23348 7.42289 6.00245 -9466.32 5623.61 41781.4 105496 23014.3 -2015.04 -7.41686 
20 1 40.4854 0.600954 7.41787 5.99463 -4355.78 1876.47 2828.2 139878 22671.7 1171.45 -7.41389 
21 1 41.9051 0.587781 7.41742 5.99516 -3414.61 1281.69 -2738.61 136367 -21345 3679.38 -7.4135 
22 1 44.7452 0.55144 7.41572 5.99607 -3314.46 1006 2379.32 136634 22075.6 6937.03 -7.4138 
23 1 46.1648 0.537527 7.41433 5.99686 -2501.23 117.924 -2247.4 124875 -20138.1 9098.21 -7.41345 
24 1 49.0049 0.499657 7.4107 6.00035 -2297.67 153.864 1886.14 125800 20482.7 11943.2 -7.41362 
75 1 39.7963 1.84193 7.41804 5.99554 -2946.87 1509.8 -8847.18 137910 -20332.7 838.117 -7.4131 
76 1 40.5277 3.06019 7.41854 5.99475 -4410.72 1184.79 14559.4 135996 24199.2 1381.99 -7.41474 
77 1 41.9473 3.04689 7.41789 5.99619 524.756 -1146.71 -14383.8 132541 -18730.2 3382.78 -7.41273 
78 1 42.6365 1.80596 7.41739 5.99468 -2954.84 263.624 8443.21 137943 23394.7 4357.2 -7.41427 
79 1 44.0561 1.79247 7.41637 5.99606 -50.8695 -1351.84 -8245.42 130204 -19613.4 6169.01 -7.4131 
80 1 44.7877 3.01053 7.41638 5.99554 347.054 -3127.11 13742.2 132731 23687.8 7681.12 -7.41462 
81 1 46.2074 2.99649 7.4148 5.99774 5176.86 -5722.52 -13345.4 121081 -17468.5 8210.85 -7.41271 
82 1 46.8965 1.75548 7.4138 5.9972 -131.684 -2329.68 7658.9 130746 22359.8 10072.4 -7.41412 
83 1 48.3161 1.74088 7.41184 5.99876 2702.43 -4048.68 -7335.83 115316 -17876.9 10954.6 -7.41304 
84 1 49.048 2.95861 7.41135 5.99909 4558.18 -7014.68 12376.4 121996 22245.8 13175.6 -7.41437 
149 1 39.8383 4.30108 7.41889 5.99791 -732.161 902.618 -20433.9 131753 -17497 826.419 -7.41235 
150 1 40.5694 5.51943 7.41991 5.99607 -3930.53 476.225 25932.1 127322 24681 1586.1 -7.4156 
151 1 41.9891 5.50585 7.41906 5.99899 4819.57 -3396.39 -25660.2 123960 -15740.8 3034.27 -7.41202 
152 1 42.6786 4.26508 7.41842 5.99546 -840.945 -2186.26 19909.5 131556 24460.7 4829.02 -7.41512 
153 1 44.0983 4.25139 7.41721 5.99761 5967.08 -5502.61 -19530.5 124027 -16755.6 5540.32 -7.41237 
154 1 44.8298 5.46945 7.41774 5.99682 4442.19 -7266.66 24732.8 124125 24264.3 8391.3 -7.41545 
155 1 46.2495 5.45513 7.41598 5.99975 13109.9 -11493.2 -24060.5 112644 -14417.3 7231.75 -7.41204 
156 1 46.9391 4.21437 7.41483 5.99719 5391.94 -8021.59 18497.2 124501 23549.1 11046 -7.41492 
157 1 48.3588 4.19957 7.41269 6.00015 12147.5 -11573.1 -17814.7 109268 -14926.8 9732.09 -7.41236 
158 1 49.0907 5.41722 7.41274 5.99963 11773.1 -14285.3 22471.8 113693 22985.3 14347.5 -7.41514 
223 1 39.8797 6.76018 7.42035 6.00196 1798.85 575.386 -31497.5 120998 -14422 780.254 -7.41168 
224 1 40.6104 7.9787 7.42178 5.99926 -2940.06 -390.024 36617.3 114495 23972.6 1779.54 -7.41644 
225 1 42.0301 7.96467 7.42075 6.00341 9353.23 -5388.95 -36246.5 111274 -12632.6 2624.87 -7.41139 
226 1 42.7202 6.72412 7.42006 5.99761 1729.42 -4773.49 30851.6 120749 24399.1 5276.9 -7.41597 
227 1 44.1399 6.71007 7.41867 6.00081 12278.9 -9407.88 -30284.2 113361 -13655.7 4831.92 -7.41171 
228 1 44.8711 7.92821 7.41963 5.99977 9112.59 -11568.5 35019.3 111430 23660.9 9060.31 -7.41626 
229 1 46.2909 7.91346 7.41771 6.00329 21281 -17102.3 -34068.3 100178 -11243.7 6146.05 -7.41145 
230 1 46.9811 6.67301 7.4165 5.99894 11401.3 -13902 28788.7 113925 23622.8 11967.8 -7.41571 
231 1 48.4009 6.65786 7.41422 6.00257 21838.4 -18907.5 -27740 98953.5 -11727.4 8390.09 -7.41176 
232 1 49.1327 7.87552 7.4147 6.00184 19341.3 -21692.5 31831.6 101484 22562.1 15446.7 -7.41589 
297 1 39.9202 9.21924 7.42221 6.00751 4417.94 472.998 -41698.6 106415 -11335.2 697.5 -7.41109 
300 1 42.7608 9.1831 7.4221 6.00129 4802.67 -7402.67 40923.5 106178 23125.9 5698.46 -7.41677 
301 1 44.1806 9.16853 7.42055 6.0055 18640.1 -13150.1 -40167.8 98888.8 -10542.6 4036.84 -7.41114 
304 1 47.0222 9.13141 7.4186 6.00229 17684.9 -19939.5 38183.5 99707.6 22498.1 12827.9 -7.41647 
305 1 48.4421 9.11577 7.41619 6.00641 31338.2 -26139.7 -36768.8 85047.6 -8511.24 6918.56 -7.41124 
25 1 50.4245 0.484281 7.40835 6.00117 -1688.58 -1021.46 -1729.87 107012 -17973.8 13677.4 -7.41333 
26 1 53.2645 0.443995 7.40281 6.00693 -1594.88 -804.537 1385.63 108953 17916.7 15686 -7.41335 
27 1 54.6842 0.426594 7.39955 6.00657 -1049.35 -1800.12 -1237.19 85121.2 -14980.7 16918.6 -7.41311 
28 1 57.5241 0.383266 7.39229 6.01503 -1408.59 -1623.39 917.499 88302.8 14530.7 17834.6 -7.41301 
29 1 58.9437 0.363498 7.38828 6.0137 -1001.2 -2487.02 -800.491 61903.2 -11429.5 18541.4 -7.4128 
85 1 50.4677 2.94312 7.40883 6.00117 9164.15 -10008.8 -11780 103386 -15188.1 12239.6 -7.41266 
86 1 51.1565 1.70189 7.40732 6.0024 1994.41 -4703.13 6596.81 116735 20361.1 14730.7 -7.41385 
87 1 52.5762 1.68552 7.40442 6.00323 4691.85 -6521.28 -6181.9 95199.3 -15204.3 14664.1 -7.41291 
88 1 53.3085 2.90282 7.40345 6.00509 7611.67 -10316.9 10508.8 105406 19891.2 17317.8 -7.41401 
89 1 54.7283 2.88532 7.40005 6.00592 12065 -13378.4 -9769.78 81748.2 -12031.5 15019.3 -7.41254 
90 1 55.4166 1.64377 7.39805 6.00961 3509.52 -6411.63 5313.76 97815.6 17473.1 17872.6 -7.41349 
91 1 56.8363 1.62518 7.39432 6.00932 5906.29 -8455.48 -4857.56 72448.3 -11796.7 16920.7 -7.4127 
92 1 57.5691 2.842 7.39295 6.01283 9278.85 -12663.1 8258.53 85055 16780.4 19719.3 -7.41354 
93 1 58.9888 2.82214 7.38884 6.01255 13486.8 -15705.6 -7455.83 58905.4 -8272.03 16327.2 -7.41235 
159 1 50.5105 5.40147 7.41008 6.0028 20210.6 -18907.7 -21425.9 95334.2 -12010.5 10675.4 -7.41205 
160 1 51.1999 4.16057 7.40837 6.00172 10364.8 -13149.4 16301.6 110792 21738.5 16141.7 -7.41457 
161 1 52.6197 4.14402 7.40534 6.00369 16926.7 -16887 -15361 89491.7 -12107.7 12912.6 -7.41232 
162 1 53.3521 5.36118 7.40493 6.00503 17101.4 -20018 19215.2 97587.1 20861.7 18861.5 -7.41468 
163 1 54.7719 5.34344 7.40143 6.00687 25292 -24859.9 -17877.8 74282.5 -8682.26 12962.5 -7.41204 
164 1 55.4609 4.10228 7.39916 6.00844 13671.9 -16927.1 13420.2 92280.4 19103.5 19602.6 -7.4141 
165 1 56.8807 4.08353 7.39534 6.00919 19902.7 -20916.6 -12313 67235.8 -8513.95 14756.3 -7.41222 
166 1 57.6137 5.30017 7.39457 6.01236 20160.1 -23769.7 15170 77832.4 18057.1 21478.2 -7.41409 
167 1 59.0336 5.2801 7.39042 6.013 27939.1 -28776.3 -13678.7 52142.8 -4717.68 13916.5 -7.41198 
233 1 50.5525 7.85935 7.41193 6.00587 31250.7 -27703.9 -30334.1 83435.6 -8704.2 8968.02 -7.41153 
234 1 51.2427 6.61886 7.41013 6.00279 19117.7 -21737.1 25429.1 100706 22019.3 17472.3 -7.41529 
235 1 52.6625 6.60198 7.40699 6.00572 29273.2 -27186.6 -23958.3 79772.1 -8753.35 11009.8 -7.4118 
236 1 53.3949 7.81908 7.40704 6.00662 26900 -29838.6 27154.8 86043.3 20698.3 20297.9 -7.41532 
237 1 54.8148 7.80097 7.4035 6.00926 38436.2 -36160 -25221.9 63262.7 -5199.96 10736 -7.41161 
238 1 55.5047 6.56029 7.40108 6.00899 24192.5 -27481 20926.4 82854.5 19667.6 21218.4 -7.4147 
239 1 56.9245 6.54125 7.39722 6.01061 33884.8 -33243 -19167.8 58307.6 -4970.05 12411.8 -7.41182 
240 1 57.6576 7.7578 7.39696 6.01351 31110.5 -34969.9 21301.6 67152.2 18243.3 23086.4 -7.41461 
241 1 59.0775 7.73742 7.39285 6.01486 42010.8 -41610.7 -19131.9 42124.3 -1035.38 11313.6 -7.41168 
308 1 51.2845 9.07674 7.41237 6.00543 27993.8 -30630.3 33625.8 87184.6 21127 18702.5 -7.41596 
309 1 52.7045 9.05942 7.40917 6.00909 41292.8 -37301 -31629.9 66737.9 -5379.18 8947.63 -7.41136 
312 1 55.5475 9.01778 7.40358 6.01107 34723 -38229.7 27481.8 70254.3 19101.2 22690.1 -7.41525 
313 1 56.9675 8.99836 7.39974 6.01333 47330 -45442.6 -25085.3 46377.2 -1408.17 9890.19 -7.4115 
30 1 61.7834 0.316811 7.37975 6.02378 -1543 -2316.43 523.708 65935.3 10654.7 18296.8 -7.4126 
31 1 63.2031 0.29456 7.37528 6.02181 -1268.38 -2928.02 -447.313 39765.8 -7721.29 18468.2 -7.41242 
32 1 66.0426 0.244499 7.36624 6.03242 -1855.87 -2753.22 218.02 43712.6 6758.56 17006.9 -7.41216 
33 1 67.4623 0.219866 7.36179 6.03034 -1765.77 -3174.44 -230.846 20619.6 -4316.53 16499.1 -7.41201 
94 1 59.6766 1.5802 7.38642 6.01801 3986.2 -7610.34 3913.65 76186.2 13944.6 19263.2 -7.41304 
95 1 61.0963 1.55916 7.38208 6.01683 6115.86 -9638.45 -3463.57 49648.1 -7989.47 17600.6 -7.41242 
96 1 61.8296 2.77548 7.38045 6.02148 9433.78 -13706.5 5840.96 63064.8 13274.3 20227.3 -7.413 
97 1 63.2493 2.75315 7.37594 6.02042 13286.5 -16635.8 -5062.33 37166.3 -4280.14 16144.9 -7.41211 
98 1 63.9365 1.51078 7.37323 6.02684 3679.2 -8008.04 2536.07 53845 10205.9 18842.6 -7.41254 
99 1 65.3561 1.48729 7.36867 6.02513 5501.73 -9865.03 -2153.55 28902.9 -4199.73 16645.4 -7.41209 
100 1 66.0899 2.70315 7.36705 6.03039 8002.46 -13092 3516.46 41227.4 9882.21 18734.5 -7.41242 
101 1 67.5096 2.67847 7.36261 6.02894 11326.8 -15849.4 -2892.76 18389.7 -470.863 14341.5 -7.41184 
102 1 68.1961 1.43565 7.35986 6.03539 2367.45 -7409.66 1304.59 32529.9 6773.81 16407.4 -7.41204 
168 1 59.722 4.0386 7.38764 6.01659 15031.6 -19033.3 10088.4 71147.3 15908.8 21126 -7.41351 
169 1 61.1418 4.01742 7.38327 6.01632 20787.4 -23173.9 -8932.41 45007.4 -4473.23 15189.6 -7.41208 
170 1 61.8754 5.23355 7.38233 6.02087 20488.6 -25054.1 10733.9 56496.7 14959.2 21970.9 -7.41341 
171 1 63.2952 5.21107 7.37786 6.02055 27656.2 -30064.6 -9256.52 31140 -470.443 13567.3 -7.41188 
172 1 63.983 3.96914 7.37465 6.02545 14332.8 -19004.5 6662.62 49312.7 12624.1 20593.1 -7.41288 
173 1 65.4028 3.94554 7.37013 6.02449 19469 -23172.2 -5601.38 24854.3 -365.509 14217.5 -7.41189 
174 1 66.1368 5.16125 7.36933 6.02996 17838.9 -23160.6 6419.31 35315.1 12104.3 20198.1 -7.41271 
175 1 67.5566 5.13645 7.36502 6.02905 24093.7 -28143.1 -5163.45 13080.7 3675.54 11872.5 -7.41175 
176 1 68.2437 3.89406 7.36159 6.03442 11081.1 -16444.5 3537.04 28516.1 9774.83 17793.7 -7.41226 
242 1 59.7669 6.49642 7.38983 6.01683 26270.8 -30407 15658 62488.7 16847.3 22824.8 -7.41399 
243 1 61.1867 6.47502 7.38551 6.01732 35252.8 -36473.7 -13803.2 36989.6 -710.519 12562 -7.41181 
244 1 61.9203 7.69105 7.38517 6.02184 31450.5 -36289.4 14864 46711.8 15600.2 23504.2 -7.4138 
245 1 63.3402 7.66833 7.38084 6.02211 41387.6 -43122.1 -12708.5 22176.5 3433.88 10771.1 -7.41173 
246 1 64.029 6.42692 7.37729 6.02569 25000.3 -29840.7 10207.8 41462.9 14052.9 22109.2 -7.41322 
247 1 65.4488 6.40316 7.37291 6.02531 33041.8 -35935.4 -8482.02 17746.7 3663.03 11527.6 -7.41177 
248 1 66.1828 7.61881 7.37283 6.03103 27499.9 -32888.3 8612.08 26471.9 13305.4 21387.5 -7.41298 
249 1 67.6027 7.59387 7.36876 6.0305 36156 -39787 -6749.27 5150.54 7831.55 9165.82 -7.41175 
250 1 68.2907 6.35197 7.36485 6.03496 19687.3 -25134.2 5241.05 21464.5 11796.4 18886.3 -7.41249 
316 1 59.8108 8.95368 7.39276 6.01859 37274.2 -41875 20288.7 50896.6 16711.4 24326.4 -7.41442 
317 1 61.2307 8.93196 7.38856 6.0196 48902.9 -49378 -17760.2 26262.7 3051.32 9745.79 -7.41163 
320 1 64.0739 8.88415 7.38087 6.02737 35233.7 -40537.1 12865.7 30895.6 14451.9 23369.1 -7.41353 
321 1 65.4939 8.86017 7.37673 6.02735 45606.5 -48107.1 -10510.6 8191.96 7631.26 8642.88 -7.41174 
324 1 68.3366 8.80942 7.36931 6.03377 27933.4 -33398.3 6141.32 11900.9 12787.5 19688.7 -7.4127 
34 1 70.3017 0.166745 7.35349 6.0386 -2366.37 -2925.2 -27.6296 23568.5 3367.91 13615.6 -7.41175 
35 1 71.7213 0.140093 7.34983 6.03858 -2441.67 -3247.47 -193.744 6531.56 -1670.91 12158 -7.41164 
36 1 74.5607 0.0846358 7.34402 6.04301 -2791.2 -2993.08 -221.001 8086.63 988.38 7759.79 -7.41146 
37 1 75.9803 0.0566441 7.34207 6.04496 -2839.93 -2969.34 -269.847 -401.022 -190.706 5361.07 -7.4114 
103 1 69.6158 1.40993 7.35569 6.03373 3900.39 -8962.21 -1120.18 12136.8 -878.792 13722.2 -7.41175 
104 1 70.3499 2.62544 7.35447 6.03874 4875.35 -10432.8 1536.15 21432.1 7091.91 14892.6 -7.4119 
105 1 71.7696 2.59876 7.35085 6.03757 7607.08 -13125.7 -1265.99 4601 2676.52 10508 -7.41159 
106 1 72.4555 1.35555 7.34844 6.04115 1.30486 -5782.7 331.21 14509.5 4119.34 11513.3 -7.41163 
107 1 73.8752 1.32811 7.34553 6.04129 1285.96 -7143.72 -503.223 1502.21 1487.19 8428.29 -7.41148 
108 1 74.6095 2.54342 7.34516 6.04426 141.699 -6194.94 165.792 6261.99 5218.5 8392.81 -7.41152 
109 1 76.0292 2.51542 7.34325 6.04325 2562.54 -8641.78 -384.463 -1972.45 4585.71 4548.51 -7.41143 
110 1 76.7147 1.27193 7.34168 6.04631 -2835.16 -3279.18 -226.284 2564.85 2578.62 4171.88 -7.41139 
111 1 78.1343 1.24362 7.34088 6.04656 -1671.35 -4479.76 -290.082 -864.014 2422.85 1213.07 -7.41136 
177 1 69.6635 3.86828 7.35752 6.03323 15540.9 -20283.9 -2774.56 8588.11 3380.48 11605 -7.41169 
178 1 70.3977 5.08369 7.35726 6.03892 11973.9 -17568.6 2757.15 16136.5 9928.22 15873.4 -7.41208 
179 1 71.8175 5.05697 7.35381 6.03714 17247.3 -22531.6 -1979.52 -160.924 7221.62 8557.03 -7.41163 
180 1 72.504 3.8141 7.35053 6.04236 5166.49 -11141.6 1103.19 10932.6 7714.6 12353.7 -7.41175 
181 1 73.9237 3.78665 7.34772 6.04039 8997.02 -14816.9 -863.797 -1668.14 6194.5 7029.37 -7.41152 
182 1 74.6579 5.00197 7.34844 6.04086 3113.07 -8998.93 269.668 1486.23 8557.62 8825.13 -7.41163 
183 1 76.0776 4.97398 7.34664 6.0414 7814.82 -13751.9 -165.685 -6404.35 9463.62 3568.09 -7.41154 
184 1 76.7635 3.73072 7.34402 6.04302 -2307.48 -3816.18 -242.204 -661.364 6536.34 4389.91 -7.41146 
185 1 78.1832 3.70243 7.34325 6.04451 1210.51 -7343.28 -98.201 -3883.76 7400.35 861.403 -7.41145 
251 1 69.7105 6.3261 7.36098 6.03409 26697.2 -30951.7 -3910.1 2250.6 7730.5 9207.42 -7.41171 
252 1 70.4446 7.54154 7.36158 6.0366 18876.5 -24362.6 3344.15 8205.38 11722.8 16564 -7.41226 
253 1 71.8644 7.51476 7.35839 6.03696 26266 -31190.2 -2075.69 -7324.02 11640.3 6395.43 -7.41176 
254 1 72.5517 6.27233 7.35447 6.03859 10377.1 -16103.3 1416.16 4557.76 10309.6 12928.5 -7.4119 
255 1 73.9714 6.24487 7.35185 6.03885 16421.8 -21849.6 -751.045 -7464.89 10863.1 5417.62 -7.41165 
256 1 74.7054 7.46033 7.35349 6.03592 6055.26 -11515.5 -187.265 -5696.31 10812 9061.8 -7.41175 
257 1 76.1251 7.43237 7.35186 6.03963 12629.8 -18221.8 618.343 -13106.2 14085.3 2481.47 -7.41175 
258 1 76.8116 6.18942 7.34843 6.03926 -1656.55 -4036.06 -660.36 -6489.31 9473.13 4504.28 -7.41156 
259 1 78.2313 6.16117 7.34773 6.04257 3892.11 -9791.2 536.357 -9412.8 12255.9 459.478 -7.41163 
325 1 69.7565 8.78344 7.36575 6.03479 36876 -40978.4 -4278.68 -6297.45 11902.5 6629.83 -7.41183 
328 1 72.5983 8.73027 7.35985 6.03299 15343.9 -20681.1 1013.97 -4010.83 11826.9 13255.5 -7.41204 
329 1 74.0181 8.7028 7.35751 6.03687 23069.5 -28248.9 49.8228 -15285.7 15204.9 3686.7 -7.41188 
332 1 76.8587 8.64806 7.35444 6.03474 -980.244 -4093.8 -1731.6 -14329 11290.1 4514.99 -7.41167 
333 1 78.2784 8.61987 7.35384 6.04004 6116.79 -11796.4 1812.65 -17009.3 16687 46.4354 -7.4119 
260 1 0.19165 9.83593 7.35722 6.035 -10405.9 5707.04 -2907.05 -21153.2 11611.2 -392.865 -7.41167 
261 1 1.61132 9.80778 7.35756 6.03921 -2697.78 -2800.3 2524.77 -19280.3 18542.9 -1674.7 -7.41207 
262 1 2.34338 11.0243 7.36153 6.03539 -21615.3 17289.5 -3443.51 -26120.8 11696.5 -5347.11 -7.41176 
263 1 3.763 10.9964 7.36265 6.03327 -13274.5 8088.88 2493.54 -20145.7 19632.2 -2615.37 -7.41223 
264 1 4.4495 9.7533 7.35984 6.03642 -28973.1 24228 -1134.01 -20003.7 11259.2 -9969.56 -7.41187 
266 1 6.60023 10.9429 7.36624 6.0324 -40442.5 35733.4 217.995 -21455.8 11349.1 -14356.6 -7.41216 
267 1 8.01976 10.916 7.36867 6.02513 -31095.9 26771.5 -2153.27 -7817.66 16515.4 -4685.44 -7.41209 
334 1 0.236485 12.295 7.36476 6.03112 -11578.3 7670.28 -5307.43 -30416.3 12001.3 -509.668 -7.41173 
335 1 1.65617 12.267 7.36509 6.03619 -3178.8 -2256.76 4942.48 -28653.3 22087.7 -1294.65 -7.41248 
336 1 2.38733 13.4841 7.36921 6.03309 -24583.7 20950.2 -6185.55 -35560.5 11686.6 -5432.27 -7.4118 
337 1 3.80697 13.4564 7.37019 6.03116 -15865.6 10508.1 5115.27 -30127.5 22887.4 -1525.84 -7.41265 
338 1 4.49414 12.2135 7.36698 6.03468 -34084.3 29912.4 -3130.32 -29467.6 11527.6 -10098 -7.41194 