ITEM: TIMESTEP
0
ITEM: NUMBER OF ATOMS
6536
ITEM: BOX BOUNDS pp pp pp
0.0000000000000000e+00 7.0200368299999994e+01
0.0000000000000000e+00 1.2159060500000000e+02
0.0000000000000000e+00 1.5000000000000000e+01
ITEM: ATOMS id type x y z c_csym c_2[1] c_2[2] c_2[3] c_2[4] c_2[5] c_2[6] c_3 
109 1 0.172 9.822 3 6.02026 -110836 -160303 -135378 14061.2 37843.3 -599.87 -7.40872 
110 1 0.859 8.582 3 6.0272 -160612 -167521 -146998 -6854.75 24144.9 -3606.81 -7.40808 
111 1 0.129 7.367 3 6.02457 -121173 -189984 -145562 -5402.76 29932.1 -537.195 -7.40818 
112 1 0.816 6.127 3 6.02091 -147744 -136943 -151845 11652.3 20024.5 -3383.89 -7.40784 
113 1 0.086 4.911 3 6.02214 -160756 -152452 -152856 14766.3 20598.2 -297.016 -7.40815 
114 1 0.773 3.671 3 6.02542 -154434 -169913 -155902 -4726.91 13516.2 -3346.93 -7.40791 
115 1 0.043 2.456 3 6.02189 -167297 -148154 -157268 -16860.5 10380.1 -176.672 -7.40753 
116 1 0.73 1.215 3 6.02027 -142851 -141357 -158273 -20114.1 4861.98 -3068.19 -7.40742 
117 1 0 0 3 6.02658 -172189 -156712 -158699 -12472.5 29.2565 -13.0806 -7.40776 
209 1 3.007 9.773 3 6.02402 -151461 -131338 -141923 8854.34 25007.7 -13159.2 -7.40877 
210 1 2.277 8.557 3 6.02234 -129962 -157347 -140634 17928.7 33460.3 -5142.74 -7.40851 
211 1 2.964 7.317 3 6.0247 -154664 -170337 -147236 -9199.37 22184.7 -13091 -7.40849 
212 1 2.234 6.102 3 6.02677 -141378 -187341 -149260 -1764.23 24716.1 -6288.79 -7.40794 
213 1 2.921 4.862 3 6.0199 -140859 -140524 -151899 10054.5 16936.4 -12862.4 -7.40825 
214 1 2.191 3.646 3 6.02402 -133423 -151025 -154806 17553.9 14917.6 -7397.69 -7.40766 
215 1 2.878 2.406 3 6.0247 -146202 -176947 -155500 -8140.95 9481.29 -12237 -7.40809 
216 1 2.148 1.191 3 6.02242 -132875 -146949 -157432 -21056.7 4564.65 -8186.95 -7.40718 
308 1 4.425 9.748 3 6.02721 -130898 -174433 -135141 -8787.02 35320.3 -8071.24 -7.40897 
309 1 5.113 8.508 3 6.02107 -179233 -106016 -139361 9844.45 23705.1 -22003.9 -7.40879 
310 1 4.382 7.292 3 6.02225 -111903 -127551 -144281 21840.6 27457.3 -10558.4 -7.4079 
311 1 5.07 6.052 3 6.02406 -185767 -143778 -144876 -9952.98 19990.4 -21875.1 -7.4082 
312 1 4.339 4.837 3 6.02611 -123810 -157505 -150673 2129.33 18278.6 -12958.7 -7.40749 
313 1 5.027 3.597 3 6.02137 -171772 -113972 -149650 9027.79 13944.5 -21113.2 -7.40795 
314 1 4.296 2.381 3 6.02369 -117276 -119880 -154089 21167.4 8333.84 -14890 -7.40739 
315 1 4.984 1.141 3 6.02466 -173546 -128153 -152663 17.9799 5984.76 -19961.9 -7.4078 
407 1 7.261 9.698 3 6.01959 -185265 -107184 -128804 -23584.7 24438.2 -29905.6 -7.40884 
408 1 6.53 8.483 3 6.02433 -169305 -157107 -139259 8150.02 28599.4 -12972.2 -7.4089 
409 1 7.218 7.243 3 6.0238 -178629 -109949 -134897 7875.72 22238.3 -29710.6 -7.40884 
410 1 6.487 6.027 3 6.02137 -160749 -124622 -145647 25447.8 20315.2 -16533.1 -7.4082 
411 1 7.175 4.787 3 6.02406 -184945 -145664 -140792 -12450.1 17847.2 -28996.9 -7.40845 
412 1 6.444 3.572 3 6.02406 -173183 -154804 -149600 5610.74 10990.4 -19603.2 -7.40792 
413 1 7.132 2.332 3 6.02137 -170237 -116670 -145444 6289.49 11284.5 -27691.8 -7.40817 
414 1 6.401 1.116 3 6.02195 -170287 -131815 -150586 31037.5 1441.57 -22200 -7.40792 
506 1 8.678 9.674 3 6.01959 -162317 -127265 -134362 -4450.21 28482.9 -13645.2 -7.4085 
507 1 9.366 8.433 3 6.02088 -136217 -111446 -122347 -25416.4 23771.3 -36189.2 -7.40885 
508 1 8.635 7.218 3 6.02406 -168572 -156784 -140773 10592 20873.3 -18166.8 -7.40882 
509 1 9.323 5.978 3 6.02545 -128642 -114667 -129245 4839.94 20938.3 -35482.5 -7.40881 
510 1 8.592 4.762 3 6.02137 -160544 -124557 -144586 27764.1 12287.1 -22218.4 -7.40826 
511 1 9.28 3.522 3 6.02611 -134727 -150192 -135323 -15553.3 16040.2 -34165.1 -7.40841 
512 1 8.549 2.307 3 6.02152 -172982 -154132 -145646 7510.16 3271.86 -25806.4 -7.40832 
513 1 9.237 1.067 3 6.0246 -133953 -148068 -140439 -17838.2 9306.03 -31917.3 -7.40824 
3282 2 0.559 8.607 6.4 6.02028 -171930 -160743 -140899 15800.1 33951 -938.747 -7.40906 
3283 2 0.601 6.151 6.4 6.02005 -120178 -146462 -149558 -13019.8 25342.8 -1516.16 -7.40804 
3284 2 0.644 3.696 6.4 6.02462 -132646 -174163 -155445 6241.98 15368.6 -2177 -7.40786 
3285 2 0.687 1.24 6.4 6.02167 -130183 -141490 -158201 -18390.5 5080.69 -2741.45 -7.40779 
3286 2 0 0 6.4 6.02711 -171974 -157723 -158686 -8930.81 -26.8022 44.4869 -7.40776 
3377 2 2.664 9.872 6.4 6.02385 -160990 -127554 -135113 -11663.7 36795.8 -4414.01 -7.40883 
3378 2 1.976 8.632 6.4 6.02211 -182723 -102042 -145744 -15105 24400.6 -9386.75 -7.40827 
3379 2 2.707 7.416 6.4 6.02137 -159070 -127466 -144927 -10463.7 28847.4 -6448.08 -7.40823 
3380 2 2.019 6.176 6.4 6.02672 -137522 -142486 -150647 2860.13 20386.6 -9347.53 -7.40764 
3381 2 2.75 4.961 6.4 6.02406 -170249 -157866 -152009 8100.54 19585.4 -8293.96 -7.40778 
3382 2 2.062 3.721 6.4 6.02175 -123597 -112910 -154746 -17113.1 13836.8 -9290.7 -7.40744 
3383 2 2.793 2.505 6.4 6.0238 -162776 -121630 -155874 -11354.7 9540.2 -10005 -7.40757 
3384 2 2.105 1.265 6.4 6.02715 -129922 -147214 -157278 -686.187 5336.87 -8799.95 -7.40749 
3385 2 2.836 0.05 6.4 6.01807 -171081 -129357 -156875 14854.3 -382.275 -11372.5 -7.40764 
3476 2 4.081 9.897 6.4 6.02385 -183202 -103304 -139084 -18615.9 25563.9 -18315 -7.40859 
3477 2 4.812 8.681 6.4 6.02217 -111387 -129891 -139347 -7386.72 30994.5 -9478.3 -7.40809 
3478 2 4.124 7.441 6.4 6.02406 -188727 -140519 -144368 1115.93 22881.9 -18543 -7.40824 
3479 2 4.855 6.226 6.4 6.02433 -170241 -158401 -147006 11245.2 22463.7 -12722.9 -7.40807 
3480 2 4.167 4.986 6.4 6.02137 -175542 -110141 -149167 -20191.5 17830.3 -18286.8 -7.40798 
3481 2 4.898 3.77 6.4 6.0238 -162333 -122470 -151805 -8241.02 13102.6 -15574.4 -7.40783 
3482 2 4.21 2.53 6.4 6.02406 -181565 -143444 -152964 -3487.53 10536.4 -17657.1 -7.40809 
3483 2 4.941 1.315 6.4 6.01959 -168705 -119520 -153569 23033.4 3268.23 -18075.4 -7.4073 
3484 2 4.253 0.074 6.4 6.01902 -174501 -126834 -154791 15475.7 1499.67 -16518.1 -7.40767 
3575 2 6.917 9.947 6.4 6.02009 -131249 -157033 -133641 29159.6 31589.4 -10895.3 -7.4088 
3576 2 6.23 8.706 6.4 6.02137 -149976 -138455 -135358 17642.4 24570.8 -26593.2 -7.40865 
3577 2 6.96 7.491 6.4 6.02676 -132473 -172738 -141796 27787.6 23900 -15097.6 -7.40833 
3578 2 6.272 6.251 6.4 6.01864 -176548 -109106 -140694 -21674.6 21064.2 -26503.4 -7.40871 
3579 2 7.003 5.035 6.4 6.02545 -112753 -125586 -146784 -4652.84 15181.5 -19173.2 -7.40776 
3580 2 6.315 3.795 6.4 6.02406 -182552 -144018 -145618 -5593.05 15353.3 -25650.7 -7.40852 
3581 2 7.046 2.58 6.4 6.02088 -119341 -122029 -148997 26594.7 5916.12 -22678.8 -7.40726 
3582 2 6.358 1.339 6.4 6.0189 -173451 -114800 -149074 7402.27 7572.51 -24273.9 -7.40769 
3583 2 7.089 0.124 6.4 6.02504 -124336 -130534 -148495 21856.9 -3221.58 -25505.7 -7.40769 
3674 2 8.335 9.971 6.4 6.02186 -157190 -136301 -123717 11012.5 25409 -33398.3 -7.40915 
3675 2 9.065 8.756 6.4 6.02615 -138725 -187083 -136615 15814.1 24130 -15774.7 -7.40908 
3676 2 8.378 7.516 6.4 6.02265 -147848 -140046 -129543 -20013 23508.7 -33257.5 -7.40938 
3677 2 9.108 6.3 6.4 6.02402 -130031 -154955 -141827 -1554.74 16187.3 -20648.2 -7.40844 
3678 2 8.421 5.06 6.4 6.0247 -151693 -173428 -135412 -5492.57 19396 -32513.4 -7.40956 
3679 2 9.151 3.845 6.4 6.02186 -136236 -151958 -143902 29743.1 7466.35 -25153.8 -7.40795 
3680 2 8.464 2.604 6.4 6.02106 -141709 -145206 -140585 7394.4 13205.4 -30972 -7.40856 
3681 2 9.194 1.389 6.4 6.02623 -144795 -181530 -143443 15419.6 -1197.6 -28931.5 -7.40861 
3682 2 8.507 0.149 6.4 6.02226 -137267 -164795 -144071 -16660.9 5469.15 -28759.3 -7.40842 
605 1 11.514 9.624 3 6.02676 -153907 -158091 -107821 -25286.1 24507.3 -41139.6 -7.41061 
606 1 10.784 8.409 3 6.0196 -128778 -157638 -136228 -3485.73 20474 -18067.9 -7.40862 
607 1 11.471 7.168 3 6.02186 -153121 -143109 -115300 -28145.1 23261.6 -40497.3 -7.40966 
608 1 10.741 5.953 3 6.0247 -136355 -185006 -139748 10773.7 12587.4 -22870.1 -7.40931 
609 1 11.428 4.713 3 6.02402 -145190 -146109 -122778 2109.84 19933 -39171.5 -7.40958 
610 1 10.698 3.497 3 6.0199 -128804 -152996 -140394 27847.2 4199.99 -27247.1 -7.40895 
611 1 11.385 2.257 3 6.02721 -152037 -179846 -129631 -18166.3 14802.2 -37007.6 -7.40919 
612 1 10.655 1.042 3 6.02298 -138609 -163316 -138559 -5428.42 -4153.4 -31085 -7.40875 
704 1 12.932 9.599 3 6.02265 -126909 -156037 -132818 28122.3 19095.1 -16777.5 -7.4092 
705 1 13.619 8.359 3 6.02615 -161049 -175890 -99490.5 -14483.7 24801.8 -44028.1 -7.4113 
706 1 12.889 7.144 3 6.02186 -134044 -153657 -135728 -1562.91 11960.5 -22055 -7.40844 
707 1 13.576 5.903 3 6.02186 -151115 -146701 -107872 -29780.7 23146.8 -42742.3 -7.41011 
708 1 12.846 4.688 3 6.02615 -141996 -183325 -135830 12094.2 4160.24 -26982.3 -7.40912 
709 1 13.533 3.448 3 6.02265 -142966 -149267 -116532 519.862 19502.5 -40656.2 -7.40995 
710 1 12.803 2.232 3 6.02402 -135806 -150202 -133341 28924.2 -3733.52 -31420.6 -7.40903 
711 1 13.49 0.992 3 6.02516 -143808 -162549 -124116 -7920.41 14082.4 -37778.1 -7.40953 
803 1 15.767 9.55 3 6.02127 -153002 -148159 -82155.9 3236.16 25625.8 -46170.7 -7.41203 
804 1 15.037 8.334 3 6.02265 -129409 -154895 -132921 30751.9 10608.1 -20181.6 -7.40897 
805 1 15.724 7.094 3 6.02615 -159146 -179622 -91504 -15765.2 25507.5 -44877.7 -7.41178 
806 1 14.994 5.879 3 6.02186 -134775 -153336 -132144 -829.903 3417 -25411.6 -7.40865 
807 1 15.681 4.638 3 6.02186 -148926 -149989 -101328 -30944.1 23462.9 -42923.6 -7.4105 
808 1 14.951 3.423 3 6.02615 -143233 -183373 -129068 12679.9 -3986.76 -30191.6 -7.40953 
809 1 15.638 2.183 3 6.02265 -140083 -153072 -110975 -637.749 19447.5 -40219.1 -7.41024 
810 1 14.908 0.967 3 6.0255 -141261 -164462 -123868 36980.1 -11167.2 -34428.8 -7.40954 
902 1 17.185 9.525 3 6.02616 -139236 -188081 -131619 11608 8878.79 -17717.9 -7.40901 
903 1 17.872 8.285 3 6.02127 -151211 -152025 -73679.8 2292.76 27014 -45729.3 -7.41254 
904 1 17.142 7.069 3 6.02265 -129922 -154868 -129922 30992 2175.47 -22967 -7.40916 
905 1 17.829 5.829 3 6.02615 -156980 -183068 -84785.8 -16534.6 26424.9 -43865.1 -7.41219 
906 1 17.099 4.614 3 6.02186 -135790 -153643 -126155 -738.604 -4729.53 -27873.8 -7.40902 
907 1 17.786 3.373 3 6.02106 -144276 -153496 -95905 -33312.3 24034.4 -41358.3 -7.41104 
908 1 17.056 2.158 3 6.02623 -144145 -185024 -119975 12711.3 -11593.9 -32365 -7.41002 
909 1 17.743 0.918 3 6.02225 -137197 -169800 -106522 -8908.05 19790.8 -38210 -7.41089 
1001 1 20.02 9.475 3 6.0247 -158763 -189181 -54770.5 -16200.3 27800.6 -45096.4 -7.41407 
1002 1 19.29 8.26 3 6.02677 -139526 -188419 -129364 11350.3 759.119 -19923.7 -7.40914 
1003 1 19.977 7.02 3 6.0199 -144479 -156676 -66893.5 1827.73 28657.7 -43511 -7.41338 
1004 1 19.247 5.804 3 6.02402 -130753 -155502 -124642 30586.5 -5846.76 -24825.6 -7.40947 
1005 1 19.934 4.564 3 6.0247 -149860 -189273 -79336.4 -17197.7 27603.1 -41263 -7.41273 
1006 1 19.204 3.349 3 6.02194 -128349 -140781 -117503 -13748.6 -12331.1 -29422.4 -7.40935 
1007 1 19.892 2.108 3 6.01607 -173470 -124206 -91719.7 -30170.7 24780.6 -38494.4 -7.41135 
1008 1 19.161 0.893 3 6.02504 -123315 -137761 -108177 3279.43 -18418.4 -33555.6 -7.41011 
3773 2 11.17 10.021 6.4 6.02615 -138215 -187393 -132541 17592.3 23370.4 -14872.1 -7.40931 
3774 2 10.483 8.781 6.4 6.02265 -152072 -140663 -115890 -22550.3 25137.7 -38713.9 -7.40999 
3775 2 11.213 7.565 6.4 6.02265 -128962 -155882 -137140 262.421 16182.4 -20402.1 -7.40872 
3776 2 10.526 6.325 6.4 6.02615 -158509 -173037 -122676 -6580.39 22749.3 -37879.6 -7.4099 
3777 2 11.256 5.11 6.4 6.02186 -134681 -153409 -139189 31612.8 8125.54 -25547.6 -7.40823 
3778 2 10.569 3.869 6.4 6.02186 -148516 -144435 -129171 6056.51 18198.8 -36411.5 -7.40883 
3779 2 11.299 2.654 6.4 6.02615 -143433 -182571 -138351 17418.8 -127.918 -30164.6 -7.40896 
3780 2 10.612 1.414 6.4 6.02265 -139954 -148572 -134728 -26322.3 11886.3 -34106.6 -7.40881 
3781 2 11.342 0.198 6.4 6.0255 -141643 -162811 -134981 -8008.04 -7935.23 -34035.8 -7.40888 
3872 2 12.588 10.046 6.4 6.02265 -153952 -142456 -100293 -22772.2 25822.4 -42758.3 -7.41094 
3873 2 13.318 8.83 6.4 6.02127 -128226 -156297 -133812 1545.31 15369.4 -18834.4 -7.40892 
3874 2 12.631 7.59 6.4 6.02615 -162207 -174831 -107709 -5272.68 25100.5 -41932.7 -7.41055 
3875 2 13.361 6.375 6.4 6.02368 -132710 -154318 -135045 38039.3 7959.73 -24432.4 -7.40848 
3876 2 12.674 5.134 6.4 6.02009 -149161 -144825 -115477 7293.54 22276.2 -40421.6 -7.40989 
3877 2 13.404 3.919 6.4 6.02615 -141685 -184134 -133943 18792.9 227.365 -29569.7 -7.40923 
3878 2 12.717 2.679 6.4 6.02265 -142595 -148173 -122590 -27243 17538.2 -38197.3 -7.40959 
3879 2 13.447 1.463 6.4 6.02402 -135788 -151043 -130069 1036.42 -7326.05 -34078.7 -7.40922 
3880 2 12.76 0.223 6.4 6.02516 -143602 -161594 -128858 -20656 11194.5 -35180.4 -7.40925 
3971 2 15.423 10.095 6.4 6.0199 -123224 -157459 -131792 2391.72 14104.5 -16413.4 -7.40947 
3972 2 14.736 8.855 6.4 6.02677 -162808 -179282 -90933.1 -4911.77 26518.5 -44635.7 -7.41145 
3973 2 15.466 7.64 6.4 6.0247 -134002 -189969 -132483 21919.7 7172.71 -22217.2 -7.40938 
3974 2 14.779 6.4 6.4 6.02234 -149505 -148176 -99573.6 -25881.3 25436.9 -43154.6 -7.41086 
3975 2 15.509 5.184 6.4 6.02465 -130116 -153544 -130388 3891.38 -15.4499 -27654.2 -7.40934 
3976 2 14.822 3.944 6.4 6.02402 -146198 -146795 -108470 -27317.9 22336.6 -40961 -7.41057 
3977 2 15.552 2.728 6.4 6.02127 -132987 -154330 -126110 1798.99 -7241 -32542.6 -7.40938 
3978 2 14.865 1.488 6.4 6.02615 -151537 -182331 -116664 -9247.03 17413.4 -38050.9 -7.40997 
3979 2 15.595 0.273 6.4 6.02383 -140735 -166261 -119394 32226.4 -13956 -36745.4 -7.40969 
4070 2 16.841 10.12 6.4 6.02611 -146168 -153768 -72878.1 -5128.69 27156.3 -45991.8 -7.41217 
4071 2 17.572 8.905 6.4 6.02406 -166378 -161014 -131339 20480.5 6062.88 -19376.5 -7.40903 
4072 2 16.884 7.665 6.4 6.02225 -132391 -121976 -82109.8 -26420.9 27585.9 -44592.8 -7.41166 
4073 2 17.615 6.449 6.4 6.02102 -158997 -123501 -128576 1347.74 -763.139 -24880.6 -7.40956 
4074 2 16.927 5.209 6.4 6.02721 -140313 -135000 -92330 -14712.7 26142.5 -42521.3 -7.41123 
4075 2 17.657 3.993 6.4 6.0199 -127169 -159162 -123269 2837.11 -7559.94 -29874.3 -7.40965 
4076 2 16.97 2.753 6.4 6.02677 -152748 -185169 -102526 -8855.28 22769.9 -39759.7 -7.41075 
4077 2 17.7 1.538 6.4 6.0247 -139381 -190366 -115889 21162.3 -14145 -34364.4 -7.41032 
4078 2 17.013 0.298 6.4 6.0246 -141956 -167235 -111822 -21510.2 17773.9 -36342.4 -7.41015 
4170 2 18.989 8.93 6.4 6.02137 -182625 -123455 -63745.3 -26292.3 28849.7 -44672.7 -7.41314 
4171 2 19.72 7.714 6.4 6.0238 -157880 -127393 -128342 609.642 -1589.73 -21508.4 -7.40924 
4172 2 19.032 6.474 6.4 6.02433 -188474 -154188 -74778.4 -10475 28899.1 -42787.2 -7.4128 
4173 2 19.763 5.259 6.4 6.01959 -161358 -126807 -122208 34608 -8261.24 -26539.8 -7.40948 
4174 2 19.075 4.018 6.4 6.02371 -129306 -125195 -86504 8046.24 27139.7 -40308.3 -7.41101 
4175 2 19.806 2.803 6.4 6.02406 -172530 -159279 -113695 19063.4 -14523.8 -31062.7 -7.4102 
4176 2 19.118 1.563 6.4 6.02225 -121198 -127685 -97769.2 -29299.8 23524.2 -37228.3 -7.41067 
4177 2 19.849 0.347 6.4 6.02195 -169117 -140988 -103457 -8177.29 -20198.4 -35105 -7.41076 
1100 1 21.438 9.45 3 6.02225 -110523 -127752 -130482 30946.5 -748.427 -16475.9 -7.40875 
1101 1 22.126 8.21 3 6.02406 -189709 -163462 -48097.3 -14521.8 29927.9 -41643.3 -7.41405 
1102 1 21.395 6.995 3 6.02611 -121427 -161259 -124804 11236.6 -6931.9 -21272 -7.40904 
1103 1 22.083 5.755 3 6.02137 -175136 -130692 -61778.2 3735.88 30309.3 -39812.4 -7.41326 
1104 1 21.352 4.539 3 6.0246 -113159 -128791 -116685 30324.7 -13225.4 -25683.9 -7.40957 
1105 1 22.04 3.299 3 6.02406 -181183 -160150 -75891.7 -15655.2 28842.4 -37449.7 -7.41272 
1106 1 21.309 2.084 3 6.02097 -167428 -127928 -106486 -778.08 -19068.6 -29820 -7.41013 
1107 1 21.997 0.843 3 6.01792 -174131 -139575 -89706.4 -34997.6 25532.5 -34561.7 -7.41159 
1199 1 24.274 9.401 3 6.0238 -182960 -132646 -29705 6703.18 30233.2 -38216.3 -7.41521 
1200 1 23.543 8.185 3 6.02137 -158954 -127724 -126771 30333.5 -8019.47 -17323 -7.40933 
1201 1 24.231 6.945 3 6.02433 -188632 -165485 -43987.8 -13978.1 32031.4 -36754.8 -7.41431 
1202 1 23.5 5.73 3 6.02406 -169799 -162145 -117780 9514.22 -13980.7 -21521.4 -7.40982 
1203 1 24.188 4.49 3 6.02217 -125779 -133623 -59414 3763.06 31924.6 -34937.6 -7.41303 
1204 1 23.457 3.274 3 6.0238 -161317 -130582 -106618 29568.3 -19803.7 -25391.5 -7.41054 
1205 1 24.145 2.034 3 6.0261 -130679 -164314 -74764.4 -14532.6 29813.8 -32595.2 -7.41238 
1206 1 23.414 0.819 3 6.02085 -169378 -144146 -94046.5 3135.6 -24937.5 -29039.4 -7.41121 
1298 1 25.691 9.376 3 6.02406 -167587 -159289 -130090 11264.1 -8829.7 -13213.7 -7.40946 
1299 1 26.379 8.136 3 6.02545 -132647 -136966 -26453.9 6752.38 32687.5 -32204.9 -7.41505 
1300 1 25.648 6.92 3 6.01864 -158467 -128825 -120470 28072.1 -14587.5 -16940.6 -7.40992 
1301 1 26.336 5.68 3 6.02677 -148029 -183647 -42602.7 -26881.3 33932.5 -30855.6 -7.41421 
1302 1 25.606 4.465 3 6.02385 -137129 -196076 -108638 6475.74 -20174.1 -20447.5 -7.41059 
1303 1 26.293 3.225 3 6.02234 -141979 -164052 -59466.8 4363.64 33091.8 -29150.6 -7.4134 
1304 1 25.563 2.009 3 6.02265 -130679 -160537 -95204 25823.5 -25471.5 -23786.3 -7.41174 
1305 1 26.25 0.769 3 6.02768 -142770 -174969 -75873.2 -3843.35 30444.8 -26940 -7.41244 
1397 1 28.527 9.326 3 6.02186 -157460 -167088 -9966.08 -23199.2 32344.5 -25968.4 -7.41607 
1398 1 27.797 8.111 3 6.0247 -134971 -190503 -124643 7211.26 -14736 -12205.5 -7.4102 
1399 1 28.484 6.871 3 6.02402 -148865 -167343 -26464.2 7391.1 34870.6 -25272.8 -7.41542 
1400 1 27.754 5.655 3 6.02127 -128559 -161438 -112259 22705.6 -20286.4 -15154.8 -7.41043 
1401 1 28.441 4.415 3 6.02615 -154311 -199730 -44016.4 -12769 35298.9 -24099.2 -7.41429 
1402 1 27.711 3.2 3 6.02616 -143158 -195345 -98089.3 4584.94 -25518.6 -18153.7 -7.41101 
1403 1 28.398 1.96 3 6.02127 -139116 -166819 -61757.4 6080.15 33807.5 -22654.5 -7.41322 
1404 1 27.668 0.744 3 6.0255 -140710 -175853 -82401.8 31147.5 -30125.6 -20776.5 -7.41204 
1496 1 29.945 9.302 3 6.02186 -133515 -158388 -129884 -9258.03 -14498.2 -7646.53 -7.40878 
1498 1 29.902 6.846 3 6.02615 -140155 -191470 -117211 4522.28 -19852.7 -9904.43 -7.41023 
1500 1 29.859 4.39 3 6.02127 -131836 -163176 -102817 21708.7 -25129 -12150.7 -7.41078 
1502 1 29.816 1.935 3 6.02615 -143972 -198680 -86439.8 1968.68 -29853.7 -14268.1 -7.41167 
4269 2 21.825 8.979 6.4 6.02545 -109504 -129094 -129541 653.463 -2583.22 -17828.9 -7.4088 
4270 2 21.137 7.739 6.4 6.02406 -189471 -158300 -56293.6 -9221.89 30686.7 -41769.7 -7.41392 
4271 2 21.868 6.524 6.4 6.02088 -114422 -128987 -122812 31710.6 -8839.73 -22650.5 -7.40883 
4272 2 21.18 5.283 6.4 6.01959 -179054 -127802 -69101.4 3450.94 30327 -39569.8 -7.41245 
4273 2 21.911 4.068 6.4 6.02549 -122511 -160311 -113644 17344.5 -15064.4 -27158.4 -7.41008 
4274 2 21.223 2.828 6.4 6.0238 -171381 -128251 -82224.1 -28004.7 28162.7 -36818.9 -7.41201 
4275 2 21.954 1.612 6.4 6.02284 -164596 -127823 -102365 -1262.11 -20719.8 -31090.2 -7.41088 
4276 2 21.266 0.372 6.4 6.02466 -172787 -139270 -95013 -22302.9 24293.6 -33592.5 -7.41128 
4368 2 23.243 9.004 6.4 6.0247 -158653 -190945 -37550.6 -5943.09 31397.7 -39184.5 -7.41549 
4369 2 23.973 7.789 6.4 6.02186 -132610 -157610 -125036 31222.1 -9493.62 -18555.3 -7.40908 
4370 2 23.286 6.548 6.4 6.02106 -148313 -160027 -51321.4 6680.51 32531 -37402.5 -7.41396 
4371 2 24.016 5.333 6.4 6.02721 -140049 -189584 -115334 16887.9 -15413.3 -22725 -7.41035 
4372 2 23.329 4.093 6.4 6.02128 -139712 -162745 -65607 -25378.7 31732.4 -34992.1 -7.41325 
4373 2 24.059 2.877 6.4 6.02407 -123807 -146299 -103357 11436.4 -21162.1 -26521.8 -7.41057 
4374 2 23.371 1.637 6.4 6.02153 -177919 -160515 -80056.2 -10432.5 29091.7 -32272.5 -7.41263 
4375 2 24.102 0.422 6.4 6.02144 -122111 -145948 -89531 23467.4 -26132.9 -29742.3 -7.41112 
4467 2 26.078 9.054 6.4 6.02186 -132518 -157849 -128908 29471.3 -9937.28 -14292.9 -7.40884 
4468 2 25.391 7.813 6.4 6.02186 -155177 -162148 -33199.2 8471.27 33535.3 -33691.3 -7.41465 
4469 2 26.121 6.598 6.4 6.02615 -139365 -190288 -118478 15168.7 -15647.3 -18088.1 -7.41015 
4470 2 25.434 5.358 6.4 6.02265 -146686 -162737 -48542.5 -23920.1 34222.4 -31785.8 -7.41407 
4471 2 26.164 4.142 6.4 6.02265 -131253 -161449 -106230 -2716.65 -21239.1 -21426.2 -7.41057 
4472 2 25.477 2.902 6.4 6.0247 -149811 -192908 -64421.1 -5563.58 32852 -29468.4 -7.41364 
4473 2 26.207 1.687 6.4 6.02186 -137439 -162661 -91682.7 28087 -26412.3 -24436.6 -7.41103 
4474 2 25.52 0.446 6.4 6.02168 -139989 -172893 -80204.3 11639.2 29795.5 -26810.5 -7.41259 
4566 2 27.496 9.078 6.4 6.02186 -157431 -165270 -15866 10589.7 33392.6 -28484.1 -7.41571 
4567 2 28.226 7.863 6.4 6.02615 -139034 -190532 -123345 12985 -15514.7 -13327.3 -7.40985 
4568 2 27.539 6.623 6.4 6.02265 -148904 -165711 -31567.1 -21747.8 35450.4 -26976.2 -7.41512 
4569 2 28.269 5.407 6.4 6.02127 -130358 -162104 -110435 -4844.74 -21065.3 -16243.1 -7.41032 
4570 2 27.582 4.167 6.4 6.02615 -155877 -195730 -48512.6 -3280.45 35437.5 -25288.4 -7.41414 
4571 2 28.312 2.952 6.4 6.02368 -135875 -162665 -95671.9 31203.1 -26261.3 -18701.9 -7.41084 
4572 2 27.625 1.711 6.4 6.01992 -143160 -161564 -65663.3 9945.6 33533.2 -23167.4 -7.41298 
4573 2 28.355 0.496 6.4 6.02565 -141306 -175446 -79270.3 21265.7 -30661.6 -20951.1 -7.41222 
4666 2 29.644 7.888 6.4 6.02265 -151222 -168416 -15715.7 -19453.2 35453.2 -20802.4 -7.41608 
4668 2 29.687 5.432 6.4 6.02615 -156650 -200774 -33006.1 -599.42 36773.3 -19544.6 -7.41497 
4670 2 29.73 2.977 6.4 6.02127 -142561 -167356 -51159.2 -20391.1 36130.9 -17998.1 -7.41379 
4672 2 29.773 0.521 6.4 6.02404 -142794 -177511 -69200.9 -13069.3 33675.2 -16271.3 -7.41285 
1497 1 30.632 8.061 3 6.02186 -155123 -168878 -11674.5 -21650.2 34800.1 -18152.8 -7.41596 
1499 1 30.589 5.606 3 6.02265 -146432 -168997 -29628.7 9216.41 36461.4 -17617.9 -7.41522 
1501 1 30.546 3.15 3 6.02616 -151954 -201091 -48019.5 -10693.8 36103.8 -16808 -7.41405 
1503 1 30.503 0.695 3 6.02323 -141160 -181077 -66632.7 588.211 33910.7 -15840.1 -7.41287 
1595 1 32.78 9.252 3 6.02615 -163407 -201508 731.208 -5513.46 33741.8 -10037.1 -7.41741 
1596 1 32.05 8.037 3 6.02186 -133736 -160285 -123217 -12328.5 -18863.3 -4940.48 -7.40918 
1597 1 32.737 6.796 3 6.02186 -152701 -169847 -16850.7 -19706.5 36615.6 -9812.34 -7.41564 
1598 1 32.007 5.581 3 6.02615 -140872 -193457 -108774 1484.44 -24050.1 -6367.6 -7.41073 
1599 1 32.694 4.341 3 6.02265 -144010 -169751 -35521.1 11432.1 37359.9 -9692.58 -7.41486 
1600 1 31.964 3.125 3 6.02127 -132981 -165173 -92405.5 18771.2 -28971.1 -7703.31 -7.4114 
1601 1 32.651 1.885 3 6.02615 -150634 -200193 -54610.7 -8129.55 36135.9 -9361.35 -7.41372 
1602 1 31.921 0.67 3 6.02383 -140146 -179700 -74814.1 -12344.9 -33115 -9105.58 -7.41237 
1694 1 34.198 9.227 3 6.02265 -129592 -160336 -129300 15764.5 -17198 -592.063 -7.40919 
1695 1 34.885 7.987 3 6.02469 -158799 -202135 -6546.22 -5268.92 35838.7 -1321.58 -7.41716 
1696 1 34.155 6.772 3 6.02186 -134180 -161990 -115525 -15553.8 -22335.1 -1088.96 -7.40964 
1697 1 34.842 5.531 3 6.02106 -145610 -170926 -24857.1 -17549.3 37627.4 -1515.6 -7.41557 
1698 1 34.112 4.316 3 6.02721 -141773 -195065 -99464.1 -1623.8 -27327.6 -1521.32 -7.41129 
1699 1 34.799 3.076 3 6.02128 -137092 -170740 -44109.6 13816.1 37378.4 -1819.31 -7.41475 
1700 1 34.069 1.86 3 6.02552 -135221 -165205 -82049.1 15686.3 -31824.6 -2213.34 -7.41211 
1701 1 34.756 0.62 3 6.02371 -137926 -182966 -63188.4 5759.23 35325 -1985.54 -7.41341 
1793 1 37.033 9.178 3 6.0199 -148676 -174404 701.94 15416.3 34364.6 7579.54 -7.41729 
1794 1 36.303 7.962 3 6.02407 -120933 -147827 -122522 1.68423 -19721.1 3370.48 -7.40941 
1795 1 36.991 6.722 3 6.0215 -187125 -170657 -16575.9 29.8378 37017.4 7062.85 -7.41655 
1796 1 36.26 5.507 3 6.02088 -116132 -135184 -107400 -17956.3 -24898.3 3908.11 -7.40975 
1797 1 36.948 4.266 3 6.01959 -176286 -140855 -35374 -13431.8 37719.9 6426.12 -7.41449 
1798 1 36.217 3.051 3 6.0261 -124248 -167986 -90639.7 -3892.55 -29658.8 4158.38 -7.41146 
1799 1 36.905 1.811 3 6.0238 -167443 -141514 -54422.7 18021 36444.7 5585.46 -7.41365 
1800 1 36.174 0.595 3 6.02341 -121917 -151923 -72585 21124.1 -33711.5 4352.18 -7.41225 
1892 1 38.451 9.153 3 6.02545 -120745 -165221 -129030 -9576.81 -16205.8 6563.1 -7.40878 
1893 1 39.139 7.913 3 6.02137 -180128 -140956 -11715.6 18665.2 35767.4 15596 -7.41631 
1894 1 38.408 6.697 3 6.0238 -159439 -133280 -115441 10916.6 -21453.7 8197.51 -7.41001 
1895 1 39.096 5.457 3 6.02406 -185879 -169683 -29387.4 2764.7 37248.6 14674.8 -7.41555 
1896 1 38.365 4.242 3 6.01959 -165029 -134502 -99888 -20208.3 -26550.5 9435.74 -7.41057 
1897 1 39.053 3.001 3 6.02097 -175297 -137932 -47950.6 -10852.3 36742.6 13519.6 -7.41373 
1898 1 38.322 1.786 3 6.02406 -172527 -168608 -82871.1 -6895.78 -31062.8 10598.3 -7.41223 
1899 1 39.01 0.546 3 6.02551 -122684 -153016 -66483.1 12276.9 34496 11999.4 -7.41251 
4665 2 30.331 9.128 6.4 6.0247 -136760 -190631 -128917 12114.8 -15046.4 -8733.87 -7.40974 
4667 2 30.374 6.672 6.4 6.02127 -129808 -162199 -116173 -7388.74 -20402.5 -10987.1 -7.40997 
4669 2 30.417 4.217 6.4 6.02616 -141660 -197068 -101051 11764.2 -25626.9 -12905.7 -7.41084 
4671 2 30.46 1.761 6.4 6.02557 -135720 -164514 -84566.6 -8161.6 -30276.2 -14482.5 -7.41183 
4764 2 31.749 9.153 6.4 6.02407 -144754 -156648 -1664.7 -4744.39 34314.9 -13272.4 -7.41676 
4765 2 32.479 7.937 6.4 6.0199 -124759 -164620 -122596 -9792.86 -19178.8 -6017.14 -7.4098 
4766 2 31.792 6.697 6.4 6.02677 -158966 -202901 -18980.3 1840.45 36911.5 -12581.5 -7.41583 
4767 2 32.522 5.482 6.4 6.0247 -136193 -197939 -107903 9038.99 -24368.5 -7203.35 -7.41084 
4768 2 31.835 4.242 6.4 6.02234 -144089 -169054 -37401.9 -18046.7 37492 -11460.6 -7.41475 
4769 2 32.565 3.026 6.4 6.02265 -129603 -164278 -91349.6 -10541.2 -29249.5 -8165.94 -7.41202 
4770 2 31.878 1.786 6.4 6.0276 -141306 -166838 -56351.6 -18252.8 36115.5 -10410.1 -7.41354 
4771 2 32.608 0.57 6.4 6.0255 -138817 -180556 -73473.2 -16495.2 -33308.4 -8835.41 -7.41267 
4863 2 34.585 9.202 6.4 6.02137 -158430 -131711 -129185 -14016 -17270.7 -1870.29 -7.40918 
4864 2 33.897 7.962 6.4 6.02545 -142647 -176179 -7029.35 3369.64 35964.2 -4509.52 -7.41618 
4865 2 34.628 6.747 6.4 6.02406 -168552 -167736 -115193 4271.53 -22408.9 -1999.9 -7.40998 
4866 2 33.94 5.507 6.4 6.02225 -127773 -142442 -25357.1 -16252.4 37707.2 -3969.64 -7.41511 
4867 2 34.671 4.291 6.4 6.0238 -160048 -136965 -99377.7 -15301.8 -27432.2 -2180.95 -7.41097 
4868 2 33.983 3.051 6.4 6.0261 -133109 -171443 -44440.5 1007.12 37409.9 -3356.94 -7.41426 
4869 2 34.714 1.836 6.4 6.01704 -165959 -134007 -81727.8 18313.7 -31892.4 -2129.96 -7.4122 
4870 2 34.026 0.595 6.4 6.02661 -127131 -132022 -63696.7 21269.7 35361.8 -2771.85 -7.41266 
4962 2 36.002 9.227 6.4 6.02406 -191882 -176552 2034.79 4636.72 34040.1 4126.72 -7.41712 
4963 2 36.733 8.012 6.4 6.02545 -121285 -166383 -122652 1854.33 -19572.5 2235.12 -7.40916 
4964 2 36.045 6.772 6.4 6.02137 -177714 -142286 -15526.1 -13666.4 36882.6 4323.26 -7.41607 
4965 2 36.776 5.556 6.4 6.0238 -160409 -134423 -107869 -18393 -24712.7 3071.43 -7.41046 
4966 2 36.088 4.316 6.4 6.02406 -183467 -170812 -34335 2799.93 37633.7 4332.2 -7.41525 
4967 2 36.819 3.101 6.4 6.01959 -166383 -135575 -91305.6 13053.2 -29513.5 3895.05 -7.41109 
4968 2 36.131 1.86 6.4 6.02234 -173927 -137364 -53625 16694.1 36505.6 4403.06 -7.41345 
4969 2 36.862 0.645 6.4 6.02338 -168893 -148617 -73266.1 11573.8 -33570.3 4648.54 -7.41282 
5061 2 38.838 9.277 6.4 6.02677 -139773 -192731 -129521 -581.573 -15783.8 5439.82 -7.40912 
5062 2 38.151 8.037 6.4 6.0199 -146340 -173676 -8839.45 -10585.6 35271.4 12797.4 -7.41671 
5063 2 38.881 6.821 6.4 6.02407 -121537 -148060 -116264 -7528.07 -21091.8 7076.32 -7.40979 
5064 2 38.193 5.581 6.4 6.0215 -184756 -169925 -26802.6 5455.39 36962.2 12487.3 -7.41591 
5065 2 38.924 4.366 6.4 6.02088 -117186 -135093 -101185 10760.6 -26232.4 8919.43 -7.41013 
5066 2 38.236 3.125 6.4 6.01959 -174017 -140023 -45604.8 19403.8 36706.9 11958.7 -7.41387 
5067 2 38.967 1.91 6.4 6.02557 -125152 -168601 -84423 -3030.61 -30830.6 10479.3 -7.41178 
5068 2 38.279 0.67 6.4 6.02463 -169462 -153697 -64600.1 -3931.94 34624.9 11441.1 -7.41299 
1991 1 41.287 9.103 3 6.02545 -144994 -172764 -9996.27 956.677 33816.4 23816.7 -7.41602 
1992 1 40.556 7.888 3 6.02406 -167648 -165706 -122769 -11636.5 -17139 11169 -7.40953 
1993 1 41.244 6.648 3 6.02225 -130258 -139351 -26445.3 21212 36144.9 22584.1 -7.41504 
1994 1 40.513 5.432 3 6.0238 -158785 -134739 -109122 8173.35 -22500.2 13440.3 -7.41039 
1995 1 41.201 4.192 3 6.0261 -135543 -168662 -43967 4442.62 36317.4 21126.8 -7.41429 
1996 1 40.47 2.977 3 6.01707 -163488 -133179 -93611.2 -25050.8 -27562.4 15469.7 -7.41141 
1997 1 41.158 1.736 3 6.02618 -135230 -149578 -61776.5 -27125 34640.7 19250.1 -7.41277 
1998 1 40.428 0.521 3 6.02384 -136619 -179439 -76733.1 -23783 -31782.1 17213 -7.41258 
2090 1 42.705 9.078 3 6.0199 -123943 -162163 -128908 2920.13 -11879.3 12675.1 -7.40942 
2091 1 43.392 7.838 3 6.02677 -161402 -197991 -26547 2331.39 34389.6 29902.4 -7.41537 
2092 1 42.662 6.623 3 6.0247 -135017 -195038 -117482 -15795.4 -17475.7 15901.6 -7.41027 
2093 1 43.349 5.383 3 6.02234 -146636 -164567 -42623.2 22752 35269.5 28177.3 -7.41444 
2094 1 42.619 4.167 3 6.02265 -128122 -160995 -104150 3986.7 -22965.2 18894.2 -7.41124 
2095 1 43.306 2.927 3 6.0276 -144211 -161863 -59331.7 23530.6 34170.1 26083.1 -7.41342 
2096 1 42.576 1.711 3 6.02402 -133300 -162997 -88835.6 2610.56 -27900.9 21513.6 -7.41179 
2097 1 43.263 0.471 3 6.02516 -142973 -174845 -75954.5 16534.5 31344.9 23703.2 -7.41243 
2189 1 45.54 9.029 3 6.02265 -153444 -161982 -29653.2 22691 32238.3 36131.1 -7.41523 
2190 1 44.81 7.813 3 6.02127 -128757 -159127 -124376 1370.18 -11631.1 16993.4 -7.40949 
2191 1 45.497 6.573 3 6.02615 -159185 -194832 -44091.4 4393.01 33673 34473 -7.4143 
2192 1 44.767 5.358 3 6.02615 -140299 -193402 -113517 -17715.9 -17489.6 20821.3 -7.41009 
2193 1 45.454 4.118 3 6.02127 -145051 -162005 -59293 24669.2 33172.5 32185.1 -7.4133 
2194 1 44.724 2.902 3 6.0261 -134674 -159269 -100467 2301.64 -23044.2 24226.7 -7.41092 