ITEM: TIMESTEP
78
ITEM: NUMBER OF ATOMS
6536
ITEM: BOX BOUNDS pp pp pp
0.0000000000000000e+00 7.0200368299999994e+01
0.0000000000000000e+00 1.2159060500000000e+02
0.0000000000000000e+00 1.5000000000000000e+01
ITEM: ATOMS id type x y z c_csym c_2[1] c_2[2] c_2[3] c_2[4] c_2[5] c_2[6] c_3 
109 1 0.204714 9.82111 2.85908 6.02134 -147529 -161186 3951.71 -21711.9 19783.7 -1238.48 -7.41207 
110 1 0.888822 8.57906 2.85518 6.01957 -164847 -143362 -1762.12 -17975.7 11196.5 -2617.4 -7.41153 
111 1 0.155149 7.36583 2.85147 6.02485 -148742 -160118 2005.46 -13223.7 15464.9 -994.077 -7.41169 
112 1 0.838581 6.12345 2.84828 6.02276 -162174 -146410 -355.062 -10022.2 9484.32 -2377.11 -7.41142 
113 1 0.104253 4.91056 2.84536 6.02682 -150496 -158610 915.446 -6167.19 10531.2 -679.159 -7.41143 
114 1 0.787169 3.66793 2.84317 6.02581 -159293 -149731 264.341 -4066.66 6505.9 -2073.43 -7.41131 
115 1 0.0523838 2.45529 2.84136 6.02895 -152369 -156796 468.775 -1577.88 5232.23 -333.863 -7.41127 
116 1 0.735004 1.21251 2.84044 6.02921 -156089 -153074 398.01 -888.732 2351.56 -1682.78 -7.41124 
117 1 -1.07209e-05 -3.00453e-06 2.83997 6.03099 -154561 -154664 390.541 26.6593 -0.287059 -0.365705 -7.41123 
209 1 3.03928 9.76271 2.86034 6.01957 -175905 -132029 -1906.85 -22091.2 11289.7 -7907.44 -7.41167 
210 1 2.30641 8.549 2.85593 6.0208 -157316 -151498 2339.77 -14330.3 17189 -2907.97 -7.41186 
211 1 2.98985 7.30657 2.85297 6.02119 -171300 -137216 -248.133 -13480.9 10233.7 -7625.78 -7.41157 
212 1 2.25616 6.0933 2.8491 6.02317 -156241 -152576 1007.91 -6274.88 12534.4 -3444.15 -7.41155 
213 1 2.9391 4.85064 2.84704 6.02378 -166014 -142753 504.509 -6427.18 7990.05 -7193.52 -7.41144 
214 1 2.20474 3.63774 2.84405 6.02552 -155460 -153466 428.442 -258.125 7378.58 -3863.6 -7.41135 
215 1 2.88738 2.39496 2.84317 6.02714 -160334 -148618 612.251 -1834.74 4518.99 -6562.08 -7.41134 
216 1 2.15258 1.1823 2.84136 6.02751 -154758 -154266 351.972 2891.76 2068.04 -4168.38 -7.41127 
308 1 4.45682 9.73302 2.86197 6.01516 -167448 -140956 1789.28 -14130.7 18077.4 -3883.12 -7.41201 
309 1 5.14028 8.49054 2.85935 6.01922 -181567 -126683 682.469 -15364.3 10701 -12581.3 -7.41183 
310 1 4.40739 7.27678 2.85482 6.01807 -164213 -144374 399.483 -5026.23 13738.3 -5224.08 -7.41168 
311 1 5.09037 6.0341 2.85299 6.02195 -174551 -134047 1413.42 -7177.37 9238.13 -12080.3 -7.41169 
312 1 4.35664 4.8208 2.84909 6.0215 -160865 -147714 -121.316 2446.06 8846.99 -6413.86 -7.41147 
313 1 5.03932 3.57802 2.84829 6.02505 -166697 -142180 1344.37 -1227.95 6579.48 -11313.7 -7.41155 
314 1 4.30494 2.36509 2.84535 6.02424 -157631 -151270 -3.86755 7151.1 3656.85 -7417.91 -7.41136 
315 1 4.98756 1.12231 2.84578 6.02554 -158451 -150529 784.799 1853.01 2795.55 -10221.4 -7.41143 
407 1 7.28979 9.67561 2.86683 6.01477 -192304 -115545 2631.01 -15905.9 10896.6 -17031.7 -7.4122 
408 1 6.55778 8.46131 2.86195 6.01308 -173173 -134611 -1166.39 -2788.01 14193.3 -6045.62 -7.4118 
409 1 7.24085 7.21862 2.86039 6.01834 -183917 -124490 3209.59 -6682.72 10208 -16470.3 -7.41205 
410 1 6.50788 6.00484 2.8559 6.01697 -167962 -140154 -1480.21 6025.65 9600.28 -7905.58 -7.41158 
411 1 7.19065 4.76207 2.85522 6.02239 -174547 -134020 2839.2 770.341 8410.36 -15610.3 -7.41187 
412 1 6.45686 3.54874 2.85145 6.0207 -162403 -145752 -1008.77 12490.2 4644.01 -9560 -7.41147 
413 1 7.13954 2.30599 2.85185 6.02343 -164361 -144251 1795.48 5408.3 5456.39 -14391.2 -7.41169 
414 1 6.40512 1.09303 2.84909 6.02262 -156916 -151638 -37.3984 15674.6 -341.49 -10961.7 -7.41147 
506 1 8.70726 9.64709 2.86991 6.00831 -182652 -124157 -3840.69 -128.804 14042.6 -6090.36 -7.41186 
507 1 9.39046 8.40443 2.86865 6.0137 -193235 -114691 6042.93 -5209.6 10913.1 -20239.4 -7.41251 
508 1 8.65833 7.19011 2.86385 6.01268 -175781 -131549 -3853.86 10264.5 9729.63 -8460.4 -7.41166 
509 1 9.34123 5.94738 2.86332 6.01835 -182989 -125526 5277.06 3671.54 9971.84 -19289.4 -7.4123 
510 1 8.60816 4.73358 2.85902 6.0174 -168713 -138982 -2921.11 18319.3 5034.82 -10635.7 -7.41157 
511 1 9.29094 3.49087 2.85941 6.02156 -171643 -136813 3658.96 10027.3 7897.7 -17981.2 -7.41206 
512 1 8.55708 2.27752 2.8559 6.02043 -161274 -146631 -1316.73 23420 223.067 -12562.8 -7.41158 
513 1 9.23998 1.03493 2.85732 6.01793 -159572 -148685 1520.05 13222.4 4735.92 -16270.1 -7.41184 
3282 2 0.528745 8.60832 6.54478 6.0224 -144911 -163903 2839.29 17808.4 17724.9 521.578 -7.41187 
3283 2 0.578984 6.1532 6.55171 6.02498 -147272 -161706 1344.95 9997.54 13088.4 -41.4251 -7.41155 
3284 2 0.630396 3.69803 6.55683 6.02705 -149827 -159073 612.346 4026.73 7942.71 -633.388 -7.41134 
3285 2 0.68257 1.2428 6.55956 6.02926 -152849 -156178 398.044 907.2 2632.14 -1196.04 -7.41124 
3286 2 -5.66027e-06 6.92356e-06 6.56003 6.03104 -154565 -154550 390.668 -8.55844 -0.207377 -0.487219 -7.41123 
3377 2 2.63108 9.88006 6.53961 6.01835 -133716 -174852 3210 22318 19368.6 -605.253 -7.41205 
3378 2 1.9464 8.63841 6.5441 6.01703 -152449 -155810 -1480.34 15022.4 11646.6 -4360.64 -7.41158 
3379 2 2.68049 7.42543 6.54701 6.02202 -138038 -170820 1413.93 13837.5 15082 -1959.61 -7.41169 
3380 2 1.99661 6.18336 6.55091 6.02151 -153192 -155731 -121.188 6810.35 9978.74 -4453.03 -7.41147 
3381 2 2.73123 4.97065 6.55295 6.02378 -142893 -165987 504.304 6795.87 10224.7 -3322.53 -7.41144 
3382 2 2.048 3.72823 6.55595 6.02551 -153593 -155315 428.458 606.096 7035.74 -4457.47 -7.41135 
3383 2 2.78294 2.51568 6.55683 6.02578 -148498 -160453 264.176 2035.68 5047.53 -4597.93 -7.41131 
3384 2 2.10016 1.27302 6.55864 6.02899 -154133 -154824 468.766 -2749.12 2904.58 -4364.39 -7.41127 
3385 2 2.83516 0.0604795 6.55818 6.02759 -154334 -154671 412.066 315.558 -32.2698 -5695.42 -7.41128 
3476 2 4.0488 9.90985 6.53805 6.01306 -142022 -166055 -1166.84 15334.1 12332.4 -9267.56 -7.4118 
3477 2 4.78287 8.69687 6.54065 6.0192 -127036 -181193 683.307 16177.8 16246.6 -2976.29 -7.41183 
3478 2 4.09817 7.45529 6.54518 6.01807 -144980 -163582 399.04 6110 11393.5 -9284.49 -7.41168 
3479 2 4.83275 6.24256 6.54703 6.02127 -133919 -174527 -248.3 8008.09 11720.9 -5049.1 -7.41157 
3480 2 4.14887 5.00054 6.5509 6.0232 -147922 -160861 1007.41 -1582.6 9250.31 -9131.85 -7.41155 
3481 2 4.88377 3.78796 6.55172 6.02279 -141765 -167078 -355.725 1736.03 6800.19 -7024.75 -7.41142 
3482 2 4.20055 2.54557 6.55464 6.02685 -151180 -157933 914.834 -6730.2 5853.59 -8779.84 -7.41143 
3483 2 4.93553 1.33301 6.55422 6.02373 -149979 -158972 97.0336 -1642.64 1812.63 -8779.9 -7.41138 
3484 2 4.25274 0.0903623 6.55595 6.02559 -154300 -154691 456.612 -8622.93 1410.17 -8210.17 -7.41135 
3575 2 6.88623 9.96725 6.5332 6.01704 -115245 -192149 -1063.97 17192.5 16702.1 -3181.62 -7.41193 
3576 2 6.20062 8.72622 6.53803 6.01506 -135226 -173068 1789.19 4464.42 12401.5 -13713.4 -7.41201 
3577 2 6.93512 7.51345 6.53966 6.01952 -123672 -184059 -1906.6 7999.68 12492.5 -5823.19 -7.41167 
3578 2 6.25045 6.27191 6.54407 6.0208 -140370 -168226 2339.47 -4626.01 11112.8 -13432 -7.41186 
3579 2 6.98528 5.05927 6.54482 6.0196 -133085 -174960 -1762.55 358.308 7864.08 -8387.85 -7.41153 
3580 2 6.30142 3.81728 6.54853 6.02486 -145861 -162969 2005.04 -11508.1 8593.43 -12896.2 -7.41169 
3581 2 7.03636 2.60467 6.54817 6.01992 -143224 -165183 -878.552 -4844.15 3070.28 -10742.1 -7.41149 
3582 2 6.35314 1.3623 6.5509 6.02369 -151337 -157549 1091.49 -15380.1 4903.56 -12076.6 -7.41155 
3583 2 7.08796 0.149591 6.54932 6.02082 -153846 -154840 429.472 -6844.14 -1512.5 -12766.9 -7.41156 
3674 2 8.30407 9.99595 6.53004 6.01246 -124810 -183504 4210.15 2387.63 12987.6 -17626.5 -7.41244 
3675 2 9.03843 8.7831 6.53146 6.01751 -113129 -193904 -4629.59 7131.62 12678.9 -5815.26 -7.41174 
3676 2 8.35288 7.5421 6.53609 6.01878 -131705 -176724 4610.49 -8153.69 12550.1 -17211.1 -7.41227 
3677 2 9.08759 6.32937 6.53676 6.01671 -123720 -183591 -4165 -1982.56 8330.15 -8804.27 -7.41161 
3678 2 8.40298 5.08785 6.54092 6.02136 -138904 -169727 3951.76 -16732.9 10964.3 -16514.5 -7.41207 
3679 2 9.13784 3.87516 6.54064 6.01558 -135210 -172546 -2771.58 -8836.83 3757.73 -11619.3 -7.41159 
3680 2 8.454 2.63318 6.54407 6.02108 -146231 -162241 2504.55 -22551 8168.4 -15515.5 -7.41186 
3681 2 9.18879 1.42041 6.5427 6.01589 -147258 -160781 -754.762 -12810.1 -727.343 -14138.1 -7.41167 
3682 2 8.50554 0.178069 6.54518 6.02094 -153846 -154505 618.963 -24876.4 4322.12 -14197.8 -7.41169 
605 1 11.5391 9.59167 2.87727 6.00921 -202234 -105406 9982.79 -3121.17 11367.8 -23336.5 -7.41306 
606 1 10.8079 8.37677 2.87239 6.00866 -183587 -122418 -7341.16 14529.6 9392.87 -8303.96 -7.41168 
607 1 11.491 7.13411 2.87202 6.0143 -191179 -116951 8771.25 7191.68 11263.2 -22302.2 -7.41282 
608 1 10.7587 5.9198 2.86745 6.01377 -175368 -131366 -5895.07 24353.3 4942.11 -10842.2 -7.41162 
609 1 11.4417 4.67716 2.86782 6.01857 -179312 -129109 6525.15 15240.2 10072.4 -20916.2 -7.41253 
610 1 10.7085 3.46335 2.86385 6.01794 -166824 -140491 -3591.9 31264.2 323.525 -13156.8 -7.41166 
611 1 11.3915 2.22083 2.86509 6.01538 -166427 -141777 3560.92 20263.7 7747 -19160.1 -7.41224 
612 1 10.6575 1.00745 2.86195 6.0188 -157956 -149714 -768.282 34693.9 -4141.07 -15207.5 -7.4118 
704 1 12.9566 9.56493 2.88106 6.0054 -191042 -113634 -11947.3 18508.9 8745.14 -7659.64 -7.41164 
705 1 13.6399 8.32238 2.88087 6.01052 -198997 -109040 13352.7 10968.7 12272.6 -24627.7 -7.41343 
706 1 12.9085 7.10752 2.87622 6.01045 -181833 -123552 -9982.95 30089.5 4518.71 -10420.3 -7.41161 
707 1 13.5916 5.86498 2.87659 6.01491 -186786 -121602 10471.4 20749.3 11956 -23187.6 -7.41309 
708 1 12.8591 4.65069 2.87237 6.01603 -172571 -133691 -6968.97 38901.9 79.9282 -12979.9 -7.41169 
709 1 13.5423 3.40825 2.87345 6.01317 -173637 -134544 6670.96 27645.7 10485.8 -21409.1 -7.41272 
710 1 12.809 2.19443 2.86989 6.0171 -162966 -143900 -3233.18 44290.9 -4291.57 -15311.1 -7.41187 
711 1 13.4924 0.952196 2.87177 6.00931 -159770 -147912 2329.27 31012.1 7903.61 -19292.4 -7.41236 
803 1 15.788 9.51219 2.88953 6.00726 -205493 -102511 18969.1 14611.9 12960.4 -26208.6 -7.4141 
804 1 15.0574 8.2968 2.88493 6.00795 -187994 -116354 -15149.6 35163.7 3897.59 -9568 -7.41154 
805 1 15.7409 7.0544 2.88533 6.01151 -193631 -114963 15488.8 26152.8 13509.6 -24770.4 -7.41372 
806 1 15.0091 5.8396 2.88102 6.01329 -178246 -127048 -11457.3 45897.4 -370.11 -12256.7 -7.41166 
807 1 15.6925 4.59728 2.88196 6.01026 -180604 -127897 10889.2 34991.7 12903.8 -23007.3 -7.41329 
808 1 14.9599 3.38301 2.87817 6.01602 -168263 -137839 -6836.81 53313.9 -4653.21 -14743.2 -7.41188 
809 1 15.6434 2.14086 2.87976 6.00673 -166738 -141046 5540.09 40408.2 11106 -20950.7 -7.41284 
810 1 14.91 0.927013 2.87669 6.01189 -158066 -148577 -1674.1 56874 -8635.77 -17019.3 -7.41219 
902 1 17.2055 9.48761 2.8933 6.00619 -192878 -110112 -21277.9 39245.3 3172.51 -8411.13 -7.4114 
903 1 17.8893 8.2454 2.89375 6.00867 -199149 -109694 21482.2 31077.5 14670.7 -25587.5 -7.41441 
904 1 17.1583 7.0301 2.88947 6.0114 -183242 -121085 -16982.7 51882.8 -913.91 -11145.6 -7.41156 
905 1 17.8421 5.78794 2.89028 6.00742 -186638 -122081 16162.2 41912.5 14938.3 -23902.5 -7.41392 
906 1 17.11 4.57319 2.8864 6.01526 -173293 -131973 -11548.1 61415.6 -5102.16 -13689.1 -7.41183 
907 1 17.7938 3.33117 2.88772 6.00447 -173404 -134912 9887.05 49400.3 13957.6 -21949.6 -7.4134 
908 1 17.061 2.11689 2.88445 6.00966 -163104 -142918 -5360.61 67063.1 -9105.54 -16046.9 -7.41218 
909 1 17.745 0.875077 2.88636 6.00089 -159431 -147815 3070.8 52936.1 11794 -19757.7 -7.41288 
1001 1 20.0371 9.43789 2.9016 6.00654 -202917 -106182 28258 35197.3 15365.3 -25526.7 -7.41515 
1002 1 19.3068 8.22212 2.89745 6.01028 -187051 -116223 -23389.5 56528 -1475.39 -9742.53 -7.41139 
1003 1 19.9909 6.98016 2.89817 6.00504 -191386 -117754 22350.4 48011.1 16510.1 -23999.9 -7.41461 
1004 1 19.2595 5.76496 2.8943 6.01296 -177404 -126917 -17254.2 68132.3 -5542.81 -12269 -7.41169 
1005 1 19.9436 4.52309 2.89539 6.00193 -179023 -129655 15270.6 57666.6 16376.9 -22209.1 -7.41402 
1006 1 19.2113 3.30838 2.89201 6.00784 -167751 -137603 -10153.5 76033 -9543.02 -14619.7 -7.4121 
1007 1 19.8956 2.06668 2.89356 5.99838 -165953 -141856 7445.69 63483.3 14958.2 -20208.5 -7.41341 
1008 1 19.1626 0.852381 2.89085 6.00299 -157743 -148206 -2509.78 79636.1 -13161.9 -16810.9 -7.41258 
3773 2 11.1428 10.0514 6.52292 6.01576 -102907 -203412 -8474.67 5675.54 12422.7 -5257.1 -7.41174 
3774 2 10.4563 8.81094 6.52751 6.01595 -122826 -185855 7936.63 -11745.1 13559 -20419.7 -7.41278 
3775 2 11.1908 7.59809 6.52812 6.01327 -114167 -192184 -7665.67 -4771.92 8335.93 -8506.14 -7.41164 
3776 2 10.5054 6.35708 6.53245 6.01742 -131369 -177193 6902 -21961.6 12903.9 -19569.3 -7.41255 
3777 2 11.2401 5.14428 6.53227 6.01152 -126473 -180292 -5734.86 -13351.3 3978.3 -11617 -7.41164 
3778 2 10.5555 3.90275 6.53608 6.01666 -140105 -168248 4876.26 -29721.7 11058.6 -18419.3 -7.41228 
3779 2 11.2902 2.68988 6.53495 6.01112 -139704 -167729 -2973.42 -19293.2 -387.826 -14482.3 -7.41176 
3780 2 10.6064 1.44792 6.53802 6.01758 -149023 -159108 2189.57 -34144.9 8058.62 -16965.8 -7.41202 
3781 2 11.3408 0.234852 6.53587 6.01242 -153195 -154785 258.391 -21634.8 -4419.56 -17013.5 -7.41197 
3872 2 12.5607 10.0783 6.51879 6.01308 -114143 -194573 12353.9 -14832.3 14149.5 -23025.2 -7.41337 
3873 2 13.295 8.86533 6.51936 6.0104 -105196 -200047 -12272.7 -7655.64 8004.93 -7732.99 -7.4116 
3874 2 12.6086 7.62486 6.52361 6.01358 -123617 -184704 10931 -26806.3 14401 -22045.3 -7.41311 
3875 2 13.3432 6.4119 6.52355 6.00801 -117873 -187640 -9819.43 -17994.7 3858.48 -10992.9 -7.41164 
3876 2 12.6578 5.17086 6.52749 6.01223 -133316 -174724 8317.47 -36436.8 13508.8 -20768.2 -7.4128 
3877 2 13.3924 3.95786 6.52663 6.00683 -131612 -174754 -6325.1 -25866.6 -385.398 -14051.6 -7.41179 
3878 2 12.7079 2.71633 6.53002 6.01248 -143348 -164530 4825.35 -43034 11415.2 -19214.6 -7.41246 
3879 2 13.4423 1.50317 6.52825 6.00721 -145783 -161424 -2142.94 -30413.6 -4424.53 -16833.9 -7.41204 
3880 2 12.7584 0.261235 6.53093 6.01454 -153264 -154186 836.605 -45794.9 8246.16 -17393.5 -7.41214 
3971 2 15.4001 10.1311 6.5108 6.00837 -97227.8 -206750 -17910.1 -10375.2 7418.2 -6663.59 -7.41149 
3972 2 14.7128 8.89114 6.51481 6.01012 -116543 -192018 16029.7 -30842.8 15444.3 -23902.4 -7.41376 
3973 2 15.4471 7.67799 6.51488 6.0052 -109918 -194275 -14987.7 -22301.8 3498.19 -9963.72 -7.41156 
3974 2 14.761 6.43745 6.51874 6.00811 -126796 -181108 12859.9 -42350.2 15490.1 -22543.8 -7.4134 
3975 2 15.4953 5.22428 6.51816 6.00322 -123690 -181240 -10813.2 -32140.4 -608.754 -13089.7 -7.41175 
3976 2 14.8101 3.9832 6.52166 6.00759 -137332 -170217 8596.17 -51039.6 14318.6 -20927.6 -7.41299 
3977 2 15.5444 2.76991 6.52029 6.00268 -138082 -167994 -5733.19 -38929.8 -4636.59 -15984 -7.41204 
3978 2 14.8599 1.52838 6.52324 6.00883 -147852 -159397 3613.18 -56123.6 11965.7 -19082.1 -7.41258 
3979 2 15.5939 0.314875 6.52102 6.00379 -152555 -154468 -142.491 -41805.6 -8253.86 -18609 -7.41242 
4070 2 16.818 10.156 6.50633 6.00733 -110336 -198247 22100.2 -33718.3 15992 -25050.8 -7.41446 
4071 2 17.5519 8.94257 6.50655 6.00335 -103319 -199528 -21122.1 -26005.3 2963.61 -8671.02 -7.41142 
4072 2 16.865 7.70251 6.51017 6.00457 -120837 -186923 18446.7 -47088.7 16961.7 -23680.8 -7.41406 
4073 2 17.5991 6.48913 6.50988 6.00051 -116738 -186880 -16357.5 -37831.8 -974.26 -11771.8 -7.41164 
4074 2 16.9131 5.24851 6.5133 6.00321 -131579 -175778 13486.5 -57898.3 16715.4 -22057.6 -7.4136 
4075 2 17.6472 4.03506 6.51235 5.99897 -130881 -173923 -10470.3 -46797 -4955.54 -14667.9 -7.41197 
4076 2 16.9621 2.79395 6.51538 6.00351 -142275 -164592 7586.75 -65297.8 15215.5 -20231.2 -7.4131 
4077 2 17.696 1.58033 6.51366 5.99905 -145188 -160851 -3855.88 -52150 -8680.05 -17331.8 -7.41239 
4078 2 17.0115 0.33882 6.51617 6.00566 -152877 -153846 1161.03 -68463.4 12589.9 -18225.7 -7.41262 
4170 2 18.9698 8.96614 6.50203 6.00183 -116115 -191640 24930.7 -50295.9 17860.9 -24071.1 -7.41478 
4171 2 19.7036 7.7525 6.50203 5.99882 -111147 -190965 -22800.4 -42473.8 -1426.63 -10203.7 -7.41146 
4172 2 19.0169 6.51231 6.50523 5.99956 -126702 -180387 19389.1 -63197.3 18541.3 -22512.7 -7.41427 
4173 2 19.7507 5.29865 6.5047 5.99631 -124730 -178694 -16233.6 -53734.9 -5310.49 -13018.7 -7.41182 
4174 2 19.0649 4.05795 6.50766 5.99886 -137325 -169501 12690 -72875.5 17921.7 -20761.8 -7.41371 
4175 2 19.7987 2.84418 6.50646 5.99524 -138549 -166490 -8726.34 -61424 -9087.67 -15622.8 -7.41228 
4176 2 19.1136 1.60306 6.50903 5.99996 -147671 -158841 5247.5 -78581.3 16058.8 -18856.2 -7.41313 
4177 2 19.8471 0.389077 6.50708 5.99587 -152422 -154104 -694.14 -64774.6 -12424.8 -18015.6 -7.41282 
1100 1 21.4545 9.41555 2.90477 6.01023 -189146 -112939 -30441.6 59412.9 -2006.86 -8120.8 -7.41116 
1101 1 22.1392 8.17384 2.90542 6.00331 -194323 -115209 29218.8 52816.4 17542.7 -23197 -7.41533 
1102 1 21.4084 6.95821 2.90166 6.01112 -180283 -123097 -23763.3 73128.2 -5911.04 -10561.6 -7.41149 
1103 1 22.0928 5.71655 2.90253 5.99941 -183208 -125940 21506.8 64720.5 18275.9 -21634 -7.41468 
1104 1 21.3611 4.50142 2.89915 6.00645 -171360 -133251 -15902.2 83336.2 -9865.48 -12833.5 -7.41194 
1105 1 22.0456 3.25987 2.90036 5.99648 -171433 -137021 12835.5 72848.8 17652.4 -19872.7 -7.414 
1106 1 21.3131 2.04517 2.89757 6.00082 -162290 -143251 -7291.07 89277.5 -13580 -14953.3 -7.41247 
1107 1 21.9978 0.803798 2.89921 5.99332 -158860 -148182 3649.81 76554.5 15774.7 -17947.7 -7.41331 
1199 1 24.2869 9.36878 2.91187 6.00237 -194856 -114916 36457.6 56060.8 17982.8 -21431.2 -7.41605 
1200 1 23.5566 8.15279 2.90828 6.0099 -181479 -121073 -30807.5 75978.8 -6163.7 -8644.86 -7.41124 
1201 1 24.2415 6.91137 2.90896 5.99771 -185223 -124194 28328.6 70057.1 19579.9 -20152.8 -7.41537 
1202 1 23.5103 5.69588 2.90567 6.00509 -173600 -130283 -22381.9 88528.9 -10018.9 -10767.4 -7.41171 
1203 1 24.1952 4.45451 2.90657 5.99455 -174915 -133736 19018.3 80636.3 19787.2 -18677.5 -7.41462 
1204 1 23.4631 3.23945 2.90376 5.9992 -165658 -139287 -12995 96898.2 -13773.6 -12745.2 -7.41227 
1205 1 24.148 1.9982 2.90501 5.9914 -164151 -143447 8988.91 86797.5 18630.1 -17055.6 -7.41386 
1206 1 23.4154 0.783491 2.90284 5.99461 -157302 -148290 -3089.87 100591 -17112.4 -14598.9 -7.41292 
1298 1 25.7043 9.34849 2.91403 6.00935 -180304 -120924 -38055.7 76493.7 -6265.01 -6620.44 -7.41095 
1299 1 26.3898 8.10734 2.91456 5.99697 -185045 -124524 35406.7 73322.7 20242.3 -17750.9 -7.41605 
1300 1 25.659 6.89155 2.91141 6.00384 -173730 -128974 -29302.2 91058.5 -9966.95 -8516.31 -7.41143 
1301 1 26.3443 5.6504 2.91204 5.99291 -176459 -132320 25706.7 86173.6 21290.8 -16597.7 -7.41527 
1302 1 25.6127 4.43504 2.90928 5.99816 -167099 -136971 -19368.9 102050 -13698.8 -10281.6 -7.41202 
1303 1 26.2978 3.19394 2.91015 5.98956 -167426 -140442 15070.2 95027 20905.3 -15307.4 -7.41444 
1304 1 25.5655 1.97892 2.90796 5.99291 -160475 -144597 -8715.21 108335 -17172.7 -11932.7 -7.41269 
1305 1 26.2508 0.737944 2.90915 5.98772 -157845 -148720 3951.36 98860 19221.5 -13905.4 -7.41363 
1397 1 28.5378 9.3042 2.91922 5.99715 -181924 -127198 42378.7 74074.8 20253.8 -14483.3 -7.4167 
1398 1 27.8073 8.08818 2.91627 6.00337 -171730 -129893 -36320.9 90845.4 -9681.58 -6203.79 -7.41113 
1399 1 28.493 6.8473 2.91665 5.99207 -175825 -133120 32562.8 89170.1 22125.5 -13670.6 -7.4159 
1400 1 27.7618 5.63168 2.91401 5.99778 -166753 -136299 -26106.3 104168 -13331.4 -7681.7 -7.41172 
1401 1 28.4473 4.39077 2.91452 5.98783 -168834 -139387 21591.8 100495 22536.2 -12728.7 -7.41504 
1402 1 27.7153 3.17551 2.91237 5.99188 -161695 -142711 -14959.5 113094 -16872.1 -9064.24 -7.4124 
1403 1 28.4008 1.93465 2.91313 5.98581 -161302 -145842 9931.09 107104 21542.2 -11692.6 -7.41416 
1404 1 27.6684 0.719646 2.91161 5.98786 -156378 -148799 -3326.56 116929 -19986.8 -10367 -7.41317 
1496 1 29.9553 9.28546 2.92017 6.00388 -166940 -132651 -43069.5 87530.1 -9132.84 -3973.64 -7.41081 
1498 1 29.9106 6.8291 2.91785 5.99756 -164137 -137717 -32861.9 102915 -12653.7 -5089.31 -7.41139 
1500 1 29.8648 4.37297 2.91598 5.99169 -161095 -142535 -21505.3 114489 -16197.9 -6135.1 -7.41208 
1502 1 29.8184 1.91706 2.91483 5.98703 -157818 -147190 -9460.45 121089 -19481.8 -7123.32 -7.41285 
4269 2 21.8088 9.0145 6.49483 5.99836 -107392 -193083 -29906.6 -45945.7 -1918.67 -8457.86 -7.41122 
4270 2 21.1214 7.77471 6.49769 5.99688 -123144 -183838 26107.8 -66689.6 19719.1 -22179.6 -7.41499 
4271 2 21.8549 6.56079 6.49757 5.99482 -119939 -181872 -22828.3 -59280.8 -5651.51 -11121.4 -7.4116 
4272 2 21.1685 5.32048 6.50033 5.99512 -133339 -173296 18765.4 -78653.9 20002.6 -20568.3 -7.41437 
4273 2 21.902 4.10651 6.49965 5.9926 -132798 -170680 -14593.3 -69394.6 -9414.87 -13589.4 -7.41209 
4274 2 21.2164 2.86577 6.50215 5.99507 -143186 -163098 10465.7 -86845.5 18954.1 -18814.3 -7.41372 
4275 2 21.9498 1.65166 6.50078 5.99204 -145978 -159394 -5629.14 -75385.3 -12908.8 -15859.5 -7.41267 
4276 2 21.2647 0.410551 6.50288 5.99699 -152942 -153151 1638.8 -90473.5 16722.1 -16942.1 -7.41307 
4368 2 23.2267 9.03586 6.49086 5.99534 -121284 -185568 33362.5 -68090.8 20179.8 -20968.2 -7.41573 
4369 2 23.9598 7.82164 6.49115 5.99464 -117050 -183127 -29987.5 -63198.1 -5931.42 -9053.38 -7.41133 
4370 2 23.2727 6.58168 6.49359 5.99249 -130626 -175667 25575.3 -82346.3 21377.8 -19554 -7.41507 
4371 2 24.006 5.36747 6.49343 5.99129 -128738 -173117 -21228 -75753.9 -9614.68 -11316.9 -7.41184 
4372 2 23.3197 4.12706 6.49573 5.99126 -139705 -166309 16611.3 -92931.9 21187.9 -18004.5 -7.41435 
4373 2 24.053 2.91278 6.49497 5.98952 -140767 -163271 -11532.6 -84244.4 -13187.7 -13394.9 -7.41244 
4374 2 23.3674 1.67201 6.49698 5.99195 -148725 -157214 6915.71 -99193.1 19691 -16349.6 -7.41362 
4375 2 24.1005 0.457561 6.49553 5.98955 -152598 -153359 -1328.54 -88027.2 -16318.1 -15299.9 -7.41312 
4467 2 26.0652 9.08142 6.48557 5.99592 -116611 -181889 -37379.7 -65259.7 -6094.92 -6912.71 -7.41102 
4468 2 25.3776 7.84174 6.48761 5.99119 -129741 -176369 32811.6 -83525.3 21987.7 -17668 -7.41579 
4469 2 26.1105 6.62724 6.48794 5.99157 -126768 -173700 -28338.1 -79947 -9645.18 -8901.96 -7.41153 
4470 2 25.4237 5.38713 6.48996 5.98874 -137893 -168106 23414.8 -96521.7 22685.6 -16365.7 -7.41502 
4471 2 26.1567 4.17263 6.48979 5.98854 -137394 -165524 -18145.1 -91016.6 -13222.7 -10724.7 -7.41215 
4472 2 25.4707 2.93215 6.49163 5.98817 -145804 -160150 13075.9 -105449 21984.7 -14967.8 -7.41422 
4473 2 26.2037 1.71757 6.49082 5.98723 -147691 -157098 -7246.96 -97477.7 -16535.9 -12385.8 -7.41286 
4474 2 25.5181 0.476803 6.49236 5.98953 -153259 -152375 2232.58 -109433 20050.2 -13490.5 -7.41344 
4566 2 27.4831 9.10091 6.48251 5.99141 -131195 -174969 40117 -82004.8 21810.8 -14922.7 -7.41648 
4567 2 28.2154 7.8861 6.48331 5.99237 -127260 -171971 -35578.4 -81665.4 -9460.54 -6466.33 -7.4112 
4568 2 27.5282 6.6462 6.48497 5.98777 -137977 -167914 30551.3 -97264.4 23399.7 -13891.6 -7.41569 
4569 2 28.2609 5.43146 6.48536 5.98853 -136003 -165482 -25153.5 -95178.3 -12983 -7970.72 -7.41182 
4570 2 27.5744 4.1912 6.48694 5.98584 -144628 -161369 19825 -108684 23539.4 -12781 -7.41485 
4571 2 28.3072 2.97646 6.48678 5.98608 -144620 -158950 -13817.4 -104245 -16398.9 -9333.34 -7.41253 
4572 2 27.6213 1.73592 6.48815 5.98584 -150623 -154964 8394.54 -115383 22320.9 -11604 -7.414 
4573 2 28.354 0.521098 6.48732 5.9851 -153190 -152306 -1995.94 -108358 -19378.5 -10566.7 -7.41331 
4666 2 29.6332 7.90458 6.48084 5.98845 -140451 -165743 37658.2 -94883.8 23319.9 -10637.3 -7.41635 
4668 2 29.6786 5.44945 6.48304 5.9852 -145434 -160755 26826.2 -108688 24319.8 -9825.87 -7.41548 
4670 2 29.7248 2.99414 6.48464 5.98379 -149885 -155968 15080.9 -117994 23875 -8966.8 -7.41458 
4672 2 29.7716 0.53864 6.48539 5.9844 -154106 -151453 2857.01 -122206 22161 -8065.17 -7.41369 
1497 1 30.6416 8.04487 2.92034 5.99174 -172415 -136130 39230.2 89157.4 22289.2 -9991.4 -7.4165 
1499 1 30.5965 5.58842 2.91805 5.9871 -167755 -140326 28215.1 102784 23494.2 -9401.16 -7.41562 
1501 1 30.5506 3.13225 2.91633 5.98433 -162615 -144954 16297.6 112127 23228.9 -8731.53 -7.41471 
1503 1 30.5041 0.67639 2.91544 5.98376 -156889 -149585 3917.84 116248 21654.1 -7996.84 -7.41381 
1595 1 32.79 9.2428 2.92307 5.99248 -166629 -141443 45327.8 86112.3 21812 -5701.87 -7.41703 
1596 1 32.0592 8.02694 2.92077 5.99767 -159009 -141256 -39274.5 98300.7 -11647.1 -2660.23 -7.41107 
1597 1 32.7456 6.78652 2.92068 5.98708 -164415 -143543 34590 101802 23779.9 -5450.91 -7.41616 
1598 1 32.0141 5.57097 2.91872 5.99159 -158031 -144347 -28008.7 112139 -15143.5 -3303.32 -7.41173 
1599 1 32.7001 4.33044 2.9187 5.98381 -161554 -145892 22715.9 113624 24258.4 -5137.81 -7.41524 
1600 1 31.9681 3.11513 2.91725 5.98705 -156999 -147100 -15844.5 121522 -18531.1 -3918.17 -7.41249 
1601 1 32.654 1.87455 2.91742 5.98255 -158194 -148638 10176 120521 23323.7 -4781.42 -7.4143 
1602 1 31.9216 0.659401 2.9166 5.98387 -155628 -149899 -3214.04 125497 -21491.6 -4513.92 -7.41333 
1694 1 34.2076 9.22487 2.92275 5.99836 -151551 -147118 -44966.9 90384.3 -10292.2 -552.374 -7.41077 
1695 1 34.8946 7.98474 2.92239 5.9882 -158630 -148961 40345.6 97462.6 23423 -1034.94 -7.41664 
1696 1 34.1632 6.76917 2.92058 5.99197 -152833 -148270 -34116.2 106207 -13702 -730.616 -7.4114 
1697 1 34.8497 5.52884 2.92021 5.98417 -158162 -149194 28839.6 111482 24632.1 -1057.78 -7.41572 
1698 1 34.1177 4.3135 2.91883 5.98712 -153938 -149327 -22136.8 118039 -17136.5 -917.121 -7.41212 
1699 1 34.8038 3.07304 2.91858 5.98236 -157301 -149752 16442 121036 24368.2 -1059.15 -7.41478 
1700 1 34.0715 1.85784 2.91779 5.98413 -154839 -150042 -9490.52 124902 -20312.6 -1117.32 -7.41294 
1701 1 34.7575 0.617321 2.91777 5.98267 -155740 -150393 3587.61 125322 22803.5 -1042.07 -7.41384 
1793 1 37.0437 9.18269 2.92317 5.99003 -150437 -156372 45112.3 89981.7 22471.3 3671.21 -7.41702 
1794 1 36.3123 7.96718 2.92154 5.99311 -145206 -154415 -39460.6 96874.6 -11865.6 1427.99 -7.41109 
1795 1 36.9992 6.7271 2.92084 5.98564 -152600 -154567 34308.2 105809 24374.1 3341.9 -7.41615 
1796 1 36.2673 5.51179 2.91957 5.98792 -148568 -153476 -27991.1 110838 -15301.6 1718.74 -7.41176 
1797 1 36.9537 4.27149 2.91892 5.98312 -154011 -152902 22373.2 117752 24788.1 3011.78 -7.41521 
1798 1 36.2214 3.05632 2.91817 5.98445 -151873 -152372 -15631.9 120341 -18631.5 1958.84 -7.41254 
1799 1 36.9075 1.81586 2.9177 5.98243 -154940 -151619 9767.54 124770 23802.3 2675.01 -7.41427 
1800 1 36.175 0.600742 2.9176 5.98296 -154681 -151051 -2809.66 124497 -21533.3 2150.42 -7.41339 
1892 1 38.4614 9.16466 2.92162 5.99498 -135423 -162565 -43678.4 84519.4 -9626.91 3037.92 -7.41082 
1893 1 39.1489 7.92485 2.9206 5.98788 -144870 -161725 38759.6 96998 23525.4 7883.65 -7.41647 
1894 1 38.4169 6.70966 2.91946 5.98955 -141036 -159675 -33050.8 100257 -13030.6 3842.43 -7.41144 
1895 1 39.1036 5.46954 2.91843 5.98481 -148690 -158050 27618.7 110873 24599.3 7259.48 -7.41558 
1896 1 38.3713 4.25446 2.91774 5.98569 -146494 -156571 -21297.4 112042 -16460.4 4559.1 -7.41215 
1897 1 39.0575 3.01411 2.91683 5.98309 -151897 -154629 15575 120390 24218.5 6605.03 -7.41466 
1898 1 38.325 1.79907 2.91675 5.98366 -151693 -153303 -8869.95 118894 -19632.1 5189.67 -7.41296 
1899 1 39.011 0.558553 2.91607 5.98336 -154685 -151393 3059.07 124636 22558.6 5921.78 -7.41375 
4665 2 30.3207 9.14433 6.47958 5.99461 -130231 -167747 -42566.7 -80741.2 -9009.89 -4152.24 -7.41086 
4667 2 30.3654 6.68954 6.48177 5.9895 -137048 -163373 -32204.5 -96375.2 -12435.3 -5274.07 -7.41146 
4669 2 30.4111 4.23451 6.4835 5.98597 -143825 -158780 -20710.4 -108018 -15887.9 -6284.66 -7.41216 
4671 2 30.4574 1.7792 6.48449 5.98404 -150627 -154089 -8537.89 -114787 -19080.5 -7187.23 -7.41295 
4764 2 31.7385 9.16258 6.47763 5.98999 -145188 -161343 44348.2 -89396.4 22474.8 -6707.18 -7.41694 
4765 2 32.4701 7.94722 6.47905 5.9923 -140462 -158897 -38916.8 -94460.5 -11543.6 -2787.4 -7.4111 
4766 2 31.7831 6.70722 6.47997 5.98582 -148536 -158074 33716.9 -105229 24322.2 -6191.23 -7.41608 
4767 2 32.5152 5.49203 6.48102 5.98743 -145281 -156447 -27568.8 -108381 -14984.5 -3392.47 -7.41178 
4768 2 31.8287 4.25177 6.48189 5.98354 -151346 -155075 21947.5 -117008 24686.7 -5653.16 -7.41516 
4769 2 32.5611 3.03668 6.48241 5.98435 -150034 -153982 -15330.5 -117776 -18319.3 -3921.76 -7.41255 
4770 2 31.875 1.79623 6.4831 5.98271 -153831 -152411 9503.15 -123975 23659.6 -5092.9 -7.41423 
4771 2 32.6075 0.581153 6.48296 5.98307 -154328 -151274 -2626.83 -121935 -21224.6 -4380.41 -7.41339 
4863 2 34.575 9.20486 6.47722 5.99682 -146259 -152248 -44886.1 -89441 -10272.2 -659.595 -7.41077 
4864 2 33.8878 7.96486 6.47778 5.98761 -153885 -153367 40111.1 -98372.3 23575 -2003.13 -7.41662 
4865 2 34.6194 6.7494 6.47937 5.99072 -148940 -152113 -34012.7 -105338 -13668 -809.189 -7.4114 
4866 2 33.9328 5.50916 6.47995 5.98405 -154966 -152232 28631.2 -112407 24754.1 -1775.49 -7.4157 
4867 2 34.6649 4.29389 6.48109 5.98623 -151625 -151701 -22015.1 -117131 -17088.8 -923.683 -7.41214 
4868 2 33.9787 3.05348 6.48156 5.98254 -155495 -151360 16258.8 -121925 24463.9 -1551.79 -7.41476 
4869 2 34.711 1.83831 6.48211 5.98358 -153877 -151050 -9350.71 -123979 -20251.8 -1000.13 -7.41295 
4870 2 34.0251 0.597812 6.48235 5.98257 -155375 -150660 3427.66 -126216 22879.2 -1330.97 -7.41382 
4962 2 35.9926 9.22272 6.47648 5.99121 -161337 -146485 45607.5 -88406.4 22136.6 2579.95 -7.41707 
4963 2 36.7236 8.00696 6.47855 5.99577 -154666 -145553 -39644.1 -98915.2 -11917.7 1324.3 -7.41107 
4964 2 36.037 6.76667 6.47884 5.98619 -160551 -147218 34749.6 -104244 24100.4 2523.83 -7.41619 
4965 2 36.7687 5.55118 6.48056 5.98999 -155268 -147411 -28215.2 -112866 -15382.1 1661.37 -7.41174 
4966 2 36.0825 4.31074 6.48079 5.9832 -159263 -148401 22761.5 -116110 24571.3 2426.98 -7.41525 
4967 2 36.8145 3.09546 6.482 5.9859 -155450 -148908 -15893.6 -122208 -18738.7 1996.6 -7.41251 
4968 2 36.1286 1.85494 6.48204 5.98223 -157208 -149665 10107.8 -123041 23632.3 2302.81 -7.41431 
4969 2 36.861 0.639779 6.48262 5.9833 -155411 -150324 -3107.84 -126302 -21668.5 2334.97 -7.41336 
5061 2 38.8278 9.26509 6.47857 6.00235 -162095 -137218 -44060 -89520 -9718.59 2892.96 -7.41079 