ITEM: TIMESTEP
0
ITEM: NUMBER OF ATOMS
10088
ITEM: BOX BOUNDS pp pp pp
0.0000000000000000e+00 8.7213939900000000e+01
0.0000000000000000e+00 1.5105897500000000e+02
0.0000000000000000e+00 1.8399999999999999e+01
ITEM: ATOMS id type x y z c_csym c_2[1] c_2[2] c_2[3] c_2[4] c_2[5] c_2[6] c_3 
139 1 0.82995 8.58517 7.5 6.03194 -147793 -131366 -151172 -555.044 18965.4 -3509.83 -7.41089 
140 1 0.103744 7.36727 7.5 6.03194 -134366 -143122 -149640 236.705 20094.5 -746.053 -7.411 
141 1 0.795369 6.12941 7.5 6.03194 -143847 -132677 -154296 -554.243 13499.6 -2967.49 -7.41075 
142 1 0.0691625 4.91151 7.5 6.03194 -134444 -140960 -154705 161.019 12557.1 -555.985 -7.41074 
143 1 0.760788 3.67365 7.5 6.03194 -140520 -134210 -156658 -555.427 8106.44 -2402.31 -7.41064 
144 1 0.0345813 2.45576 7.5 6.03194 -135273 -138846 -157429 81.3963 5911.15 -308.909 -7.41061 
145 1 0.726206 1.2179 7.5 6.03194 -137880 -135953 -157994 -555.138 2703.14 -1868.62 -7.41058 
263 1 2.24778 8.5652 7.5 6.03194 -134748 -144418 -146063 2676 23736.6 -4910.97 -7.41117 
264 1 2.93941 7.32734 7.5 6.03194 -145705 -132519 -151074 -1480.92 16472.4 -9624.67 -7.41091 
265 1 2.2132 6.10944 7.5 6.03194 -134456 -142252 -152293 2425.11 15764.3 -4921.37 -7.41086 
266 1 2.90483 4.87158 7.5 6.03194 -142089 -133936 -154134 -1722.65 10981.4 -8525.95 -7.41077 
267 1 2.17862 3.65369 7.5 6.03194 -134912 -140098 -155981 2137.72 8675.02 -4917.45 -7.41068 
268 1 2.87024 2.41583 7.5 6.03194 -139126 -135575 -156287 -1971.94 5513.15 -7478.72 -7.41066 
269 1 2.14404 1.19793 7.5 6.03194 -136105 -138023 -157553 1825.08 2426.78 -4924.73 -7.4106 
386 1 5.08345 8.52527 7.5 6.03194 -147683 -132972 -145251 -2128.59 19916.5 -16868.7 -7.4112 
387 1 4.35724 7.30737 7.5 6.03194 -134779 -144101 -149016 4863.08 19056.9 -9247.5 -7.41101 
388 1 5.04886 6.06951 7.5 6.03194 -143850 -134257 -149242 -2602.43 14388.4 -15312.7 -7.41101 
389 1 4.32266 4.85162 7.5 6.03194 -134872 -141921 -153522 4396.69 11481.9 -9482.09 -7.41079 
390 1 5.01428 3.61376 7.5 6.03194 -140615 -135778 -152451 -3102.63 8813.79 -13766.6 -7.41085 
391 1 4.28808 2.39586 7.5 6.03194 -135693 -139791 -155693 3872.92 4769.92 -9756.42 -7.41069 
392 1 4.9797 1.158 7.5 6.03194 -138043 -137517 -154589 -3605.43 3149.5 -12356 -7.41075 
509 1 6.50128 8.5053 7.5 6.03194 -135380 -146450 -145145 7419.13 22376.9 -13523.7 -7.41119 
510 1 7.1929 7.26744 7.5 6.03194 -145736 -135166 -141585 -3168.34 18218.7 -22711.7 -7.4114 
511 1 6.4667 6.04955 7.5 6.03194 -135143 -144274 -150318 6818.88 14374.8 -14075 -7.41094 
512 1 7.15832 4.81169 7.5 6.03194 -142297 -136554 -146061 -3913.35 12606 -20779.3 -7.41118 
513 1 6.43211 3.59379 7.5 6.03194 -135606 -142105 -152947 6110.25 7154.77 -14636.6 -7.41081 
514 1 7.12374 2.35593 7.5 6.03194 -139471 -138181 -149601 -4683.3 6860.05 -18916 -7.411 
515 1 6.39753 1.13803 7.5 6.03194 -136765 -140017 -153439 5326.66 709.272 -15289 -7.41079 
632 1 9.33694 8.46537 7.5 6.03194 -147665 -136627 -130870 -3407.73 22226.3 -30449.3 -7.41196 
633 1 8.61073 7.24748 7.5 6.03194 -135682 -147060 -146625 9337.75 17272.3 -18573.7 -7.4111 
634 1 9.30236 6.00962 7.5 6.03194 -144108 -137873 -136754 -4378.41 16750.1 -28337.3 -7.41166 
635 1 8.57615 4.79172 7.5 6.03194 -135827 -144898 -149567 8491.06 9603.19 -19519.5 -7.41096 
636 1 9.26778 3.55386 7.5 6.03194 -141092 -139368 -141877 -5408.74 11003.6 -26161.1 -7.41139 
637 1 8.54157 2.33596 7.5 6.03194 -136635 -142774 -150155 7516.82 2664.8 -20498.9 -7.41094 
638 1 9.2332 1.0981 7.5 6.03194 -138679 -141093 -145893 -6449.17 5011.28 -24083.1 -7.41118 
755 1 10.7548 8.44541 7.5 6.03194 -136412 -150104 -142723 11850.4 19979 -22680.3 -7.41127 
756 1 11.4464 7.20755 7.5 6.03194 -145973 -139668 -124311 -4490.51 20980.5 -36038.9 -7.41231 
757 1 10.7202 5.98965 7.5 6.03194 -136303 -148027 -145814 10936.5 12016.9 -24162.1 -7.41113 
758 1 11.4118 4.75179 7.5 6.03194 -142851 -141025 -131114 -5758 15414.4 -33773.2 -7.41195 
759 1 10.6856 3.53389 7.5 6.03194 -136806 -145925 -146358 9821.43 4650.23 -25572.2 -7.41112 
760 1 11.3772 2.29603 7.5 6.03194 -140261 -142622 -137009 -7073.27 9499.71 -31444.1 -7.41163 
761 1 10.651 1.07814 7.5 6.03194 -137922 -143884 -144743 8562.44 -2066.45 -27004.5 -7.41122 
878 1 13.5904 8.40548 7.5 6.03194 -147799 -141819 -108722 -4275.15 24954.5 -43325.7 -7.41313 
879 1 12.8642 7.18758 7.5 6.03194 -136951 -151273 -141979 13323.7 14199.8 -28179.2 -7.4113 
880 1 13.5559 5.94972 7.5 6.03194 -144672 -143046 -117190 -5734.02 19817.3 -41239 -7.41268 
881 1 12.8296 4.73182 7.5 6.03194 -137222 -149287 -142330 12146.1 6557.42 -30159.9 -7.4113 
882 1 13.5213 3.49396 7.5 6.03194 -141985 -144507 -125014 -7292.86 14164.5 -38888.7 -7.41226 
883 1 12.7951 2.27607 7.5 6.03194 -138049 -147296 -140329 10749.6 -522.451 -32036.2 -7.41142 
884 1 13.4867 1.03821 7.5 6.03194 -139794 -146175 -131776 -8868.66 8086.8 -36431.6 -7.41189 
1001 1 15.0083 8.38551 7.5 6.03194 -137660 -154352 -138393 15497.3 15911 -31145.1 -7.41145 
1002 1 15.6999 7.14765 7.5 6.03194 -146468 -145279 -100214 -5370.46 23882.2 -47944.7 -7.41357 
1003 1 14.9737 5.92975 7.5 6.03194 -137788 -152602 -138391 14356.6 8200.84 -33825.1 -7.41147 
1004 1 15.6653 4.69189 7.5 6.03194 -143782 -146615 -109897 -7118.53 18728.4 -45830.2 -7.41305 
1005 1 14.9391 3.474 7.5 6.03194 -138408 -150761 -135875 12907.5 904.046 -36264.2 -7.41162 
1006 1 15.6307 2.23614 7.5 6.03194 -141498 -148147 -118815 -8936.91 13022.3 -43398 -7.41257 
1007 1 14.9045 1.01824 7.5 6.03193 -139513 -148918 -131227 11228.3 -5861.53 -38526.7 -7.41189 
1124 1 17.8439 8.34558 7.5 6.03194 -148141 -147533 -80547.2 -4737.42 27291 -53296.2 -7.41462 
1125 1 17.1177 7.12768 7.5 6.03194 -138390 -155566 -134892 16285.3 9374.32 -36157.7 -7.41163 
1126 1 17.8093 5.88982 7.5 6.03194 -145566 -148768 -91891.1 -6597.95 22882.2 -51649.7 -7.41401 
1127 1 17.0831 4.67193 7.5 6.03194 -138896 -154001 -131737 14890.9 2046.35 -39249.2 -7.41181 
1128 1 17.7748 3.43407 7.5 6.03194 -143282 -150175 -102840 -8593.3 17765.4 -49482.8 -7.41341 
1129 1 17.0486 2.21617 7.5 6.03194 -139820 -152346 -126290 13178.8 -4845.02 -42028.5 -7.41212 
1130 1 17.7402 0.97831 7.5 6.03194 -141336 -151711 -112906 -10605.5 12070.5 -46915.9 -7.41286 
1247 1 19.2618 8.32561 7.5 6.03194 -138905 -157874 -132177 17760.4 9913.63 -36883 -7.41175 
1249 1 19.2272 5.86986 7.5 6.03194 -139395 -156712 -128282 16532.6 2740.07 -40645.5 -7.41197 
1251 1 19.1926 3.4141 7.5 6.03194 -140237 -155363 -121953 14899.4 -4120.9 -43992.5 -7.41233 
1253 1 19.158 0.958344 7.5 6.03194 -141408 -153907 -113600 12951.3 -10508 -46936.4 -7.41279 
1248 1 19.9534 7.08775 7.5 6.03194 -147242 -150768 -71468.9 -5808.05 26346 -55814.8 -7.4151 
1250 1 19.9188 4.632 7.5 6.03194 -145065 -152075 -84198.1 -7895.91 22031.7 -54115.8 -7.4144 
1252 1 19.8842 2.17624 7.5 6.03194 -143112 -153484 -96446.7 -10064.6 17020.4 -51829.6 -7.41373 
1370 1 22.0974 8.28568 7.5 6.03194 -148716 -152422 -49305.6 -4850.34 28919.1 -57972.7 -7.41629 
1371 1 21.3712 7.06779 7.5 6.03194 -139778 -158617 -125845 17666.8 2878.16 -40290.5 -7.41208 
1372 1 22.0628 5.82993 7.5 6.03194 -146754 -153663 -63454.2 -6933.89 25580.9 -56869 -7.41552 
1373 1 21.3366 4.61203 7.5 6.03194 -140638 -157692 -118593 16226.3 -3809.35 -44179.8 -7.41249 
1374 1 22.0283 3.37417 7.5 6.03194 -144895 -154970 -77584.5 -9166.26 21427 -55038.7 -7.41474 
1375 1 21.3021 2.15627 7.5 6.03194 -141761 -156564 -109169 14389.5 -10094.7 -47586.5 -7.41301 
1376 1 21.9937 0.918413 7.5 6.03194 -143169 -156284 -91143.9 -11403.7 16589.3 -52558.6 -7.414 
1493 1 23.5153 8.26572 7.5 6.03194 -139941 -159521 -124673 18163.9 2447.06 -38245 -7.41214 
1494 1 24.2069 7.02786 7.5 6.03194 -148256 -154783 -41338.7 -5811.19 28255.4 -57522.9 -7.41671 
1495 1 23.4807 5.80996 7.5 6.03194 -140897 -159108 -116518 17011.5 -3962.45 -42563.1 -7.41259 
1496 1 24.1723 4.5721 7.5 6.03194 -146595 -156021 -56949.1 -8008.09 25088.5 -56247.8 -7.41586 
1497 1 23.4461 3.3542 7.5 6.03194 -142073 -158407 -106042 15396.9 -10051.2 -46372.8 -7.41316 
1498 1 24.1377 2.11634 7.5 6.03194 -144944 -157234 -72472.7 -10277.3 21146.6 -54216.8 -7.415 
1499 1 23.4115 0.898448 7.5 6.03194 -143405 -157476 -93713.8 13409.8 -15640.7 -49639.8 -7.41384 
1616 1 26.3509 8.22579 7.5 6.03194 -149490 -155337 -18672.1 -4637.24 29993.6 -56078.9 -7.41795 
1617 1 25.6247 7.00789 7.5 6.03194 -140916 -159492 -115924 17146 -4541.38 -39332.7 -7.41262 
1618 1 26.3163 5.77003 7.5 6.03194 -148123 -156536 -35294.4 -6701.8 27885.6 -55375.5 -7.41703 
1619 1 25.5901 4.55213 7.5 6.03194 -142221 -159286 -104487 15842.9 -10379.9 -43407.9 -7.41324 
1620 1 26.2818 3.31427 7.5 6.03194 -146648 -157681 -52344.9 -8901.97 24925.1 -53870.8 -7.4161 
1621 1 25.5556 2.09638 7.5 6.03194 -143641 -158774 -91027.9 14110.2 -15758.5 -46947.1 -7.41398 
1622 1 26.2472 0.858517 7.5 6.03194 -145079 -158697 -69216 -11085.9 21216.5 -51610.6 -7.41517 
1738 1 28.495 9.42372 7.5 6.03194 -150394 -155302 3716.04 -3506.48 30819.7 -52723.7 -7.41917 
1739 1 27.7688 8.20582 7.5 6.03194 -140634 -158851 -116859 16588.2 -5421.53 -34851.4 -7.41257 
1740 1 28.4604 6.96796 7.5 6.03194 -149398 -156482 -13422.9 -5355.1 29785.8 -52538.1 -7.41823 
1741 1 27.7342 5.75006 7.5 6.03194 -142111 -159163 -104633 15646.8 -10999.2 -38996.1 -7.41323 
1742 1 28.4258 4.5122 7.5 6.03194 -148193 -157589 -31508.9 -7392.88 27839.6 -51563.9 -7.41723 
1743 1 27.6996 3.29431 7.5 6.03194 -143694 -159114 -90196.2 14247 -16163.5 -42657.8 -7.41402 
1744 1 28.3912 2.05645 7.5 6.03194 -146773 -158548 -49937.6 -9479.04 25084.4 -49822.2 -7.41622 
1745 1 27.665 0.838551 7.5 6.03194 -145270 -158734 -74095.8 12463.8 -20738 -45779 -7.4149 
1861 1 29.9128 9.40375 7.5 6.03194 -140046 -157323 -119213 15365.1 -6421.43 -29573.2 -7.41246 
1862 1 30.6044 8.16589 7.5 6.03194 -150359 -155903 7886.46 -4065.07 30827.8 -47994.7 -7.4194 
1863 1 29.8782 6.94799 7.5 6.03194 -141691 -158125 -106453 14789.6 -11758.3 -33566.9 -7.41315 
1864 1 30.5698 5.71013 7.5 6.03194 -149500 -156993 -10727.3 -5861.58 29881.2 -47498.9 -7.41837 
1865 1 29.8436 4.49224 7.5 6.03194 -143475 -158546 -91273.5 13762.1 -16740.5 -37160.7 -7.41397 
1866 1 30.5353 3.25438 7.5 6.03194 -148322 -157923 -30205 -7760 28079.7 -46271.9 -7.4173 
1867 1 29.809 2.03648 7.5 6.03194 -145247 -158593 -74207.2 12331.2 -21150 -40290.7 -7.4149 
1868 1 30.5007 0.79862 7.5 6.03194 -146829 -158613 -49891.2 -9621.58 25487.3 -44346.3 -7.41622 
1984 1 32.7485 9.36382 7.5 6.03194 -150972 -154910 27938 -2903.92 31096 -42074.2 -7.4205 
1985 1 32.0222 8.14592 7.5 6.03194 -140966 -156372 -109765 13322.7 -12470.9 -27588.1 -7.41299 
1986 1 32.7139 6.90806 7.5 6.03194 -150505 -155993 9284.27 -4401.87 31099.2 -41972.1 -7.41947 
1987 1 31.9877 5.69017 7.5 6.03194 -142941 -157226 -94152.9 12661.1 -17321.9 -30916.2 -7.41383 
1988 1 32.6793 4.45231 7.5 6.03194 -149648 -156917 -10727.2 -6039.66 30213.6 -41211.6 -7.41837 
1989 1 31.9531 3.23441 7.5 6.03194 -144942 -157689 -76403.4 11608 -21634.8 -33876.6 -7.41479 
1990 1 32.6447 1.99655 7.5 6.03194 -148370 -157603 -31464.6 -7698.77 28500.7 -39807.6 -7.41724 
1991 1 31.9185 0.778655 7.5 6.03194 -146801 -157765 -57149.6 10216.1 -25242.3 -36416.1 -7.41583 
2107 1 34.1663 9.34385 7.5 6.03194 -139991 -154175 -114269 11349.7 -12954.4 -21485 -7.41277 
2108 1 34.8579 8.10599 7.5 6.03194 -151175 -154741 27901 -3089.75 31578.3 -35305.7 -7.4205 
2109 1 34.1317 6.8881 7.5 6.03194 -142104 -155394 -98586.4 11006.4 -17723 -24373.5 -7.41361 
2110 1 34.8233 5.65024 7.5 6.03194 -150687 -155674 7845.16 -4414.22 31544.5 -34940.3 -7.4194 
2111 1 34.0971 4.43234 7.5 6.03194 -144320 -156234 -80503.7 10315.2 -22014.9 -26991.5 -7.41458 
2112 1 34.7887 3.19448 7.5 6.03194 -149704 -156375 -13426.6 -5801.24 30658.4 -34012.6 -7.41823 
2113 1 34.0625 1.97658 7.5 6.03194 -146437 -156679 -60626 9304.13 -25616.2 -29291.4 -7.41565 
2114 1 34.7542 0.738724 7.5 6.03194 -148221 -156771 -35219.1 -7144.56 28944 -32553.1 -7.41704 
2230 1 37.0019 9.30392 7.5 6.03194 -151502 -153411 44612.2 -1975.52 31419.4 -27796.5 -7.42143 
2231 1 36.2757 8.08603 7.5 6.03194 -141026 -153332 -104224 8908.72 -17777 -17906.2 -7.41333 
2232 1 36.9674 6.84817 7.5 6.03194 -151401 -154358 24949.9 -2958.05 32159.4 -27747.4 -7.42035 
2233 1 36.2412 5.63027 7.5 6.03194 -143399 -154487 -86201.7 8525.76 -22110.5 -20038.9 -7.41429 
2234 1 36.9328 4.39241 7.5 6.03194 -150767 -155094 3631.4 -4024.71 32027.7 -27233.4 -7.41917 
2235 1 36.2066 3.17451 7.5 6.03194 -145755 -155258 -66075.7 7868.57 -25798 -21949.4 -7.41537 
2236 1 36.8982 1.93665 7.5 6.03194 -149556 -155541 -18690.5 -5095.46 31050.6 -26271.3 -7.41795 
2237 1 36.172 0.718758 7.5 6.03194 -147872 -155628 -44550 6967.27 -28680.6 -23607.5 -7.41654 
2353 1 38.4198 9.28396 7.5 6.03194 -139804 -151315 -110665 6498.88 -17358.7 -11782.7 -7.413 
2355 1 38.3852 6.8282 7.5 6.03194 -142245 -152717 -93107.6 6346.04 -21768.3 -13327.6 -7.41393 
2357 1 38.3506 4.37244 7.5 6.03194 -144778 -153761 -73146.1 5986.7 -25613.4 -14730.5 -7.41501 
2359 1 38.316 1.91669 7.5 6.03194 -147158 -154416 -51436.2 5433.01 -28682.8 -15971.6 -7.41618 
2354 1 39.1114 8.0461 7.5 6.03194 -151779 -153136 40125 -1726.84 32160.5 -19881 -7.42119 
2356 1 39.0768 5.59034 7.5 6.03194 -151515 -153917 19195.4 -2445.48 32700.4 -19710.7 -7.42003 
2358 1 39.0422 3.13458 7.5 6.03194 -150636 -154432 -3173.94 -3194.21 32385.1 -19186.6 -7.41881 
2360 1 39.0077 0.678827 7.5 6.03194 -149131 -154609 -26259.8 -3913.17 31209.1 -18337.1 -7.41755 
2476 1 41.2554 9.24403 7.5 6.03194 -151847 -152140 53005.7 -754.855 31661.3 -11545.2 -7.4219 
2477 1 40.5292 8.02613 7.5 6.03194 -140955 -151158 -100793 3897.72 -20878.4 -7063.7 -7.41354 
2478 1 41.2209 6.78827 7.5 6.03194 -151935 -152975 32833.6 -1122.42 32785.4 -11642.3 -7.42079 
2479 1 40.4947 5.57037 7.5 6.03194 -143573 -152421 -81418.7 3758.06 -24919.9 -7875.74 -7.41457 
2480 1 41.1863 4.33251 7.5 6.03194 -151412 -153572 10848.8 -1522.23 33046.5 -11487.3 -7.41958 
2481 1 40.4601 3.11462 7.5 6.03194 -146151 -153315 -59949.6 3492.46 -28251.8 -8599.46 -7.41573 
2482 1 41.1517 1.87676 7.5 6.03194 -150225 -153860 -12283.1 -1924.3 32446.5 -11096.5 -7.41832 
2483 1 40.4255 0.658862 7.5 6.03193 -148439 -153814 -37133.7 3110.92 -30721.9 -9234.37 -7.41696 
2599 1 42.6733 9.22406 7.5 6.03194 -139643 -149983 -108827 1299.93 -19374.1 -1372.93 -7.41312 
2600 1 43.3649 7.9862 7.5 6.03194 -152048 -152346 44192.3 -92.9252 32407.5 -3198 -7.42142 
2601 1 42.6387 6.7683 7.5 6.03194 -142233 -151419 -90446.8 1294.96 -23615.6 -1538.25 -7.41409 
2602 1 43.3303 5.53044 7.5 6.03194 -151866 -153039 22959.6 -139.288 33153.3 -3330.86 -7.42025 
2603 1 42.6041 4.31255 7.5 6.03194 -144914 -152509 -69654.2 1242.93 -27252.4 -1672.58 -7.41521 
2604 1 43.2957 3.07469 7.5 6.03194 -151025 -153452 208.747 -192.852 33041.8 -3325.19 -7.419 
2605 1 42.5695 1.85679 7.5 6.03194 -147421 -153220 -47130.1 1145.7 -30078.4 -1785.74 -7.41642 
2606 1 43.2612 0.618931 7.5 6.03194 -149510 -153519 -23325.9 -247.727 32050.6 -3202.4 -7.41772 
2722 1 45.5089 9.18413 7.5 6.03194 -151911 -152050 52988.8 623.83 31708.5 5450.47 -7.4219 
2723 1 44.7827 7.96623 7.5 6.03194 -140869 -150860 -99781.7 -1298.43 -21635.9 4183.93 -7.4136 
2724 1 45.4744 6.72837 7.5 6.03194 -152017 -152845 32803.1 910.888 32844.8 5129.17 -7.42079 
2725 1 44.7482 5.51048 7.5 6.03194 -143540 -152112 -80091.3 -1216.53 -25586.1 4691.78 -7.41465 
2726 1 45.4398 4.27262 7.5 6.03194 -151508 -153396 10800 1212.31 33124.8 4841.08 -7.41958 
2727 1 44.7136 3.05472 7.5 6.03194 -146169 -152997 -58307.7 -1101.03 -28814.4 5166.12 -7.41582 
2728 1 45.4052 1.81686 7.5 6.03194 -150329 -153635 -12354.2 1503.78 32539.6 4574.97 -7.41831 
2729 1 44.679 0.598965 7.5 6.03194 -148500 -153486 -35189.9 -959.816 -31175.5 5577.77 -7.41707 
2845 1 46.9268 9.16416 7.5 6.03194 -139585 -150778 -108982 -3925.91 -18943.4 9208.75 -7.4131 
2846 1 47.6184 7.9263 7.5 6.03194 -151920 -152936 40087.2 1610.45 32279.3 13710.1 -7.42119 
2847 1 46.8922 6.70841 7.5 6.03194 -142131 -152162 -90796.7 -3786.59 -23186.3 10403.1 -7.41407 
2848 1 47.5838 5.47055 7.5 6.03194 -151689 -153634 19128.2 2247.4 32849 13241.4 -7.42003 
2849 1 46.8576 4.25265 7.5 6.03194 -144770 -153191 -70199.6 -3532.6 -26832.6 11517 -7.41517 
2850 1 47.5492 3.01479 7.5 6.03194 -150835 -154056 -3279.36 2896.47 32566.2 12689.8 -7.4188 
2851 1 46.823 1.7969 7.5 6.03194 -147243 -153833 -47868.2 -3172.13 -29685.3 12512.8 -7.41638 
2852 1 47.5147 0.559034 7.5 6.03193 -149342 -154134 -26410.4 3508.85 31406.9 12043.8 -7.41754 
2968 1 49.7624 9.12423 7.5 6.03194 -151670 -153204 44588.1 1965.35 31626.1 22177.2 -7.42143 
2969 1 49.0362 7.90634 7.5 6.03194 -140786 -152630 -101305 -6377.35 -20009.8 15364.4 -7.4135 
2970 1 49.7279 6.66848 7.5 6.03194 -151625 -154046 24895.4 2891.43 32386.5 21660.4 -7.42034 
2971 1 49.0016 5.45058 7.5 6.03194 -143317 -153776 -82325.6 -6056.16 -24063.7 17162.5 -7.41451 
2972 1 49.6933 4.21272 7.5 6.03194 -151038 -154658 3532.31 3878.47 32296.3 20949.5 -7.41917 
2973 1 48.9671 2.99483 7.5 6.03194 -145821 -154536 -61248.2 -5548.12 -27433.2 18792.8 -7.41565 
2974 1 49.6587 1.75696 7.5 6.03194 -149860 -154967 -18847.1 4850.31 31352 20037.5 -7.41795 
2975 1 48.9325 0.539069 7.5 6.03194 -148059 -154893 -38809.9 -4879.83 -29979.4 20199.7 -7.41686 
3091 1 51.1803 9.10427 7.5 6.03194 -139591 -153438 -111147 -8900.46 -16032.3 19456.7 -7.41295 
3092 1 51.8719 7.86641 7.5 6.03194 -151411 -154472 27881.9 3157.52 31913.7 29817.6 -7.4205 
3093 1 51.1457 6.64851 7.5 6.03194 -141907 -154667 -94193.9 -8576.92 -20461.9 21975.5 -7.41386 
3094 1 51.8373 5.41065 7.5 6.03194 -150997 -155265 7787.37 4433.17 31910.5 29088.1 -7.4194 
3095 1 51.1111 4.19276 7.5 6.03194 -144325 -155515 -74829.6 -7989.52 -24349.6 24280.2 -7.4149 
3096 1 51.8027 2.95489 7.5 6.03194 -150074 -155807 -13541.7 5745.32 31064.9 28046.6 -7.41823 
3097 1 51.0765 1.737 7.5 6.03194 -146618 -155962 -53700.2 -7160.86 -27508.1 26308.8 -7.41604 
3098 1 51.7681 0.499138 7.5 6.03194 -148628 -156026 -35408.6 6996.44 29369 26689.3 -7.41703 
3214 1 54.0159 9.06434 7.5 6.03194 -151174 -154742 27962.7 3088.63 31590.8 37380.7 -7.4205 
3215 1 53.2897 7.84644 7.5 6.03194 -140622 -155754 -105301 -11001.7 -16006 25806.4 -7.41325 
3216 1 53.9813 6.60858 7.5 6.03194 -150809 -155690 9287.98 4577 31585.5 36771.5 -7.41947 
3217 1 53.2551 5.39069 7.5 6.03194 -142844 -156648 -88089.3 -10399.4 -20391.1 28808.5 -7.41417 
3218 1 53.9468 4.15282 7.5 6.03194 -150043 -156449 -10766.7 6175.23 30729.9 35744.4 -7.41837 
3219 1 53.2206 2.93493 7.5 6.03194 -145076 -157144 -68752.3 -9480.65 -24174.2 31488.5 -7.41521 
3220 1 53.9122 1.69707 7.5 6.03194 -148838 -156944 -31570.9 7764.99 29043.7 34293.6 -7.41723 
3221 1 53.186 0.479172 7.5 6.03194 -147120 -157236 -47975.5 -8295.26 -27218 33771.1 -7.41634 
3337 1 55.4338 9.04437 7.5 6.03194 -139530 -156913 -115140 -13231.1 -10707.9 28507.7 -7.4127 
3338 1 56.1254 7.80651 7.5 6.03194 -150604 -155756 7951.64 4366.41 31467.9 43629.2 -7.4194 
3339 1 55.3992 6.58862 7.5 6.03194 -141461 -157804 -100488 -12672.5 -15548 32199.9 -7.41348 
3340 1 56.0908 5.35075 7.5 6.03194 -149870 -156696 -10678.5 6168.03 30515.9 42746.4 -7.41837 
3341 1 55.3646 4.13286 7.5 6.03194 -143522 -158300 -83405 -11730.5 -19943.5 35533.3 -7.41441 
3342 1 56.0562 2.895 7.5 6.03194 -148802 -157442 -30199.6 8037.43 28734.3 41344.6 -7.4173 
3343 1 55.33 1.6771 7.5 6.03194 -145536 -158403 -64481.1 -10447.8 -23711.4 38430.1 -7.41543 
3344 1 56.0216 0.439241 7.5 6.03194 -147394 -157921 -49958 9841.15 26146.2 39424.6 -7.41622 
3461 1 57.5432 7.78655 7.5 6.03194 -140245 -158861 -111485 -14702.7 -9855.45 34302.5 -7.41288 
3463 1 57.5086 5.33079 7.5 6.03194 -142038 -159302 -97079.2 -13800.3 -14824.9 38249.1 -7.41365 
3465 1 57.4741 2.87503 7.5 6.03194 -143912 -159359 -80481.4 -12494.4 -19307 41736.8 -7.41455 
3467 1 57.4395 0.419276 7.5 6.03194 -145718 -159053 -62302.2 -10858.9 -23157.9 44684.5 -7.41554 
3460 1 58.2694 9.00444 7.5 6.03194 -150527 -155334 3822.23 3885.9 31649.9 49305.1 -7.41917 
3462 1 58.2348 6.54868 7.5 6.03194 -149684 -156396 -13298.3 5789.33 30549.4 48659.8 -7.41823 
3464 1 58.2003 4.09293 7.5 6.03194 -148628 -157346 -31391.7 7847.56 28595.9 47422.9 -7.41724 
3466 1 58.1657 1.63717 7.5 6.03194 -147337 -158111 -49859.5 9916.34 25845.4 45591.2 -7.41622 
3583 1 59.6873 8.98448 7.5 6.03194 -139251 -159727 -120567 -16381.5 -3404.76 35034.8 -7.41237 
3584 1 60.3789 7.74661 7.5 6.03194 -149632 -155465 -18506.3 5139.5 30892 53144.1 -7.41795 
3585 1 59.6527 6.52872 7.5 6.03194 -140697 -160050 -109205 -15575.1 -8883.53 39501.8 -7.41299 
3586 1 60.3443 5.29086 7.5 6.03194 -148447 -156550 -35093.2 7277.81 28729 52140.9 -7.41704 
3587 1 59.6181 4.07296 7.5 6.03194 -142333 -160004 -95356.1 -14314.9 -14038.8 43505.1 -7.41374 
3588 1 60.3097 2.8351 7.5 6.03194 -147145 -157539 -52137.7 9514.37 25759 50497.1 -7.4161 
3589 1 59.5835 1.61721 7.5 6.03194 -144035 -159617 -79539 -12665.2 -18683.8 46971.5 -7.4146 
3590 1 60.2751 0.379345 7.5 6.03194 -145724 -158363 -69038 11698.8 22040.8 48221.1 -7.41518 
3706 1 62.5229 8.94454 7.5 6.03194 -149852 -153894 -26051.8 4331.17 31532.6 55966.2 -7.41755 
3707 1 61.7967 7.72665 7.5 6.03194 -139557 -160483 -119258 -16949 -2247.75 39261.3 -7.41243 
3708 1 62.4883 6.48879 7.5 6.03194 -148406 -155035 -41103.2 6438.35 29163.5 55206.8 -7.41672 
3709 1 61.7621 5.27089 7.5 6.03194 -140874 -160277 -108510 -15795.9 -8005.08 43648.2 -7.41302 
3710 1 62.4538 4.03303 7.5 6.03194 -146956 -156169 -56657.8 8727.76 25958 53795.2 -7.41587 
3711 1 61.7276 2.81514 7.5 6.03194 -142374 -159750 -95462.5 -14209.8 -13391.4 47524.7 -7.41373 
3712 1 62.4192 1.57727 7.5 6.03194 -145501 -157238 -72156.6 11049.9 22007.8 51740.9 -7.41502 
3713 1 61.693 0.359379 7.5 6.03194 -143963 -158951 -80646.1 -12282.5 -18253.9 50826.1 -7.41455 
3829 1 63.9408 8.92458 7.5 6.03194 -138666 -160579 -126805 -17830.5 4893.72 37628 -7.41202 
3830 1 64.6324 7.68672 7.5 6.03194 -148639 -152865 -49095.5 5454.1 29858.1 56474.3 -7.4163 
3831 1 63.9062 6.46882 7.5 6.03194 -139599 -160166 -119418 -16834.4 -1370.48 42217.4 -7.41243 
3832 1 64.5978 5.23096 7.5 6.03194 -146912 -154058 -63142.6 7681.98 26439.7 55279.4 -7.41553 
3833 1 63.8716 4.01307 7.5 6.03194 -140815 -159452 -109461 -15378.1 -7413.77 46339.3 -7.41298 
3834 1 64.5632 2.7752 7.5 6.03194 -145289 -155279 -77192.6 10024.5 22270 53468 -7.41476 
3835 1 63.837 1.55731 7.5 6.03194 -142241 -158498 -97382.7 -13540.7 -13045 49952.7 -7.41364 
3836 1 64.5286 0.319448 7.5 6.03194 -143780 -156465 -90701.5 12337.2 17428.5 51064.3 -7.41401 
3952 1 66.7764 8.88465 7.5 6.03194 -149249 -150169 -58652.4 4438.02 30719.9 55957.6 -7.41579 
3953 1 66.0502 7.66675 7.5 6.03194 -138560 -159699 -127675 -17355.2 5647.15 39411.2 -7.41198 
3954 1 66.7418 6.42889 7.5 6.03194 -147142 -151342 -71205.8 6506.51 27138.4 54918 -7.41511 
3955 1 66.0156 5.211 7.5 6.03194 -139426 -158768 -121026 -16079.8 -947.704 43574.9 -7.41235 
3956 1 66.7073 3.97313 7.5 6.03194 -145229 -152622 -83806.4 8755.91 22793.2 53314.1 -7.41442 
3957 1 65.981 2.75524 7.5 6.03194 -140606 -157618 -111963 -14402.5 -7243.52 47311 -7.41286 
3958 1 66.6727 1.51738 7.5 6.03194 -143537 -153967 -95944.4 11052.5 17791.5 51183.3 -7.41375 
3959 1 65.9465 0.299482 7.5 6.03194 -142047 -156323 -100945 -12421.1 -13091 50595 -7.41347 
4075 1 68.1942 8.86468 7.5 6.03194 -137793 -158931 -133029 -17314.8 12803.2 35549.7 -7.4117 
4076 1 68.8859 7.62682 7.5 6.03194 -147745 -148211 -80393.4 5317.72 27953.7 52846.5 -7.41463 
4077 1 68.1597 6.40893 7.5 6.03194 -138262 -157774 -129795 -16254.2 5769.21 39543 -7.41189 
4078 1 68.8513 5.17106 7.5 6.03194 -145445 -149472 -91574.3 7379.73 23491.9 51379.8 -7.41402 
4079 1 68.1251 3.95317 7.5 6.03194 -139130 -156414 -123913 -14788.8 -1073.34 43187.4 -7.41222 
4080 1 68.8167 2.71531 7.5 6.03194 -143452 -150874 -102363 9551.49 18395 49470.7 -7.41343 
4081 1 68.0905 1.49741 7.5 6.03194 -140362 -154934 -115778 -13000.6 -7542.72 46498.5 -7.41268 
4082 1 68.7821 0.259551 7.5 6.03194 -141786 -152370 -112278 11713.2 12728.1 47167.4 -7.41288 
4198 1 71.0299 8.82475 7.5 6.03194 -148771 -144871 -90223.6 4199.96 28787.9 49322.2 -7.41411 
4199 1 70.3037 7.60686 7.5 6.03194 -137363 -156569 -135583 -15880.1 12493.9 34656 -7.41159 
4200 1 70.9953 6.36899 7.5 6.03194 -146025 -146056 -100034 6010.78 24266.8 47920 -7.41358 
4201 1 70.2691 5.1511 7.5 6.03194 -137868 -155006 -132935 -14655.9 5217.75 38005.8 -7.41175 
4202 1 70.9607 3.91324 7.5 6.03194 -143643 -147437 -109524 7971.58 19137.9 46160.3 -7.41307 
4203 1 70.2345 2.69534 7.5 6.03194 -138825 -153335 -127792 -13110.4 -1743.38 41127.9 -7.41204 
4204 1 70.9262 1.45748 7.5 6.03194 -141670 -148987 -118242 9979.41 13490 44114.6 -7.41259 
4205 1 70.2 0.239586 7.5 6.03194 -140209 -151642 -120568 -11330.1 -8272.48 44050 -7.41245 
4321 1 72.4477 8.80479 7.5 6.03194 -136758 -155254 -138393 -14976.2 19016.9 29351.9 -7.41145 
4322 1 73.1394 7.56692 7.5 6.03194 -147016 -142601 -108722 4726.92 25044 43274.1 -7.41313 
4323 1 72.4132 6.34903 7.5 6.03194 -136866 -153520 -138927 -14003.4 11400.5 32252.9 -7.41144 
4324 1 73.1048 5.11117 7.5 6.03194 -144191 -143908 -116981 6421.74 19927.9 41605.3 -7.41268 
4325 1 72.3786 3.89327 7.5 6.03194 -137495 -151678 -136775 -12724.1 4057.12 35000.9 -7.41157 
4326 1 73.0702 2.65541 7.5 6.03194 -141830 -145430 -124575 8201.77 14360.3 39745.7 -7.41227 
4327 1 72.344 1.43752 7.5 6.03194 -138635 -149823 -132308 -11209.8 -2866.99 37671.6 -7.41183 
4328 1 73.0356 0.199655 7.5 6.03194 -139965 -147136 -131084 9982.59 8351.14 37764 -7.41191 
4444 1 75.2834 8.76485 7.5 6.03194 -148418 -139300 -117190 3571.39 25805.4 37781.8 -7.41268 
4445 1 74.5572 7.54696 7.5 6.03194 -136153 -152070 -141979 -12863.2 17304 26387 -7.4113 
4446 1 75.2488 6.3091 7.5 6.03194 -145133 -140508 -124311 4976.11 20720.4 36189.1 -7.41231 
4447 1 74.5226 5.0912 7.5 6.03194 -136418 -150097 -142723 -11853.6 9652.25 28642.5 -7.41127 
4448 1 75.2142 3.85334 7.5 6.03194 -142338 -141955 -130870 6483.69 15256.8 34473.2 -7.41196 
4449 1 74.488 2.63545 7.5 6.03194 -137259 -148103 -140961 -10624.1 2433.05 30898.3 -7.41138 
4450 1 75.1797 1.39759 7.5 6.03194 -140090 -143627 -136485 8026.16 9451.11 32725.8 -7.41165 
4451 1 74.4535 0.17969 7.5 6.03194 -138665 -146173 -137088 -9240.69 -4303.6 33225.7 -7.41161 
4567 1 76.7012 8.74489 7.5 6.03194 -135752 -150757 -142330 -11297.5 22840.5 20758.9 -7.4113 
4568 1 77.3929 7.50703 7.5 6.03194 -146468 -137407 -131114 3669.67 21541.2 30235.9 -7.41195 
4569 1 76.6667 6.28913 7.5 6.03194 -135625 -148705 -145814 -10544.7 14916.5 22488 -7.41113 
4570 1 77.3583 5.05127 7.5 6.03194 -143224 -138758 -136754 4888.97 16165.8 28674.7 -7.41166 
4571 1 76.6321 3.83338 7.5 6.03194 -136129 -146613 -146625 -9595.93 7449.1 24245.1 -7.4111 
4572 1 77.3237 2.59552 7.5 6.03194 -140553 -140350 -141585 6161.01 10559.6 27133.8 -7.4114 
4573 1 76.5975 1.37762 7.5 6.03194 -137257 -144573 -145145 -8503.04 523.481 26140.8 -7.41119 
4574 1 77.2891 0.139759 7.5 6.03194 -138493 -142157 -145251 7436.89 4650.44 25682.6 -7.4112 
4690 1 79.5369 8.70496 7.5 6.03194 -148158 -134725 -137009 2514.51 22481.5 23949 -7.41163 
4691 1 78.8107 7.48706 7.5 6.03194 -135140 -147592 -146358 -8858.87 19821.1 16813.3 -7.41112 
4692 1 79.5023 6.2492 7.5 6.03194 -144484 -135977 -141877 3450.82 17154.3 22610 -7.41139 
4693 1 78.7761 5.03131 7.5 6.03194 -135277 -145448 -149567 -8173.15 12102.8 18076.4 -7.41096 
4694 1 79.4677 3.79345 7.5 6.03194 -141379 -137472 -146061 4443.47 11692.4 21306.8 -7.41118 
4695 1 78.7415 2.57555 7.5 6.03194 -136087 -143331 -150318 -7363.1 5001.9 19486.5 -7.41094 
4696 1 79.4332 1.33769 7.5 6.03194 -138910 -139198 -149242 5455.32 6067.01 20117 -7.41101 
4697 1 78.7069 0.119793 7.5 6.03194 -137559 -141316 -149016 -6470.62 -1519.88 21127.5 -7.41101 
4813 1 80.9547 8.68499 7.5 6.03194 -134980 -146832 -144743 -6865.93 24419.8 11712.6 -7.41122 
4814 1 81.6464 7.44713 7.5 6.03194 -146080 -133697 -145893 2178.85 18350.9 16381.4 -7.41118 
4815 1 80.9202 6.22924 7.5 6.03194 -134730 -144679 -150155 -6417.45 16420.2 12557.2 -7.41094 
4816 1 81.6118 4.99138 7.5 6.03194 -142560 -135092 -149601 2899.65 12951.7 15399 -7.411 
4817 1 80.8856 3.77348 7.5 6.03194 -135189 -142522 -152947 -5869.39 9098.29 13514.5 -7.41081 
4818 1 81.5772 2.53562 7.5 6.03194 -139674 -136719 -152451 3645.23 7515.36 14516.3 -7.41085 
4819 1 80.851 1.31772 7.5 6.03194 -136351 -140441 -153522 -5251.01 2470.78 14684.7 -7.41079 
4820 1 81.5426 0.079862 7.5 6.03194 -137465 -138554 -154134 4393.99 1893 13773.2 -7.41077 
4936 1 83.7904 8.64506 7.5 6.03194 -147955 -131967 -148440 1079.52 19899.7 9950.25 -7.41103 
4937 1 83.0642 7.42717 7.5 6.03194 -134506 -144361 -148798 -4386.03 20503.8 7662.74 -7.41103 
4938 1 83.7558 6.18931 7.5 6.03194 -144061 -133264 -151882 1543.85 14493.5 9392.14 -7.41087 
4939 1 83.0296 4.97141 7.5 6.03194 -134593 -142195 -153439 -4073.97 12886 8258.74 -7.41079 
4940 1 83.7212 3.73355 7.5 6.03194 -140777 -134789 -154589 2030.07 9125.82 8905.53 -7.41075 
4941 1 82.995 2.51565 7.5 6.03194 -135412 -140071 -155693 -3711.15 6064.35 9009.08 -7.41069 
4942 1 83.6867 1.27779 7.5 6.03194 -138171 -136530 -156287 2523.53 3720.19 8513.89 -7.41066 
4943 1 82.9604 0.0598965 7.5 6.03194 -136949 -138055 -155981 -3317.17 -78.8759 9971.52 -7.41068 
5040 1 85.2082 8.6251 7.5 6.03194 -134613 -144543 -145901 -2130.94 24480.1 3240.55 -7.41118 
5041 1 85.8999 7.38724 7.5 6.03194 -145823 -132016 -152539 386.008 16470 3146.05 -7.41083 
5042 1 85.1736 6.16934 7.5 6.03194 -134317 -142385 -152211 -2026.04 16504.1 3579.17 -7.41086 
5043 1 85.8653 4.93148 7.5 6.03194 -142179 -133437 -155329 623.668 11070.8 3148.86 -7.4107 
5044 1 85.1391 3.71358 7.5 6.03194 -134771 -140237 -155954 -1895.21 9372.2 4004.89 -7.41068 
5045 1 85.8307 2.47572 7.5 6.03194 -139194 -135077 -157242 867.6 5731.65 3197.38 -7.41062 
5046 1 85.1045 1.25783 7.5 6.03194 -135965 -138169 -157553 -1746.05 3051.55 4564.01 -7.4106 
5047 1 85.7961 0.0199655 7.5 6.03194 -136917 -136912 -157994 1114.71 266.697 3275.31 -7.41058 
5048 1 87.2139 0 7.5 6.03193 -136841 -136836 -158245 -2.37407 0.0028689 0.0126414 -7.41057 
131 1 0.968275 18.4082 7.5 6.03194 -165508 -128251 -136512 -602.122 36038.4 -4503.19 -7.41154 