ITEM: TIMESTEP
97
ITEM: NUMBER OF ATOMS
10088
ITEM: BOX BOUNDS pp pp pp
0.0000000000000000e+00 8.7213939900000000e+01
0.0000000000000000e+00 1.5105897500000000e+02
0.0000000000000000e+00 1.8399999999999999e+01
ITEM: ATOMS id type x y z c_csym c_2[1] c_2[2] c_2[3] c_2[4] c_2[5] c_2[6] c_3 
139 1 0.888145 8.57857 7.38769 6.01753 -166251 -146021 -3859.02 -18087.2 12806.8 -3235.2 -7.41381 
140 1 0.154588 7.36538 7.38424 6.02405 -151858 -160533 2756.36 -12557.7 14808.8 -1466.37 -7.41401 
141 1 0.837995 6.1231 7.38143 6.02252 -162560 -149209 -1196.52 -8765.01 8795.54 -2707.2 -7.41372 
142 1 0.103765 4.91027 7.37905 6.02663 -152783 -158966 1064.1 -5194.39 8668.5 -978.332 -7.41374 
143 1 0.786709 3.66777 7.37736 6.02601 -159384 -151916 72.2089 -3126.87 5029.89 -2036.77 -7.41363 
144 1 0.0520782 2.45515 7.37604 6.02872 -153939 -157128 502.197 -1231.42 3814.02 -500.448 -7.4136 
145 1 0.734798 1.21254 7.37539 6.02899 -156726 -154292 436.745 -674.92 1585.23 -1337.73 -7.41358 
263 1 2.30567 8.54861 7.38846 6.01951 -160290 -152565 3215.58 -15013.7 17900.2 -4256.13 -7.4142 
264 1 2.98913 7.30629 7.38561 6.01972 -171652 -140499 -1101.6 -12540 10857.6 -7952.33 -7.41387 
265 1 2.2555 6.09311 7.38214 6.02299 -158016 -153994 1049.36 -5760.61 11159.5 -3873.24 -7.41385 
266 1 2.93847 4.85058 7.38041 6.02362 -165534 -146190 337.93 -5232.4 6927.58 -6630.3 -7.41375 
267 1 2.2042 3.63774 7.37803 6.02578 -156552 -154809 283.419 -327.389 5592.16 -3496.63 -7.41367 
268 1 2.88693 2.39512 7.37737 6.02704 -160171 -151089 655.483 -1391.74 3254.09 -5316.88 -7.41366 
269 1 2.15228 1.18249 7.37604 6.02769 -155789 -155424 307.548 2132.11 1247.66 -3203.17 -7.4136 
386 1 5.13936 8.49032 7.39196 6.01667 -184111 -128763 512.25 -15095.5 13313.1 -14017.7 -7.41417 
387 1 4.4066 7.27662 7.38738 6.01676 -166504 -146173 -199.093 -5124.57 13984.8 -6810.42 -7.41399 
388 1 5.08962 6.03406 7.38564 6.02076 -174763 -137536 1787.03 -5856.52 9445.34 -12213.1 -7.41401 
389 1 4.35594 4.82085 7.38212 6.02137 -161943 -149944 -885.953 2099.12 7713.87 -6646.64 -7.41376 
390 1 5.03871 3.57821 7.38145 6.02462 -166582 -145498 1708.83 -507.145 5565.9 -10327.8 -7.41386 
391 1 4.30441 2.36535 7.37904 6.02437 -158371 -153133 -489.081 5766.84 2614.52 -6538.26 -7.41367 
392 1 4.98713 1.12273 7.37939 6.02553 -159141 -152611 807.284 1741.42 1792.46 -8625.37 -7.41374 
509 1 6.55679 8.46129 7.39472 6.00893 -178338 -134743 -3135.53 -2919.69 16864.9 -9559.11 -7.41412 
510 1 7.23987 7.21868 7.39304 6.01668 -187381 -125608 4968.35 -4758.63 12286.2 -18586.9 -7.41444 
511 1 6.50706 6.00493 7.3884 6.01503 -170531 -141947 -3489.99 6217.95 10122.5 -9884.1 -7.41386 
512 1 7.18986 4.76226 7.38776 6.02175 -176000 -136788 4198.02 2364.59 8441.13 -16372.4 -7.41421 
513 1 6.45615 3.549 7.3842 6.01978 -163971 -148057 -2453.85 11405.7 4267.17 -10122.6 -7.41376 
514 1 7.13891 2.30638 7.38459 6.02274 -165474 -146873 2346.16 5884.48 4505.87 -14190.7 -7.41401 
515 1 6.40459 1.09347 7.38212 6.022 -158271 -153654 -652.912 13539.5 -584.17 -10480.1 -7.41377 
632 1 9.38891 8.40496 7.40226 6.00942 -202723 -110493 10245.4 -1645.98 15017.9 -25131.4 -7.41506 
633 1 8.65725 7.19046 7.39672 6.00731 -182564 -130409 -7923.6 12203.2 12495 -12799.4 -7.41394 
634 1 9.34011 5.94776 7.39616 6.0162 -188565 -124655 8605.82 7513.64 11562.1 -22952.1 -7.41475 
635 1 8.60727 4.73393 7.39153 6.01426 -172702 -139769 -6036.55 19359.1 6101.17 -13649.1 -7.41384 
636 1 9.29007 3.49129 7.39198 6.0196 -175085 -138124 5562.61 12595.7 7709.52 -20568.9 -7.41445 
637 1 8.55634 2.27796 7.38841 6.018 -163841 -148532 -3044.84 22796.6 524.625 -14442.7 -7.41387 
638 1 9.23931 1.03549 7.38986 6.01605 -162132 -150919 1723.82 14434.7 3633.26 -18253.7 -7.41418 
755 1 10.8062 8.37796 7.40656 5.9989 -197283 -115781 -14410.3 19825.4 14404.2 -14903.1 -7.41393 
756 1 11.4892 7.13525 7.40615 6.00916 -203537 -109793 15162 14676.7 14518 -29255.6 -7.41549 
757 1 10.7575 5.92065 7.40072 6.00708 -184705 -128340 -11565.9 29261.8 7807.91 -16582.9 -7.41387 
758 1 11.4403 4.67802 7.40124 6.01556 -187400 -126148 10844.4 21871.2 11082.9 -27019.1 -7.41508 
759 1 10.7075 3.46408 7.39672 6.01314 -172746 -140185 -7232.01 34622.1 1706.2 -18021.6 -7.41395 
760 1 11.3905 2.22163 7.3982 6.01143 -171560 -142166 5358.88 25160.5 7212.54 -24579.3 -7.41469 
761 1 10.6568 1.00821 7.39472 6.01499 -161358 -151689 -2078.4 36367.2 -3690.78 -19391.7 -7.41414 
878 1 13.6369 8.32513 7.41695 6.00139 -219363 -92824.6 23749.6 23450.9 16956.2 -34465.9 -7.4164 
879 1 12.9065 7.10963 7.4111 5.9995 -198873 -114052 -19142.8 40629.3 9050.4 -18457.4 -7.41381 
880 1 13.5895 5.86702 7.41171 6.00891 -201772 -111658 18273.3 33067.3 14249.9 -32670.5 -7.4159 
881 1 12.8577 4.65232 7.40655 6.00787 -184337 -128883 -13469.9 48338.9 2717.89 -20658.5 -7.41395 
882 1 13.5408 3.40992 7.40804 6.00703 -183597 -130303 11169.3 38439.3 10873.7 -30421.3 -7.41538 
883 1 12.8079 2.19587 7.40377 6.01133 -170025 -143269 -6541.07 51965.2 -3108.7 -22609.8 -7.41421 
884 1 13.4914 0.953776 7.40614 6.00197 -165248 -148852 3147.1 39950.1 7008.09 -27901.2 -7.41488 
1001 1 15.0541 8.30117 7.42182 5.99237 -214002 -98467.6 -28542.8 52239.4 9620.38 -19086.5 -7.41364 
1002 1 15.7373 7.05866 7.42254 6.00173 -216445 -95827.7 27567.3 45289.1 16906.3 -36827.6 -7.41687 
1003 1 15.0068 5.84307 7.41711 6.00189 -197934 -115421 -21730.2 62911.1 3341.34 -22000.1 -7.41385 
1004 1 15.6901 4.60075 7.41858 6.00221 -197143 -116363 19091.9 53241.6 14277 -35003.9 -7.41624 
1005 1 14.9582 3.38595 7.41386 6.00803 -181357 -132279 -13158.4 69021.9 -2680.43 -24557.4 -7.41419 
1006 1 15.6418 2.14393 7.41609 5.99674 -177091 -137195 9184.31 56798.2 11000.8 -32685.6 -7.4156 
1007 1 14.9088 0.929773 7.41225 6.0051 -164591 -149102 -3587.19 70778.6 -8154.52 -26831.5 -7.41465 
1124 1 17.8838 8.25309 7.43292 5.9948 -229928 -79920.8 38144.2 57347.6 18873.8 -39156.4 -7.41793 
1125 1 17.1546 7.03656 7.42756 5.99598 -211663 -100950 -31637 77087.8 3493.04 -22012.1 -7.41364 
1126 1 17.8381 5.79438 7.42899 5.99653 -210663 -101531 28716.6 68318.6 17159.3 -37854.8 -7.41722 
1127 1 17.1074 4.57872 7.42416 6.00469 -194039 -119544 -21771 86151.3 -2506.31 -25059.6 -7.41406 
1128 1 17.7913 3.33684 7.42622 5.99235 -189999 -123675 17301.7 74515.2 14652.2 -35926.9 -7.41646 
1129 1 17.0592 2.12193 7.4221 6.00069 -175679 -138208 -10349.1 90403.1 -8106.01 -27750.4 -7.41462 
1130 1 17.7436 0.880455 7.42476 5.98633 -168304 -146152 4701.98 76107.5 11480.6 -33466 -7.41569 
1247 1 19.301 8.23285 7.43722 5.99129 -224188 -86999.4 -42542.8 89615.3 3227.25 -20924.2 -7.41334 
1249 1 19.2554 5.77433 7.43392 6.00113 -206529 -106322 -31877.9 102071 -2584.51 -24250.1 -7.41382 
1251 1 19.2085 3.31691 7.43167 5.99716 -187673 -125987 -19086.5 109215 -8169 -27215.2 -7.41445 
1253 1 19.161 0.860578 7.43062 5.99014 -167813 -145795 -5018.45 111287 -13188.5 -29827.5 -7.41521 
1248 1 19.9849 6.99087 7.43861 5.9916 -222584 -87134.8 39392.1 82471.7 19371.2 -38879.8 -7.41826 
1250 1 19.9396 4.53262 7.43579 5.98786 -202690 -109745 26997.6 91706.6 17737.1 -37408.3 -7.41741 
1252 1 19.8932 2.07558 7.43402 5.98184 -181013 -132730 12829.8 95894.1 15342.2 -35321.1 -7.41651 
1370 1 22.1305 8.19011 7.44706 5.98765 -231624 -74336.1 50419.3 94510.4 20868.8 -38286.7 -7.41929 
1371 1 21.4021 6.97272 7.44263 5.99669 -217295 -93873.2 -42780 115511 -2833.62 -22456.6 -7.41348 
1372 1 22.0867 5.73125 7.44434 5.98286 -213475 -96504.7 37601.7 107091 20138.3 -37235.1 -7.4184 
1373 1 21.3568 4.51472 7.44039 5.99462 -199213 -113689 -29209.6 125989 -8298.2 -25505.5 -7.41417 
1374 1 22.0418 3.27358 7.44244 5.97857 -193096 -119307 22473.5 114301 18566.5 -35568.2 -7.41741 
1375 1 21.3105 2.05782 7.4391 5.98618 -179600 -133785 -13759.3 130939 -13314.3 -28222.9 -7.41501 
1376 1 21.9961 0.817122 7.44145 5.97237 -170973 -142595 5901.42 116261 16203.4 -33334.9 -7.41638 
1493 1 23.5477 8.1737 7.4501 5.99281 -225170 -83268.2 -53786.1 125719 -3145.4 -20052.7 -7.4131 
1494 1 24.2328 6.93252 7.45166 5.97902 -221209 -85064.5 48454.2 119713 21831 -35709.8 -7.41937 
1495 1 23.5039 5.71521 7.44794 5.99174 -208736 -102505 -40009.1 139672 -8415.91 -23007.4 -7.41381 
1496 1 24.1893 4.47432 7.44973 5.97511 -203201 -106905 32967.9 130273 21075.7 -34433.2 -7.41833 
1497 1 23.459 3.25781 7.44655 5.98335 -190414 -122002 -23823.9 147833 -13381.3 -25676.2 -7.41469 
1498 1 24.1449 2.01729 7.44855 5.96938 -182941 -129286 15476.5 135142 19482.4 -32613.7 -7.41721 
1499 1 23.4134 0.801473 7.446 5.97572 -170581 -141869 -6131.2 150201 -17695.9 -28055 -7.41569 
1616 1 26.3779 8.13616 7.45778 5.97639 -225413 -76368.4 59033.6 129010 22855.6 -33189.9 -7.4203 
1617 1 25.65 6.91815 7.45428 5.98862 -215211 -93353.8 -50848.8 149621 -8449.82 -20086.6 -7.41341 
1618 1 26.3358 5.67755 7.45587 5.9715 -210392 -96514.8 43698.3 142921 22874.9 -32238 -7.41923 
1619 1 25.6065 4.46034 7.45285 5.98155 -199183 -111709 -34524.3 161180 -13327.8 -22580.4 -7.41429 
1620 1 26.2927 3.22005 7.45456 5.96754 -192812 -117395 25902.2 151065 22021.5 -30804.6 -7.41807 
1621 1 25.5622 2.00354 7.45212 5.9729 -181303 -130396 -16134 166724 -17670.7 -24835.7 -7.41533 
1622 1 26.2489 0.763652 7.45391 5.96194 -173019 -138689 6535.05 153486 20287 -28925.5 -7.41686 
1738 1 28.5221 9.34181 7.46283 5.97491 -225676 -70630.8 68998.3 134744 23287.5 -29991.2 -7.42115 
1739 1 27.795 8.12321 7.4595 5.98655 -218162 -86802 -61268.1 155711 -8349.91 -17023.7 -7.41299 
1740 1 28.4815 6.88295 7.46094 5.96911 -213925 -88805.2 54196.2 151879 24022.1 -29295.7 -7.4201 
1741 1 27.753 5.66511 7.45805 5.98049 -204990 -103644 -45279.7 170588 -13106.5 -19258.4 -7.41385 
1742 1 28.4397 4.42509 7.45954 5.96525 -199706 -107690 36606 163429 23857.8 -28197.6 -7.41891 
1743 1 27.7099 3.20794 7.45719 5.97114 -189723 -120588 -26786.1 179459 -17471 -21303.7 -7.41489 
1744 1 28.397 1.96824 7.4587 5.96001 -183060 -127046 16947.1 168986 22805.1 -26707.9 -7.41765 
1745 1 27.6662 0.751717 7.45697 5.96375 -172604 -137819 -6697.27 182160 -21116.8 -23161.9 -7.41606 
1861 1 29.9393 9.33002 7.46378 5.98548 -217451 -83413.2 -70988.3 158033 -8091.63 -14004.9 -7.41259 
1862 1 30.6264 8.09014 7.46511 5.9679 -213783 -84199.7 64154.5 157179 24596.4 -25855.9 -7.42091 
1863 1 29.8987 6.87178 7.46229 5.97848 -207225 -98227.5 -55681.4 176012 -12690.5 -15935 -7.4134 
1864 1 30.5858 5.63206 7.46362 5.96313 -203206 -100735 47156.1 171936 25066.1 -25041.1 -7.41973 
1865 1 29.8569 4.41438 7.46132 5.97026 -195167 -113231 -37556.9 188184 -17061 -17718.7 -7.41441 
1866 1 30.5443 3.17489 7.46263 5.95838 -190119 -117824 27701.7 180826 24642.1 -23896.8 -7.41845 
1867 1 29.8142 1.95781 7.46091 5.96217 -181191 -128484 -17346.1 194220 -20832.4 -19358 -7.41557 
1868 1 30.5021 0.718639 7.46216 5.95388 -174387 -135143 6676.2 183799 23290.9 -22453.4 -7.41713 
1984 1 32.7707 9.29874 7.46855 5.96776 -209580 -82610.8 73398.9 158768 24677.7 -22093.4 -7.42167 
1985 1 32.0436 8.07999 7.46577 5.97752 -205844 -95663.9 -65477.5 177575 -12072.5 -12747.5 -7.41297 
1986 1 32.7314 6.8406 7.46698 5.96213 -202663 -96666.9 57265.3 176613 25731.2 -21518.3 -7.42051 
1987 1 32.0031 5.62247 7.46467 5.97009 -197214 -108551 -48071 192965 -16421.1 -14244.4 -7.41392 
1988 1 32.6909 4.38324 7.46583 5.95695 -193612 -111351 38398.6 188834 25882.7 -20676.8 -7.41923 
1989 1 31.9615 3.16568 7.46408 5.96143 -186686 -121558 -28199.8 202308 -20316.6 -15632.6 -7.41505 
1990 1 32.6496 1.92668 7.46516 5.95249 -181779 -126249 17507 195034 25122.3 -19579.5 -7.41788 
1991 1 31.9194 0.709608 7.46402 5.95496 -173889 -134498 -6758.95 205364 -23456.9 -16919.6 -7.41631 
2107 1 34.188 9.28935 7.46863 5.97756 -200641 -96051.7 -74529.2 175549 -11259.1 -9768.44 -7.41257 
2108 1 34.8765 8.05033 7.46976 5.96223 -198468 -95615.2 66758.5 177621 25929 -17749.5 -7.42124 
2109 1 34.1486 6.83187 7.46741 5.97045 -195374 -106727 -58087.3 193927 -15546.8 -10971.9 -7.41344 
2110 1 34.837 5.59292 7.46846 5.95608 -193497 -107904 48761.9 192953 26612.3 -17174.4 -7.41998 
2111 1 34.1081 4.37499 7.46664 5.96138 -188664 -117469 -38905.8 206419 -19548.7 -12095.3 -7.41451 
2112 1 34.7965 3.13618 7.46758 5.95147 -185590 -120073 28381.1 202519 26393 -16386.8 -7.41863 
2113 1 34.0668 1.91871 7.46636 5.9544 -179630 -127888 -17705.7 212878 -22913.5 -13142.8 -7.41574 
2114 1 34.7555 0.680097 7.46717 5.94842 -175006 -132420 6491.79 205955 25232.9 -15409.9 -7.41725 
2230 1 37.0212 9.26088 7.47208 5.9631 -190290 -97589.1 75532.2 175051 25721 -13804.4 -7.42192 
2231 1 36.2937 8.04219 7.46966 5.97049 -190000 -107687 -67455.9 191201 -14445.6 -7943.7 -7.41299 
2232 1 36.9827 6.80355 7.47063 5.9558 -189001 -107176 58609.3 193393 26906.2 -13467 -7.4207 
2233 1 36.2542 5.58537 7.46871 5.96186 -187042 -116153 -49224.4 206870 -18520.6 -8798.76 -7.41399 
2234 1 36.943 4.34678 7.46956 5.95075 -185510 -116982 39032.7 206177 27185.7 -12958.9 -7.41937 
2235 1 36.2138 3.12901 7.4682 5.9545 -181830 -124168 -28617.8 216524 -22103 -9598.44 -7.41516 
2236 1 36.9026 1.89053 7.46891 5.9478 -179212 -126608 17510.6 212940 26545.9 -12285.8 -7.41798 
2237 1 36.1728 0.673096 7.46817 5.94926 -174375 -132181 -6512.15 220115 -24910.2 -10352.8 -7.41646 
2353 1 38.4386 9.25308 7.47153 5.97081 -180904 -111706 -76081.5 185056 -13132 -5174.14 -7.41258 
2355 1 38.4 6.79644 7.4704 5.96195 -181276 -117625 -58996.5 203578 -17232.6 -5762.23 -7.41349 
2357 1 38.3603 4.34014 7.46967 5.95504 -180137 -123294 -39258 216457 -21009.7 -6311.82 -7.41459 
2359 1 38.3199 1.88416 7.46939 5.94949 -176894 -128912 -17581.5 223347 -24123.2 -6827.9 -7.41584 
2354 1 39.1281 8.01478 7.47244 5.9561 -181221 -109584 67818.9 190248 26817.6 -9595.07 -7.42138 
2356 1 39.0892 5.5581 7.47118 5.95052 -181601 -116611 49274.9 206113 27569.3 -9340.69 -7.42008 
2358 1 39.0494 3.10181 7.4703 5.94714 -179615 -123849 28423.1 216120 27410.2 -8947 -7.4187 
2360 1 39.0091 0.64592 7.46986 5.94585 -174751 -130983 6129.94 220262 26312.4 -8431.7 -7.4173 
2476 1 41.2735 9.22623 7.47393 5.95695 -169596 -114810 76289.9 183605 26387.2 -5572.89 -7.42201 
2477 1 40.5455 8.00784 7.47178 5.96244 -172407 -122124 -68096.5 196828 -15693.3 -2988.62 -7.41303 
2478 1 41.2353 6.76978 7.4725 5.95092 -173854 -119415 58961.1 202415 27596.3 -5551.27 -7.42076 
2479 1 40.5066 5.55174 7.47084 5.95521 -174851 -125367 -49450.6 212737 -19625.4 -3286.26 -7.41404 
2480 1 41.1961 4.3136 7.4714 5.94701 -175927 -123931 39034.1 215682 27890.4 -5416.11 -7.4194 
2481 1 40.4667 3.09582 7.47031 5.95006 -175632 -128535 -28497.1 222936 -23035.4 -3560.6 -7.41523 
2482 1 41.1561 1.85768 7.4707 5.94541 -175690 -128706 17222.2 223079 27260.5 -5171.89 -7.418 
2483 1 40.4264 0.640096 7.47024 5.94634 -173977 -131340 -6112.57 226912 -25650.7 -3824.37 -7.41655 
2599 1 42.691 9.21922 7.47288 5.9634 -159901 -129522 -76421.4 186713 -13913 -477.72 -7.41261 
2600 1 43.3814 7.98147 7.47355 5.95185 -162505 -125101 67963.4 195227 27300.5 -1592.49 -7.42139 
2601 1 42.6527 6.76344 7.47174 5.95586 -165818 -130403 -59050.6 205481 -17946 -517.782 -7.41353 
2602 1 43.3427 5.52553 7.47225 5.94744 -168685 -127069 49181.5 211558 28033.2 -1697.1 -7.42008 
2603 1 42.6134 4.30773 7.47098 5.95032 -170385 -131054 -39074.7 218835 -21626.8 -545.99 -7.41464 
2604 1 43.303 3.06972 7.47131 5.94531 -172597 -129286 28128.8 222201 27844.1 -1707.55 -7.41869 
2605 1 42.5734 1.85208 7.47064 5.94692 -173192 -131570 -17211.6 226128 -24617.6 -567.908 -7.41591 
2606 1 43.2629 0.614026 7.47078 5.9454 -173520 -131109 5682.5 226882 26716.8 -1638.33 -7.41728 
2722 1 45.5277 9.19279 7.47431 5.95338 -147988 -133915 76137.8 184651 26703.9 2538.88 -7.42198 
2723 1 44.7989 7.9749 7.4724 5.95701 -153501 -138564 -67916.6 194802 -15972 1993.25 -7.41306 
2724 1 45.4894 6.73722 7.47285 5.94849 -157687 -133435 58702.1 203836 27872.9 2215.63 -7.42073 
2725 1 44.7601 5.51953 7.47141 5.9511 -161832 -136855 -49141.2 211094 -19880 2221.82 -7.41408 
2726 1 45.45 4.28166 7.47168 5.94582 -165742 -132941 38669.8 217734 28106.7 1965.69 -7.41937 
2727 1 44.7204 3.06408 7.47081 5.94727 -168462 -134635 -28087.5 221702 -23237.5 2450.48 -7.41527 
2728 1 45.41 1.82609 7.4709 5.9448 -171075 -132221 16775.9 225664 27407 1788.14 -7.41796 
2729 1 44.6802 0.608543 7.47065 5.94568 -172655 -132192 -5641.67 226234 -25773.4 2666.06 -7.4166 
2845 1 46.9453 9.18574 7.47277 5.95868 -138137 -149612 -75890.1 180890 -13705.5 4233.93 -7.41264 
2846 1 47.6363 7.94835 7.47316 5.95008 -143312 -142628 67412.9 192768 27428.7 6325.59 -7.42132 
2847 1 46.9069 6.73084 7.47159 5.95239 -149559 -145449 -58527 199959 -17780.4 4739.34 -7.41356 
2848 1 47.5972 5.49316 7.47179 5.94627 -155158 -139703 48652.3 209542 28080.5 5857.03 -7.42002 
2849 1 46.8674 4.27574 7.47075 5.94815 -160134 -140991 -38548.1 213581 -21477.7 5233.34 -7.41467 
2850 1 47.5572 3.03785 7.47077 5.94473 -164726 -136445 27609.6 220799 27788.3 5444.94 -7.41863 
2851 1 46.8273 1.82043 7.47032 5.94601 -168504 -135868 -16701.7 221426 -24453.6 5711.15 -7.41593 
2852 1 47.5168 0.582365 7.47015 5.94543 -171663 -133026 5191.93 225963 26548.2 5079.89 -7.41723 
2968 1 49.7837 9.15855 7.47312 5.95168 -126378 -154906 75084.7 178416 26714.4 10620.6 -7.42184 
2969 1 49.054 7.94132 7.47148 5.95425 -134309 -157170 -67023.2 185464 -15317.6 6984 -7.41308 
2970 1 49.7448 6.70386 7.47159 5.94736 -141298 -149395 57850.1 197978 27787.1 9964.9 -7.42061 
2971 1 49.0147 5.4867 7.47042 5.94958 -148210 -150200 -48386.4 201984 -19307.1 7769.55 -7.4141 
2972 1 49.7048 4.24892 7.47035 5.94527 -154768 -143646 37963.4 212264 27891.5 9338.26 -7.41927 
2973 1 48.9746 3.03174 7.46974 5.94671 -160557 -142698 -27449.5 212950 -22715.7 8529.34 -7.41529 
2974 1 49.6642 1.79371 7.46949 5.94547 -165941 -137737 16198.9 220729 27038.5 8745.14 -7.41788 
2975 1 48.9341 0.576408 7.46949 5.94573 -170760 -135051 -5129.68 218091 -25268.4 9247.49 -7.4166 
3091 1 51.2014 9.15063 7.471 5.95676 -116733 -171916 -74373.9 167761 -12486.5 8909.16 -7.41266 
3092 1 51.8927 7.91343 7.47101 5.94921 -124638 -161945 65979.9 183084 27243.4 14263.4 -7.42113 
3093 1 51.1624 6.69661 7.46976 5.95161 -133246 -162298 -57349.3 187023 -16699.3 10024.3 -7.41357 
3094 1 51.8528 5.45898 7.46958 5.94653 -141348 -153707 47565.8 200195 27741.4 13456.9 -7.41986 
3095 1 51.1223 4.24212 7.46884 5.94814 -149165 -152456 -37645 200942 -20511.9 11096.8 -7.41467 
3096 1 51.812 3.00416 7.46849 5.94615 -156400 -145367 26810 211833 27259.1 12655.4 -7.4185 
3097 1 51.0815 1.78716 7.46834 5.94653 -163376 -142270 -16044.5 209222 -23568.4 12119.8 -7.41592 
3098 1 51.7708 0.548909 7.46781 5.94813 -169070 -136849 4665.95 217596 25806.8 11854.8 -7.41712 
3214 1 54.0412 9.12153 7.46995 5.95196 -106165 -177399 72692.2 165035 26472.7 18686.6 -7.42154 
3215 1 53.3105 7.90512 7.46868 5.95436 -115907 -177472 -65120.3 168778 -13635.8 11934.2 -7.41311 
3216 1 54.0013 6.66769 7.46836 5.94863 -125393 -166561 56077.9 184789 27361.6 17754.5 -7.42036 
3217 1 53.2704 5.45123 7.46755 5.95042 -134546 -164986 -46986.6 185496 -17798.2 13362.7 -7.4141 
3218 1 53.9603 4.21336 7.46705 5.9476 -143773 -155685 36714.2 199356 27237.6 16782.8 -7.41907 
3219 1 53.2294 2.99675 7.46679 5.94812 -152270 -152320 -26483.9 196769 -21351.4 14724.7 -7.41527 
3220 1 53.9187 1.7585 7.46614 5.94897 -160246 -144803 15420.1 208231 26121.1 15780.7 -7.41772 
3221 1 53.1881 0.54164 7.46649 5.94817 -168067 -139408 -4576.19 202249 -24014.7 15998 -7.41656 
3337 1 55.4591 9.11194 7.46711 5.95791 -96935.3 -194893 -71324.4 147714 -10110.5 13404.8 -7.41272 
3338 1 56.1504 7.87473 7.4666 5.95172 -107591 -181859 63086.6 166120 26783.6 22132.8 -7.42076 
3339 1 55.419 6.65874 7.46577 5.95368 -117744 -180245 -55096.6 166750 -14541.2 15242.2 -7.41359 
3340 1 56.1093 5.42099 7.46509 5.94997 -128564 -168666 45513.6 183342 27005.5 21052.2 -7.41956 
3341 1 55.3779 4.20485 7.46477 5.95061 -138390 -165188 -36097.7 180792 -18556.6 16988.6 -7.41465 
3342 1 56.0672 2.96663 7.46393 5.95065 -148195 -155344 25516.8 195232 26203.2 19890.8 -7.41826 
3343 1 55.3361 1.75022 7.46421 5.94994 -157672 -149714 -15145.7 189291 -21787.8 18629.4 -7.41587 
3344 1 56.0247 0.511597 7.46323 5.95375 -165819 -141752 4094.62 201322 24400.5 18652.3 -7.41693 
3461 1 57.5683 7.86433 7.46344 5.95717 -99365 -197500 -61534.6 145151 -10726.7 16618.1 -7.41315 
3463 1 57.5269 5.41111 7.46217 5.95408 -122194 -180359 -44449.2 161494 -15137.3 18800.1 -7.41409 
3465 1 57.4847 2.95707 7.46133 5.95271 -144251 -162561 -24926.1 172809 -18923.4 20852.1 -7.41521 
3467 1 57.4421 0.502158 7.461 5.95369 -164820 -144710 -3962.76 178515 -21802.5 22737.9 -7.41645 
3460 1 58.3002 9.07982 7.46424 5.95595 -89112.1 -198969 68128.6 144752 26057.3 26419.8 -7.42101 
3462 1 58.2589 6.62674 7.46249 5.95345 -111800 -183694 52733 164055 26604.3 25322.2 -7.41992 
3464 1 58.2164 4.17295 7.46108 5.95335 -133902 -168085 34506.5 178633 26091 24070.4 -7.41871 
3466 1 58.1734 1.71841 7.46013 5.95568 -154652 -152493 14293.5 187628 24547.2 22684.5 -7.41743 
3583 1 59.7182 9.06774 7.46051 5.96087 -80720.2 -216199 -65817.8 121197 -6364.74 17346.8 -7.41282 
3584 1 60.4091 7.83034 7.45923 5.95818 -94569.9 -200035 57852.7 142035 26092.7 29366.9 -7.42013 
3585 1 59.6767 6.61525 7.45892 5.95715 -104818 -197186 -51031.8 139406 -11073.2 20014.2 -7.41362 
3586 1 60.3664 5.37718 7.4575 5.95725 -118341 -182723 41850.8 158655 25834.4 28123.4 -7.41903 
3587 1 59.6341 4.16186 7.45775 5.9556 -129013 -177638 -33420.6 152943 -15365.8 22520 -7.4146 
3588 1 60.3227 2.9232 7.45624 5.95873 -141280 -165104 23390 170373 24512.3 26666.6 -7.41784 
3589 1 59.5908 1.70752 7.45712 5.95629 -152243 -157525 -13820.4 161426 -18871.1 24836.4 -7.41574 
3590 1 60.2786 0.468344 7.45555 5.96266 -162577 -147367 3477.79 176508 22166.3 25012.2 -7.41661 
3706 1 62.56 9.03157 7.45536 5.96428 -78426.9 -216699 60373.9 117905 25548.9 32882.8 -7.42015 
3707 1 61.8271 7.81702 7.45503 5.96137 -87262 -214710 -55318.6 115086 -6382.9 20468.8 -7.41324 
3708 1 62.5171 6.57906 7.45319 5.96248 -102603 -197883 46986.3 136025 25498 31762.5 -7.41919 
3709 1 61.7841 5.36431 7.45344 5.95912 -112651 -193654 -40067.7 130425 -11097 23456.7 -7.41408 
3710 1 62.4729 4.12568 7.45151 5.96305 -126917 -178922 30794.5 149743 24350.2 30337.7 -7.41811 
3711 1 61.7403 2.91061 7.45242 5.9591 -137808 -172106 -22381.8 141110 -15199.1 26228.6 -7.41508 
3712 1 62.4281 1.67136 7.45048 5.96603 -150092 -159742 12631.4 158480 22153.5 28635.9 -7.41697 
3713 1 61.696 0.455858 7.45206 5.9614 -161652 -150286 -3256.97 146814 -18421.5 28732.2 -7.41621 
3829 1 63.9781 9.01624 7.45063 5.96691 -71238.2 -232043 -56838.8 89419.8 -1131.54 20020.8 -7.41301 
3830 1 64.6684 7.77843 7.44826 5.96916 -88445.5 -212843 49406.3 111482 25157.7 34636.8 -7.41916 
3831 1 63.9349 6.56422 7.44844 5.96392 -96644.4 -209916 -44310.2 105947 -6153.67 23485.5 -7.41367 
3832 1 64.6238 5.32563 7.44601 5.96877 -112798 -192891 35910.8 126630 24127.5 33350.4 -7.41821 
3833 1 63.8906 4.11116 7.44689 5.96314 -122703 -187321 -29041.3 118325 -10783.2 26706.9 -7.41452 
3834 1 64.5783 2.87188 7.44447 5.97072 -136850 -172803 20062.2 137345 22026.1 31705.3 -7.41719 
3835 1 63.8455 1.65702 7.44609 5.96466 -148064 -164377 -11848.3 126206 -14670.2 29645.1 -7.4155 
3836 1 64.5323 0.417128 7.44376 5.975 -159519 -152611 2812.89 143170 18919.9 29728.8 -7.41614 
3952 1 66.8202 8.9752 7.44297 5.97721 -77205.6 -226067 48767.3 86016.1 24875.2 36406.2 -7.41893 
3953 1 66.0863 7.76147 7.44297 5.97011 -82406.9 -225047 -45702.9 80530 -640.286 22483.3 -7.4134 
3954 1 66.7754 6.52293 7.43993 5.97589 -100587 -205719 38256.3 101965 23911.4 35328.9 -7.41813 
3955 1 66.0416 5.30902 7.44068 5.96856 -108137 -201927 -33241.7 94050.8 -5694.27 26095.8 -7.41406 
3956 1 66.7294 4.06971 7.4377 5.97679 -124231 -185327 25165.4 114011 21847.8 33832 -7.41723 
3957 1 65.9959 2.85548 7.43924 5.96924 -134019 -178562 -18516.8 103519 -10189.1 29415.1 -7.41487 
3958 1 66.6826 1.6155 7.43643 5.97989 -147259 -164902 10267.1 121751 18781 31948.5 -7.4163 
3959 1 65.9497 0.400807 7.43879 5.97219 -158807 -155033 -2451.97 108734 -13897.6 32386.4 -7.4158 
4075 1 68.2383 8.95606 7.43737 5.97765 -71255.3 -237620 -44001.9 55371 5268.6 20443.4 -7.4133 
4076 1 68.9275 7.71758 7.43367 5.98426 -91640.7 -216177 37576.6 76885.1 23741.6 35975.6 -7.41786 
4077 1 68.1933 6.50413 7.43411 5.97536 -95804.8 -214794 -34593.5 69421.5 -86.3047 24324 -7.41375 
4078 1 68.8811 5.26481 7.4305 5.98413 -113906 -196054 27515.7 89744.4 21674 34661.9 -7.41711 
4079 1 68.147 4.05114 7.43181 5.97521 -120884 -191500 -22730.9 79989.3 -5097.36 27902.7 -7.41437 
4080 1 68.8336 2.81108 7.42843 5.98605 -135972 -176094 15395.4 98708.1 18606.2 32943.3 -7.4163 
4081 1 68.1001 1.59704 7.43065 5.97723 -145717 -168294 -9162.47 86705.9 -9460.26 31156.7 -7.41511 
4082 1 68.7857 0.356348 7.42761 5.98997 -157148 -156275 2043.53 103648 14647.9 30857.7 -7.41551 
4198 1 71.0799 8.90972 7.42771 5.99358 -87017.8 -223104 33908.7 52617.8 23606.5 35178.9 -7.41743 
4199 1 70.3454 7.6966 7.42764 5.98339 -86802.9 -224546 -32972.1 45722.5 5808.97 21488.9 -7.41361 
4200 1 71.0333 6.45727 7.42339 5.99247 -107039 -203950 26980.2 65707.9 21523.7 34004.7 -7.41682 
4201 1 70.2988 5.24404 7.42425 5.98245 -110358 -202245 -24187.3 56863.5 394.392 25140.9 -7.41402 
4202 1 70.9854 4.00393 7.4203 5.99326 -127187 -185027 17863.9 75506.3 18435.2 32449.4 -7.41615 
4203 1 70.2512 2.79043 7.42215 5.98357 -133886 -179852 -13472.8 64662.5 -4532.84 28492.1 -7.41456 
4204 1 70.9367 1.54965 7.41864 5.99585 -146918 -166488 7237.52 81645.3 14508.5 30569.5 -7.41548 
4205 1 70.2031 0.335751 7.42147 5.98663 -156767 -157697 -1617.31 68858.5 -8804.21 31540.1 -7.41521 
4321 1 72.4979 8.88666 7.42182 5.99236 -82052.8 -230395 -28542.7 23825 11719.1 17874.8 -7.41364 
4322 1 73.1857 7.64732 7.41695 6.00139 -104199 -207971 23749.8 43133.9 21370.3 31917.6 -7.4164 
4323 1 72.4511 6.43439 7.41715 5.99067 -103215 -209471 -22891 35405.3 6008.05 21383.3 -7.41383 
4324 1 73.1376 5.19422 7.41266 6.00112 -121839 -190723 17679 53359.6 18267.4 30450.9 -7.41586 
4325 1 72.403 3.98115 7.41389 5.99094 -124682 -188688 -15180.5 43839.5 622.48 24598.2 -7.41416 
4326 1 73.0884 2.74028 7.40995 6.00248 -139273 -173984 9925.89 60306.4 14386.2 28741.5 -7.41532 
4327 1 72.3542 1.52693 7.41225 5.99298 -145846 -168157 -6067.51 49071.1 -4195.54 27584.7 -7.41461 
4328 1 73.0387 0.285477 7.40897 6.00539 -155956 -157616 1175.03 63889 9849.65 26853.3 -7.4148 
4444 1 75.3382 8.83533 7.41171 6.00891 -105610 -207884 18273.2 22530.6 21168.7 28676 -7.4159 
4445 1 74.6036 7.62253 7.4111 5.9995 -100085 -212926 -19142.7 16357.8 11459.6 17066.6 -7.41381 
4446 1 75.29 6.38231 7.40615 6.00918 -120554 -192793 15162 33311.1 18077.1 27200.6 -7.41549 
4447 1 74.5553 5.1695 7.40656 5.99891 -118940 -194102 -14410.3 25330.7 5704.32 19926 -7.41393 
4448 1 75.2406 3.92855 7.40226 6.00942 -135045 -178222 10245.3 40801.8 14255.7 25571.5 -7.41506 
4449 1 74.506 2.71559 7.40378 6.00003 -137722 -175803 -8093 31327.2 450.955 22596.1 -7.41419 
4450 1 75.1903 1.47407 7.40025 6.01104 -148961 -164361 4111.55 45254.7 9913.27 23896.8 -7.41465 
4451 1 74.4562 0.260829 7.40287 6.00267 -155894 -158084 -854.865 34425.2 -4215.42 25194 -7.41454 
4567 1 76.7561 8.80892 7.40655 6.00786 -100892 -212403 -13469.9 -207.652 16531.9 12682.9 -7.41395 
4568 1 77.4425 7.56862 7.40124 6.01556 -122537 -191001 10844.5 15639 17857.8 23107.7 -7.41508 
4569 1 76.7078 6.35592 7.40072 6.00709 -117048 -195920 -11565.9 9717.6 10457.2 15053.5 -7.41387 
4570 1 77.393 5.11489 7.39616 6.0162 -134160 -179029 8605.87 23930.1 14096.1 21489.2 -7.41475 
4571 1 76.6582 3.90217 7.39672 6.00732 -132900 -180107 -7923.56 16458.1 4837.2 17220.7 -7.41394 
4572 1 77.3424 2.66057 7.39304 6.01668 -145179 -167835 4968.32 29133.2 9953.67 19933.5 -7.41444 
4573 1 76.6079 1.4477 7.39472 6.00892 -148219 -164961 -3135.59 20321 -153.885 19385 -7.41412 
4574 1 77.2914 0.205652 7.39196 6.01665 -155682 -157217 512.235 31528.2 5483.16 18538.3 -7.41417 
4690 1 79.5947 8.75364 7.3982 6.01143 -127697 -185962 5359.05 178.381 17680 18536 -7.41469 
4691 1 78.8602 7.54089 7.39672 6.01315 -118303 -194553 -7232.01 -3236.51 14754 10488.6 -7.41395 
4692 1 79.5454 6.29979 7.39198 6.01961 -136430 -176728 5562.6 9704.59 13958.2 16961.2 -7.41445 
4693 1 78.8106 5.08715 7.39153 6.01426 -131257 -181267 -6036.61 4557.58 8769.99 12108.3 -7.41384 
4694 1 79.4948 3.84547 7.38776 6.02175 -144538 -168216 4198.11 15837.4 9958.35 15496.4 -7.41421 
4695 1 78.76 2.63281 7.3884 6.01504 -143677 -168747 -3489.94 9268.8 3498.65 13708.3 -7.41386 
4696 1 79.4435 1.39071 7.38564 6.02077 -151961 -160403 1787.04 19036.6 5854.25 14286.5 -7.41401 
4697 1 78.7089 0.177919 7.38738 6.01676 -155708 -157034 -199.06 11356.6 -1094.37 15516.4 -7.41399 
4813 1 81.0124 8.72491 7.39472 6.01498 -122586 -190446 -2078.39 -14015.1 18639 6499.58 -7.41414 
4814 1 81.6975 7.48373 7.38986 6.01605 -141197 -171786 1723.91 -2337.88 13991.6 12273.5 -7.41418 
4815 1 80.963 6.27103 7.38841 6.01801 -132567 -179729 -3044.73 -4761.17 12245.4 7675.69 -7.41387 
4816 1 81.6471 5.02929 7.38459 6.02275 -146474 -165927 2346.08 5112.02 10036.6 10997.5 -7.41401 
4817 1 80.9123 3.81669 7.3842 6.01977 -142146 -169881 -2453.82 1159.29 6632.81 8756.81 -7.41376 
4818 1 81.5958 2.57454 7.38145 6.02462 -151186 -160859 1708.83 9381.73 6161.12 9984.09 -7.41386 
4819 1 80.861 1.36193 7.38212 6.02137 -151161 -160776 -885.965 4147.99 1899.29 10003.7 -7.41376 
4820 1 81.544 0.119504 7.38041 6.02362 -155579 -156198 337.909 10991.3 2278.26 9314.58 -7.41375 
4936 1 83.8493 8.66716 7.38983 6.01361 -148293 -164504 -2288.5 -12930.9 14390.3 7429.19 -7.41398 
4937 1 83.1152 7.45427 7.38739 6.01906 -136339 -176040 399.428 -12210.5 15444.5 3988.47 -7.414 
4938 1 83.7992 6.21247 7.38352 6.02046 -150634 -161524 -11.6049 -3729.02 10411.9 6539.3 -7.41386 
4939 1 83.0647 4.99981 7.38212 6.02201 -143101 -168804 -653 -4764.43 9368.15 4734.23 -7.41377 
4940 1 83.7481 3.75761 7.37939 6.02553 -152683 -158972 807.354 1973.07 6573.53 5865.06 -7.41374 
4941 1 83.0133 2.54505 7.37904 6.02439 -149411 -162040 -489.061 -594.098 4355.03 5533.31 -7.41367 
4942 1 83.6962 1.3026 7.37737 6.02705 -154572 -156732 655.441 4622.61 2977.5 5476.52 -7.41366 