(written by TR)

10096	atoms
2	atom types
0	87.2139399	xlo xhi
0	151.058975	ylo yhi
0	18.4	zlo zhi


Masses

1	12
2	12

Atoms

1 1 1 0 -0.00000000 151.05897487 7.50000000 0 0 0
2 1 1 0 0.69162522 149.82111385 7.50000000 0 0 0
3 1 1 0 0.65704395 147.36535732 7.50000000 0 0 0
4 1 1 0 0.62246269 144.90960079 7.50000000 0 0 0
5 1 1 0 0.58788143 142.45384426 7.50000000 0 0 0
6 1 1 0 0.55330017 139.99808773 7.50000000 0 0 0
7 1 1 0 0.51871891 137.54233120 7.50000000 0 0 0
8 1 1 0 0.48413765 135.08657467 7.50000000 0 0 0
9 1 1 0 0.44955639 132.63081814 7.50000000 0 0 0
10 1 1 0 0.41497513 130.17506161 7.50000000 0 0 0
11 1 1 0 0.38039387 127.71930508 7.50000000 0 0 0
12 1 1 0 0.34581261 125.26354855 7.50000000 0 0 0
13 1 1 0 0.31123135 122.80779202 7.50000000 0 0 0
14 1 1 0 0.27665009 120.35203549 7.50000000 0 0 0
15 1 1 0 0.24206882 117.89627896 7.50000000 0 0 0
16 1 1 0 0.20748756 115.44052243 7.50000000 0 0 0
17 1 1 0 0.17290630 112.98476590 7.50000000 0 0 0
18 1 1 0 0.13832504 110.52900937 7.50000000 0 0 0
19 1 1 0 0.10374378 108.07325284 7.50000000 0 0 0
20 1 1 0 0.06916252 105.61749631 7.50000000 0 0 0
21 1 1 0 0.03458126 103.16173978 7.50000000 0 0 0
22 1 1 0 -0.00000000 100.70598324 7.50000000 0 0 0
23 1 1 0 2.83566339 151.01904387 7.50000000 0 0 0
24 1 1 0 2.10945691 149.80114835 7.50000000 0 0 0
25 1 1 0 2.80108213 148.56328734 7.50000000 0 0 0
26 1 1 0 2.07487565 147.34539182 7.50000000 0 0 0
27 1 1 0 2.76650086 146.10753081 7.50000000 0 0 0
28 1 1 0 2.04029439 144.88963529 7.50000000 0 0 0
29 1 1 0 2.73191960 143.65177428 7.50000000 0 0 0
30 1 1 0 2.00571313 142.43387876 7.50000000 0 0 0
31 1 1 0 2.69733834 141.19601775 7.50000000 0 0 0
32 1 1 0 1.97113187 139.97812223 7.50000000 0 0 0
33 1 1 0 2.66275708 138.74026122 7.50000000 0 0 0
34 1 1 0 1.93655060 137.52236570 7.50000000 0 0 0
35 1 1 0 2.62817582 136.28450468 7.50000000 0 0 0
36 1 1 0 1.90196934 135.06660917 7.50000000 0 0 0
37 1 1 0 2.59359456 133.82874815 7.50000000 0 0 0
38 1 1 0 1.86738808 132.61085264 7.50000000 0 0 0
39 1 1 0 2.55901330 131.37299162 7.50000000 0 0 0
40 1 1 0 1.83280682 130.15509611 7.50000000 0 0 0
41 1 1 0 2.52443204 128.91723509 7.50000000 0 0 0
42 1 1 0 1.79822556 127.69933958 7.50000000 0 0 0
43 1 1 0 2.48985078 126.46147856 7.50000000 0 0 0
44 1 1 0 1.76364430 125.24358305 7.50000000 0 0 0
45 1 1 0 2.45526952 124.00572203 7.50000000 0 0 0
46 1 1 0 1.72906304 122.78782652 7.50000000 0 0 0
47 1 1 0 2.42068826 121.54996550 7.50000000 0 0 0
48 1 1 0 1.69448178 120.33206999 7.50000000 0 0 0
49 1 1 0 2.38610700 119.09420897 7.50000000 0 0 0
50 1 1 0 1.65990052 117.87631346 7.50000000 0 0 0
51 1 1 0 2.35152573 116.63845244 7.50000000 0 0 0
52 1 1 0 1.62531926 115.42055693 7.50000000 0 0 0
53 1 1 0 2.31694447 114.18269591 7.50000000 0 0 0
54 1 1 0 1.59073800 112.96480040 7.50000000 0 0 0
55 1 1 0 2.28236321 111.72693938 7.50000000 0 0 0
56 1 1 0 1.55615674 110.50904387 7.50000000 0 0 0
57 1 1 0 2.24778195 109.27118285 7.50000000 0 0 0
58 1 1 0 1.52157548 108.05328734 7.50000000 0 0 0
59 1 1 0 2.21320069 106.81542632 7.50000000 0 0 0
60 1 1 0 1.48699421 105.59753081 7.50000000 0 0 0
61 1 1 0 2.17861943 104.35966979 7.50000000 0 0 0
62 1 1 0 1.45241295 103.14177428 7.50000000 0 0 0
63 1 1 0 2.14403817 101.90391326 7.50000000 0 0 0
64 1 1 0 1.41783169 100.68601774 7.50000000 0 0 0
65 1 1 0 2.10945691 99.44815673 7.50000000 0 0 0
66 1 1 0 1.38325043 98.23026121 7.50000000 0 0 0
67 1 1 0 2.07487565 96.99240020 7.50000000 0 0 0
68 1 1 0 1.34866917 95.77450468 7.50000000 0 0 0
69 1 1 0 2.04029439 94.53664367 7.50000000 0 0 0
70 1 1 0 1.31408791 93.31874815 7.50000000 0 0 0
71 1 1 0 2.00571313 92.08088714 7.50000000 0 0 0
72 1 1 0 1.27950665 90.86299162 7.50000000 0 0 0
73 1 1 0 1.97113187 89.62513061 7.50000000 0 0 0
74 1 1 0 1.24492539 88.40723509 7.50000000 0 0 0
75 1 1 0 1.93655061 87.16937408 7.50000000 0 0 0
76 1 1 0 1.21034413 85.95147856 7.50000000 0 0 0
77 1 1 0 1.90196934 84.71361755 7.50000000 0 0 0
78 1 1 0 1.17576287 83.49572203 7.50000000 0 0 0
79 1 1 0 1.86738808 82.25786102 7.50000000 0 0 0
80 1 1 0 1.14118161 81.03996550 7.50000000 0 0 0
81 1 1 0 1.83280682 79.80210449 7.50000000 0 0 0
82 1 1 0 1.10660035 78.58420897 7.50000000 0 0 0
83 1 1 0 1.79822556 77.34634796 7.50000000 0 0 0
84 1 1 0 1.07201908 76.12845244 7.50000000 0 0 0
85 1 1 0 1.76364430 74.89059143 7.50000000 0 0 0
86 1 1 0 1.03743782 73.67269591 7.50000000 0 0 0
87 1 1 0 1.72906304 72.43483490 7.50000000 0 0 0
88 1 1 0 1.00285656 71.21693938 7.50000000 0 0 0
89 1 1 0 1.69448178 69.97907837 7.50000000 0 0 0
90 1 1 0 0.96827530 68.76118285 7.50000000 0 0 0
91 1 1 0 1.65990052 67.52332183 7.50000000 0 0 0
92 1 1 0 0.93369404 66.30542632 7.50000000 0 0 0
93 1 1 0 1.62531926 65.06756530 7.50000000 0 0 0
94 1 1 0 0.89911278 63.84966979 7.50000000 0 0 0
95 1 1 0 1.59073800 62.61180877 7.50000000 0 0 0
96 1 1 0 0.86453152 61.39391326 7.50000000 0 0 0
97 1 1 0 1.55615674 60.15605224 7.50000000 0 0 0
98 1 1 0 0.82995026 58.93815673 7.50000000 0 0 0
99 1 1 0 1.52157548 57.70029571 7.50000000 0 0 0
100 1 1 0 0.79536900 56.48240020 7.50000000 0 0 0
101 1 1 0 1.48699421 55.24453918 7.50000000 0 0 0
102 1 1 0 0.76078774 54.02664367 7.50000000 0 0 0
103 1 1 0 1.45241295 52.78878265 7.50000000 0 0 0
104 1 1 0 0.72620648 51.57088714 7.50000000 0 0 0
105 1 1 0 1.41783169 50.33302612 7.50000000 0 0 0
106 1 1 0 0.69162522 49.11513061 7.50000000 0 0 0
107 1 1 0 1.38325043 47.87726959 7.50000000 0 0 0
108 1 1 0 0.65704396 46.65937408 7.50000000 0 0 0
109 1 1 0 1.34866917 45.42151306 7.50000000 0 0 0
110 1 1 0 0.62246269 44.20361755 7.50000000 0 0 0
111 1 1 0 1.31408791 42.96575653 7.50000000 0 0 0
112 1 1 0 0.58788143 41.74786102 7.50000000 0 0 0
113 1 1 0 1.27950665 40.51000000 7.50000000 0 0 0
114 1 1 0 0.55330017 39.29210449 7.50000000 0 0 0
115 1 1 0 1.24492539 38.05424347 7.50000000 0 0 0
116 1 1 0 0.51871891 36.83634796 7.50000000 0 0 0
117 1 1 0 1.21034413 35.59848694 7.50000000 0 0 0
118 1 1 0 0.48413765 34.38059143 7.50000000 0 0 0
119 1 1 0 1.17576287 33.14273041 7.50000000 0 0 0
120 1 1 0 0.44955639 31.92483489 7.50000000 0 0 0
121 1 1 0 1.14118161 30.68697388 7.50000000 0 0 0
122 1 1 0 0.41497513 29.46907836 7.50000000 0 0 0
123 1 1 0 1.10660035 28.23121735 7.50000000 0 0 0
124 1 1 0 0.38039387 27.01332183 7.50000000 0 0 0
125 1 1 0 1.07201909 25.77546082 7.50000000 0 0 0
126 1 1 0 0.34581261 24.55756530 7.50000000 0 0 0
127 1 1 0 1.03743782 23.31970429 7.50000000 0 0 0
128 1 1 0 0.31123135 22.10180877 7.50000000 0 0 0
129 1 1 0 1.00285656 20.86394776 7.50000000 0 0 0
130 1 1 0 0.27665009 19.64605224 7.50000000 0 0 0
131 1 1 0 0.96827530 18.40819123 7.50000000 0 0 0
132 1 1 0 0.24206883 17.19029571 7.50000000 0 0 0
133 1 1 0 0.93369404 15.95243470 7.50000000 0 0 0
134 1 1 0 0.20748756 14.73453918 7.50000000 0 0 0
135 1 1 0 0.89911278 13.49667817 7.50000000 0 0 0
136 1 1 0 0.17290630 12.27878265 7.50000000 0 0 0
137 1 1 0 0.86453152 11.04092164 7.50000000 0 0 0
138 1 1 0 0.13832504 9.82302612 7.50000000 0 0 0
139 1 1 0 0.82995026 8.58516511 7.50000000 0 0 0
140 1 1 0 0.10374378 7.36726959 7.50000000 0 0 0
141 1 1 0 0.79536900 6.12940858 7.50000000 0 0 0
142 1 1 0 0.06916252 4.91151306 7.50000000 0 0 0
143 1 1 0 0.76078774 3.67365205 7.50000000 0 0 0
144 1 1 0 0.03458126 2.45575653 7.50000000 0 0 0
145 1 1 0 0.72620648 1.21789552 7.50000000 0 0 0
146 1 1 0 0.00000000 0.00000000 7.50000000 0 0 0
147 1 1 0 4.25349508 150.99907837 7.50000000 0 0 0
148 1 1 0 4.94512030 149.76121735 7.50000000 0 0 0
149 1 1 0 4.21891382 148.54332184 7.50000000 0 0 0
150 1 1 0 4.91053904 147.30546082 7.50000000 0 0 0
151 1 1 0 4.18433256 146.08756531 7.50000000 0 0 0
152 1 1 0 4.87595777 144.84970429 7.50000000 0 0 0
153 1 1 0 4.14975130 143.63180878 7.50000000 0 0 0
154 1 1 0 4.84137651 142.39394776 7.50000000 0 0 0
155 1 1 0 4.11517004 141.17605225 7.50000000 0 0 0
156 1 1 0 4.80679525 139.93819123 7.50000000 0 0 0
157 1 1 0 4.08058878 138.72029571 7.50000000 0 0 0
158 1 1 0 4.77221399 137.48243470 7.50000000 0 0 0
159 1 1 0 4.04600752 136.26453918 7.50000000 0 0 0
160 1 1 0 4.73763273 135.02667817 7.50000000 0 0 0
161 1 1 0 4.01142625 133.80878265 7.50000000 0 0 0
162 1 1 0 4.70305147 132.57092164 7.50000000 0 0 0
163 1 1 0 3.97684499 131.35302612 7.50000000 0 0 0
164 1 1 0 4.66847021 130.11516511 7.50000000 0 0 0
165 1 1 0 3.94226373 128.89726959 7.50000000 0 0 0
166 1 1 0 4.63388895 127.65940858 7.50000000 0 0 0
167 1 1 0 3.90768247 126.44151306 7.50000000 0 0 0
168 1 1 0 4.59930769 125.20365205 7.50000000 0 0 0
169 1 1 0 3.87310121 123.98575653 7.50000000 0 0 0
170 1 1 0 4.56472643 122.74789552 7.50000000 0 0 0
171 1 1 0 3.83851995 121.53000000 7.50000000 0 0 0
172 1 1 0 4.53014517 120.29213899 7.50000000 0 0 0
173 1 1 0 3.80393869 119.07424347 7.50000000 0 0 0
174 1 1 0 4.49556391 117.83638246 7.50000000 0 0 0
175 1 1 0 3.76935743 116.61848694 7.50000000 0 0 0
176 1 1 0 4.46098265 115.38062593 7.50000000 0 0 0
177 1 1 0 3.73477617 114.16273041 7.50000000 0 0 0
178 1 1 0 4.42640138 112.92486940 7.50000000 0 0 0
179 1 1 0 3.70019491 111.70697388 7.50000000 0 0 0
180 1 1 0 4.39182012 110.46911287 7.50000000 0 0 0
181 1 1 0 3.66561365 109.25121735 7.50000000 0 0 0
182 1 1 0 4.35723886 108.01335634 7.50000000 0 0 0
183 1 1 0 3.63103239 106.79546082 7.50000000 0 0 0
184 1 1 0 4.32265760 105.55759980 7.50000000 0 0 0
185 1 1 0 3.59645112 104.33970429 7.50000000 0 0 0
186 1 1 0 4.28807634 103.10184327 7.50000000 0 0 0
187 1 1 0 3.56186986 101.88394776 7.50000000 0 0 0
188 1 1 0 4.25349508 100.64608674 7.50000000 0 0 0
189 1 1 0 3.52728860 99.42819123 7.50000000 0 0 0
190 1 1 0 4.21891382 98.19033021 7.50000000 0 0 0
191 1 1 0 3.49270734 96.97243470 7.50000000 0 0 0
192 1 1 0 4.18433256 95.73457368 7.50000000 0 0 0
193 1 1 0 3.45812608 94.51667817 7.50000000 0 0 0
194 1 1 0 4.14975130 93.27881715 7.50000000 0 0 0
195 1 1 0 3.42354482 92.06092164 7.50000000 0 0 0
196 1 1 0 4.11517004 90.82306062 7.50000000 0 0 0
197 1 1 0 3.38896356 89.60516511 7.50000000 0 0 0
198 1 1 0 4.08058878 88.36730409 7.50000000 0 0 0
199 1 1 0 3.35438230 87.14940858 7.50000000 0 0 0
200 1 1 0 4.04600752 85.91154756 7.50000000 0 0 0
201 1 1 0 3.31980104 84.69365205 7.50000000 0 0 0
202 1 1 0 4.01142625 83.45579103 7.50000000 0 0 0
203 1 1 0 3.28521978 82.23789552 7.50000000 0 0 0
204 1 1 0 3.97684499 81.00003450 7.50000000 0 0 0
205 1 1 0 3.25063852 79.78213899 7.50000000 0 0 0
206 1 1 0 3.94226373 78.54427797 7.50000000 0 0 0
207 1 1 0 3.21605726 77.32638246 7.50000000 0 0 0
208 1 1 0 3.90768247 76.08852144 7.50000000 0 0 0
209 1 1 0 3.18147600 74.87062593 7.50000000 0 0 0
210 1 1 0 3.87310121 73.63276491 7.50000000 0 0 0
211 1 1 0 3.14689473 72.41486940 7.50000000 0 0 0
212 1 1 0 3.83851995 71.17700838 7.50000000 0 0 0
213 1 1 0 3.11231347 69.95911286 7.50000000 0 0 0
214 1 1 0 3.80393869 68.72125185 7.50000000 0 0 0
215 1 1 0 3.07773221 67.50335633 7.50000000 0 0 0
216 1 1 0 3.76935743 66.26549532 7.50000000 0 0 0
217 1 1 0 3.04315095 65.04759980 7.50000000 0 0 0
218 1 1 0 3.73477617 63.80973879 7.50000000 0 0 0
219 1 1 0 3.00856969 62.59184327 7.50000000 0 0 0
220 1 1 0 3.70019491 61.35398226 7.50000000 0 0 0
221 1 1 0 2.97398843 60.13608674 7.50000000 0 0 0
222 1 1 0 3.66561365 58.89822573 7.50000000 0 0 0
223 1 1 0 2.93940717 57.68033021 7.50000000 0 0 0
224 1 1 0 3.63103239 56.44246920 7.50000000 0 0 0
225 1 1 0 2.90482591 55.22457368 7.50000000 0 0 0
226 1 1 0 3.59645113 53.98671267 7.50000000 0 0 0
227 1 1 0 2.87024465 52.76881715 7.50000000 0 0 0
228 1 1 0 3.56186986 51.53095614 7.50000000 0 0 0
229 1 1 0 2.83566339 50.31306062 7.50000000 0 0 0
230 1 1 0 3.52728860 49.07519961 7.50000000 0 0 0
231 1 1 0 2.80108213 47.85730409 7.50000000 0 0 0
232 1 1 0 3.49270734 46.61944308 7.50000000 0 0 0
233 1 1 0 2.76650087 45.40154756 7.50000000 0 0 0
234 1 1 0 3.45812608 44.16368655 7.50000000 0 0 0
235 1 1 0 2.73191960 42.94579103 7.50000000 0 0 0
236 1 1 0 3.42354482 41.70793002 7.50000000 0 0 0
237 1 1 0 2.69733834 40.49003450 7.50000000 0 0 0
238 1 1 0 3.38896356 39.25217349 7.50000000 0 0 0
239 1 1 0 2.66275708 38.03427797 7.50000000 0 0 0
240 1 1 0 3.35438230 36.79641695 7.50000000 0 0 0
241 1 1 0 2.62817582 35.57852144 7.50000000 0 0 0
242 1 1 0 3.31980104 34.34066042 7.50000000 0 0 0
243 1 1 0 2.59359456 33.12276491 7.50000000 0 0 0
244 1 1 0 3.28521978 31.88490389 7.50000000 0 0 0
245 1 1 0 2.55901330 30.66700838 7.50000000 0 0 0
246 1 1 0 3.25063852 29.42914736 7.50000000 0 0 0
247 1 1 0 2.52443204 28.21125185 7.50000000 0 0 0
248 1 1 0 3.21605726 26.97339083 7.50000000 0 0 0
249 1 1 0 2.48985078 25.75549532 7.50000000 0 0 0
250 1 1 0 3.18147600 24.51763430 7.50000000 0 0 0
251 1 1 0 2.45526952 23.29973879 7.50000000 0 0 0
252 1 1 0 3.14689473 22.06187777 7.50000000 0 0 0
253 1 1 0 2.42068826 20.84398226 7.50000000 0 0 0
254 1 1 0 3.11231347 19.60612124 7.50000000 0 0 0
255 1 1 0 2.38610700 18.38822573 7.50000000 0 0 0
256 1 1 0 3.07773221 17.15036471 7.50000000 0 0 0
257 1 1 0 2.35152574 15.93246920 7.50000000 0 0 0
258 1 1 0 3.04315095 14.69460818 7.50000000 0 0 0
259 1 1 0 2.31694448 13.47671267 7.50000000 0 0 0
260 1 1 0 3.00856969 12.23885165 7.50000000 0 0 0
261 1 1 0 2.28236321 11.02095614 7.50000000 0 0 0
262 1 1 0 2.97398843 9.78309512 7.50000000 0 0 0
263 1 1 0 2.24778195 8.56519961 7.50000000 0 0 0
264 1 1 0 2.93940717 7.32733859 7.50000000 0 0 0
265 1 1 0 2.21320069 6.10944308 7.50000000 0 0 0
266 1 1 0 2.90482591 4.87158206 7.50000000 0 0 0
267 1 1 0 2.17861943 3.65368655 7.50000000 0 0 0
268 1 1 0 2.87024465 2.41582553 7.50000000 0 0 0
269 1 1 0 2.14403817 1.19793001 7.50000000 0 0 0
270 1 1 0 7.08915847 150.95914737 7.50000000 0 0 0
271 1 1 0 6.36295199 149.74125185 7.50000000 0 0 0
272 1 1 0 7.05457721 148.50339084 7.50000000 0 0 0
273 1 1 0 6.32837073 147.28549532 7.50000000 0 0 0
274 1 1 0 7.01999595 146.04763431 7.50000000 0 0 0
275 1 1 0 6.29378947 144.82973879 7.50000000 0 0 0
276 1 1 0 6.98541469 143.59187778 7.50000000 0 0 0
277 1 1 0 6.25920821 142.37398226 7.50000000 0 0 0
278 1 1 0 6.95083342 141.13612124 7.50000000 0 0 0
279 1 1 0 6.22462695 139.91822573 7.50000000 0 0 0
280 1 1 0 6.91625216 138.68036471 7.50000000 0 0 0
281 1 1 0 6.19004569 137.46246920 7.50000000 0 0 0
282 1 1 0 6.88167090 136.22460818 7.50000000 0 0 0
283 1 1 0 6.15546443 135.00671267 7.50000000 0 0 0
284 1 1 0 6.84708964 133.76885165 7.50000000 0 0 0
285 1 1 0 6.12088316 132.55095614 7.50000000 0 0 0
286 1 1 0 6.81250838 131.31309512 7.50000000 0 0 0
287 1 1 0 6.08630190 130.09519961 7.50000000 0 0 0
288 1 1 0 6.77792712 128.85733859 7.50000000 0 0 0
289 1 1 0 6.05172064 127.63944308 7.50000000 0 0 0
290 1 1 0 6.74334586 126.40158206 7.50000000 0 0 0
291 1 1 0 6.01713938 125.18368655 7.50000000 0 0 0
292 1 1 0 6.70876460 123.94582553 7.50000000 0 0 0
293 1 1 0 5.98255812 122.72793002 7.50000000 0 0 0
294 1 1 0 6.67418334 121.49006900 7.50000000 0 0 0
295 1 1 0 5.94797686 120.27217349 7.50000000 0 0 0
296 1 1 0 6.63960208 119.03431247 7.50000000 0 0 0
297 1 1 0 5.91339560 117.81641696 7.50000000 0 0 0
298 1 1 0 6.60502082 116.57855594 7.50000000 0 0 0
299 1 1 0 5.87881434 115.36066043 7.50000000 0 0 0
300 1 1 0 6.57043956 114.12279941 7.50000000 0 0 0
301 1 1 0 5.84423308 112.90490390 7.50000000 0 0 0
302 1 1 0 6.53585829 111.66704288 7.50000000 0 0 0
303 1 1 0 5.80965182 110.44914737 7.50000000 0 0 0
304 1 1 0 6.50127703 109.21128635 7.50000000 0 0 0
305 1 1 0 5.77507056 107.99339084 7.50000000 0 0 0
306 1 1 0 6.46669577 106.75552982 7.50000000 0 0 0
307 1 1 0 5.74048930 105.53763430 7.50000000 0 0 0
308 1 1 0 6.43211451 104.29977329 7.50000000 0 0 0
309 1 1 0 5.70590804 103.08187777 7.50000000 0 0 0
310 1 1 0 6.39753325 101.84401676 7.50000000 0 0 0
311 1 1 0 5.67132677 100.62612124 7.50000000 0 0 0
312 1 1 0 6.36295199 99.38826023 7.50000000 0 0 0
313 1 1 0 5.63674551 98.17036471 7.50000000 0 0 0
314 1 1 0 6.32837073 96.93250370 7.50000000 0 0 0
315 1 1 0 5.60216425 95.71460818 7.50000000 0 0 0
316 1 1 0 6.29378947 94.47674717 7.50000000 0 0 0
317 1 1 0 5.56758299 93.25885165 7.50000000 0 0 0
318 1 1 0 6.25920821 92.02099064 7.50000000 0 0 0
319 1 1 0 5.53300173 90.80309512 7.50000000 0 0 0
320 1 1 0 6.22462695 89.56523411 7.50000000 0 0 0
321 1 1 0 5.49842047 88.34733859 7.50000000 0 0 0
322 1 1 0 6.19004569 87.10947758 7.50000000 0 0 0
323 1 1 0 5.46383921 85.89158206 7.50000000 0 0 0
324 1 1 0 6.15546443 84.65372105 7.50000000 0 0 0
325 1 1 0 5.42925795 83.43582553 7.50000000 0 0 0
326 1 1 0 6.12088317 82.19796452 7.50000000 0 0 0
327 1 1 0 5.39467669 80.98006900 7.50000000 0 0 0
328 1 1 0 6.08630190 79.74220799 7.50000000 0 0 0
329 1 1 0 5.36009543 78.52431247 7.50000000 0 0 0
330 1 1 0 6.05172064 77.28645146 7.50000000 0 0 0
331 1 1 0 5.32551417 76.06855594 7.50000000 0 0 0
332 1 1 0 6.01713938 74.83069493 7.50000000 0 0 0
333 1 1 0 5.29093291 73.61279941 7.50000000 0 0 0
334 1 1 0 5.98255812 72.37493839 7.50000000 0 0 0
335 1 1 0 5.25635164 71.15704288 7.50000000 0 0 0
336 1 1 0 5.94797686 69.91918186 7.50000000 0 0 0
337 1 1 0 5.22177038 68.70128635 7.50000000 0 0 0
338 1 1 0 5.91339560 67.46342533 7.50000000 0 0 0
339 1 1 0 5.18718912 66.24552982 7.50000000 0 0 0
340 1 1 0 5.87881434 65.00766880 7.50000000 0 0 0
341 1 1 0 5.15260786 63.78977329 7.50000000 0 0 0
342 1 1 0 5.84423308 62.55191227 7.50000000 0 0 0
343 1 1 0 5.11802660 61.33401676 7.50000000 0 0 0
344 1 1 0 5.80965182 60.09615574 7.50000000 0 0 0
345 1 1 0 5.08344534 58.87826023 7.50000000 0 0 0
346 1 1 0 5.77507056 57.64039921 7.50000000 0 0 0
347 1 1 0 5.04886408 56.42250370 7.50000000 0 0 0
348 1 1 0 5.74048930 55.18464268 7.50000000 0 0 0
349 1 1 0 5.01428282 53.96674717 7.50000000 0 0 0
350 1 1 0 5.70590804 52.72888615 7.50000000 0 0 0
351 1 1 0 4.97970156 51.51099064 7.50000000 0 0 0
352 1 1 0 5.67132677 50.27312962 7.50000000 0 0 0
353 1 1 0 4.94512030 49.05523411 7.50000000 0 0 0
354 1 1 0 5.63674551 47.81737309 7.50000000 0 0 0
355 1 1 0 4.91053904 46.59947758 7.50000000 0 0 0
356 1 1 0 5.60216425 45.36161656 7.50000000 0 0 0
357 1 1 0 4.87595778 44.14372105 7.50000000 0 0 0
358 1 1 0 5.56758299 42.90586003 7.50000000 0 0 0
359 1 1 0 4.84137652 41.68796452 7.50000000 0 0 0
360 1 1 0 5.53300173 40.45010350 7.50000000 0 0 0
361 1 1 0 4.80679525 39.23220799 7.50000000 0 0 0
362 1 1 0 5.49842047 37.99434697 7.50000000 0 0 0
363 1 1 0 4.77221399 36.77645145 7.50000000 0 0 0
364 1 1 0 5.46383921 35.53859044 7.50000000 0 0 0
365 1 1 0 4.73763273 34.32069492 7.50000000 0 0 0
366 1 1 0 5.42925795 33.08283391 7.50000000 0 0 0
367 1 1 0 4.70305147 31.86493839 7.50000000 0 0 0
368 1 1 0 5.39467669 30.62707738 7.50000000 0 0 0
369 1 1 0 4.66847021 29.40918186 7.50000000 0 0 0
370 1 1 0 5.36009543 28.17132085 7.50000000 0 0 0
371 1 1 0 4.63388895 26.95342533 7.50000000 0 0 0
372 1 1 0 5.32551417 25.71556432 7.50000000 0 0 0
373 1 1 0 4.59930769 24.49766880 7.50000000 0 0 0
374 1 1 0 5.29093291 23.25980779 7.50000000 0 0 0
375 1 1 0 4.56472643 22.04191227 7.50000000 0 0 0
376 1 1 0 5.25635165 20.80405126 7.50000000 0 0 0
377 1 1 0 4.53014517 19.58615574 7.50000000 0 0 0
378 1 1 0 5.22177038 18.34829473 7.50000000 0 0 0
379 1 1 0 4.49556391 17.13039921 7.50000000 0 0 0
380 1 1 0 5.18718912 15.89253820 7.50000000 0 0 0
381 1 1 0 4.46098265 14.67464268 7.50000000 0 0 0
382 1 1 0 5.15260786 13.43678167 7.50000000 0 0 0
383 1 1 0 4.42640139 12.21888615 7.50000000 0 0 0
384 1 1 0 5.11802660 10.98102514 7.50000000 0 0 0
385 1 1 0 4.39182012 9.76312962 7.50000000 0 0 0
386 1 1 0 5.08344534 8.52526861 7.50000000 0 0 0
387 1 1 0 4.35723886 7.30737309 7.50000000 0 0 0
388 1 1 0 5.04886408 6.06951208 7.50000000 0 0 0
389 1 1 0 4.32265760 4.85161656 7.50000000 0 0 0
390 1 1 0 5.01428282 3.61375554 7.50000000 0 0 0
391 1 1 0 4.28807634 2.39586003 7.50000000 0 0 0
392 1 1 0 4.97970156 1.15799901 7.50000000 0 0 0
393 1 1 0 8.50699016 150.93918187 7.50000000 0 0 0
394 1 1 0 9.19861538 149.70132085 7.50000000 0 0 0
395 1 1 0 8.47240890 148.48342534 7.50000000 0 0 0
396 1 1 0 9.16403412 147.24556432 7.50000000 0 0 0
397 1 1 0 8.43782764 146.02766881 7.50000000 0 0 0
398 1 1 0 9.12945286 144.78980779 7.50000000 0 0 0
399 1 1 0 8.40324638 143.57191227 7.50000000 0 0 0
400 1 1 0 9.09487160 142.33405126 7.50000000 0 0 0
401 1 1 0 8.36866512 141.11615574 7.50000000 0 0 0
402 1 1 0 9.06029033 139.87829473 7.50000000 0 0 0
403 1 1 0 8.33408386 138.66039921 7.50000000 0 0 0
404 1 1 0 9.02570907 137.42253820 7.50000000 0 0 0
405 1 1 0 8.29950260 136.20464268 7.50000000 0 0 0
406 1 1 0 8.99112781 134.96678167 7.50000000 0 0 0
407 1 1 0 8.26492134 133.74888615 7.50000000 0 0 0
408 1 1 0 8.95654655 132.51102514 7.50000000 0 0 0
409 1 1 0 8.23034008 131.29312962 7.50000000 0 0 0
410 1 1 0 8.92196529 130.05526861 7.50000000 0 0 0
411 1 1 0 8.19575881 128.83737309 7.50000000 0 0 0
412 1 1 0 8.88738403 127.59951208 7.50000000 0 0 0
413 1 1 0 8.16117755 126.38161656 7.50000000 0 0 0
414 1 1 0 8.85280277 125.14375555 7.50000000 0 0 0
415 1 1 0 8.12659629 123.92586003 7.50000000 0 0 0
416 1 1 0 8.81822151 122.68799902 7.50000000 0 0 0
417 1 1 0 8.09201503 121.47010350 7.50000000 0 0 0
418 1 1 0 8.78364025 120.23224249 7.50000000 0 0 0
419 1 1 0 8.05743377 119.01434697 7.50000000 0 0 0
420 1 1 0 8.74905899 117.77648596 7.50000000 0 0 0
421 1 1 0 8.02285251 116.55859044 7.50000000 0 0 0
422 1 1 0 8.71447773 115.32072943 7.50000000 0 0 0
423 1 1 0 7.98827125 114.10283391 7.50000000 0 0 0
424 1 1 0 8.67989647 112.86497290 7.50000000 0 0 0
425 1 1 0 7.95368999 111.64707738 7.50000000 0 0 0
426 1 1 0 8.64531521 110.40921636 7.50000000 0 0 0
427 1 1 0 7.91910873 109.19132085 7.50000000 0 0 0
428 1 1 0 8.61073394 107.95345983 7.50000000 0 0 0
429 1 1 0 7.88452747 106.73556432 7.50000000 0 0 0
430 1 1 0 8.57615268 105.49770330 7.50000000 0 0 0
431 1 1 0 7.84994621 104.27980779 7.50000000 0 0 0
432 1 1 0 8.54157142 103.04194677 7.50000000 0 0 0
433 1 1 0 7.81536495 101.82405126 7.50000000 0 0 0
434 1 1 0 8.50699016 100.58619024 7.50000000 0 0 0
435 1 1 0 7.78078368 99.36829473 7.50000000 0 0 0
436 1 1 0 8.47240890 98.13043371 7.50000000 0 0 0
437 1 1 0 7.74620242 96.91253820 7.50000000 0 0 0
438 1 1 0 8.43782764 95.67467718 7.50000000 0 0 0
439 1 1 0 7.71162116 94.45678167 7.50000000 0 0 0
440 1 1 0 8.40324638 93.21892065 7.50000000 0 0 0
441 1 1 0 7.67703990 92.00102514 7.50000000 0 0 0
442 1 1 0 8.36866512 90.76316412 7.50000000 0 0 0
443 1 1 0 7.64245864 89.54526861 7.50000000 0 0 0
444 1 1 0 8.33408386 88.30740759 7.50000000 0 0 0
445 1 1 0 7.60787738 87.08951208 7.50000000 0 0 0
446 1 1 0 8.29950260 85.85165106 7.50000000 0 0 0
447 1 1 0 7.57329612 84.63375555 7.50000000 0 0 0
448 1 1 0 8.26492134 83.39589453 7.50000000 0 0 0
449 1 1 0 7.53871486 82.17799902 7.50000000 0 0 0
450 1 1 0 8.23034008 80.94013800 7.50000000 0 0 0
451 1 1 0 7.50413360 79.72224249 7.50000000 0 0 0
452 1 1 0 8.19575881 78.48438147 7.50000000 0 0 0
453 1 1 0 7.46955234 77.26648596 7.50000000 0 0 0
454 1 1 0 8.16117755 76.02862494 7.50000000 0 0 0
455 1 1 0 7.43497108 74.81072942 7.50000000 0 0 0
456 1 1 0 8.12659629 73.57286841 7.50000000 0 0 0
457 1 1 0 7.40038982 72.35497289 7.50000000 0 0 0
458 1 1 0 8.09201503 71.11711188 7.50000000 0 0 0
459 1 1 0 7.36580856 69.89921636 7.50000000 0 0 0
460 1 1 0 8.05743377 68.66135535 7.50000000 0 0 0
461 1 1 0 7.33122729 67.44345983 7.50000000 0 0 0
462 1 1 0 8.02285251 66.20559882 7.50000000 0 0 0
463 1 1 0 7.29664603 64.98770330 7.50000000 0 0 0
464 1 1 0 7.98827125 63.74984229 7.50000000 0 0 0
465 1 1 0 7.26206477 62.53194677 7.50000000 0 0 0
466 1 1 0 7.95368999 61.29408576 7.50000000 0 0 0
467 1 1 0 7.22748351 60.07619024 7.50000000 0 0 0
468 1 1 0 7.91910873 58.83832923 7.50000000 0 0 0
469 1 1 0 7.19290225 57.62043371 7.50000000 0 0 0
470 1 1 0 7.88452747 56.38257270 7.50000000 0 0 0
471 1 1 0 7.15832099 55.16467718 7.50000000 0 0 0
472 1 1 0 7.84994621 53.92681617 7.50000000 0 0 0
473 1 1 0 7.12373973 52.70892065 7.50000000 0 0 0
474 1 1 0 7.81536495 51.47105964 7.50000000 0 0 0
475 1 1 0 7.08915847 50.25316412 7.50000000 0 0 0
476 1 1 0 7.78078369 49.01530311 7.50000000 0 0 0
477 1 1 0 7.05457721 47.79740759 7.50000000 0 0 0
478 1 1 0 7.74620242 46.55954658 7.50000000 0 0 0
479 1 1 0 7.01999595 45.34165106 7.50000000 0 0 0
480 1 1 0 7.71162116 44.10379005 7.50000000 0 0 0
481 1 1 0 6.98541469 42.88589453 7.50000000 0 0 0
482 1 1 0 7.67703990 41.64803351 7.50000000 0 0 0
483 1 1 0 6.95083343 40.43013800 7.50000000 0 0 0
484 1 1 0 7.64245864 39.19227698 7.50000000 0 0 0
485 1 1 0 6.91625216 37.97438147 7.50000000 0 0 0
486 1 1 0 7.60787738 36.73652045 7.50000000 0 0 0
487 1 1 0 6.88167090 35.51862494 7.50000000 0 0 0
488 1 1 0 7.57329612 34.28076392 7.50000000 0 0 0
489 1 1 0 6.84708964 33.06286841 7.50000000 0 0 0
490 1 1 0 7.53871486 31.82500739 7.50000000 0 0 0
491 1 1 0 6.81250838 30.60711188 7.50000000 0 0 0
492 1 1 0 7.50413360 29.36925086 7.50000000 0 0 0
493 1 1 0 6.77792712 28.15135535 7.50000000 0 0 0
494 1 1 0 7.46955234 26.91349433 7.50000000 0 0 0
495 1 1 0 6.74334586 25.69559882 7.50000000 0 0 0
496 1 1 0 7.43497108 24.45773780 7.50000000 0 0 0
497 1 1 0 6.70876460 23.23984229 7.50000000 0 0 0
498 1 1 0 7.40038982 22.00198127 7.50000000 0 0 0
499 1 1 0 6.67418334 20.78408576 7.50000000 0 0 0
500 1 1 0 7.36580856 19.54622474 7.50000000 0 0 0
501 1 1 0 6.63960208 18.32832923 7.50000000 0 0 0
502 1 1 0 7.33122729 17.09046821 7.50000000 0 0 0
503 1 1 0 6.60502082 15.87257270 7.50000000 0 0 0
504 1 1 0 7.29664603 14.63471168 7.50000000 0 0 0
505 1 1 0 6.57043956 13.41681617 7.50000000 0 0 0
506 1 1 0 7.26206477 12.17895515 7.50000000 0 0 0
507 1 1 0 6.53585830 10.96105964 7.50000000 0 0 0
508 1 1 0 7.22748351 9.72319862 7.50000000 0 0 0
509 1 1 0 6.50127704 8.50530311 7.50000000 0 0 0
510 1 1 0 7.19290225 7.26744209 7.50000000 0 0 0
511 1 1 0 6.46669577 6.04954657 7.50000000 0 0 0
512 1 1 0 7.15832099 4.81168556 7.50000000 0 0 0
513 1 1 0 6.43211451 3.59379004 7.50000000 0 0 0
514 1 1 0 7.12373973 2.35592903 7.50000000 0 0 0
515 1 1 0 6.39753325 1.13803351 7.50000000 0 0 0
516 1 1 0 11.34265355 150.89925087 7.50000000 0 0 0
517 1 1 0 10.61644707 149.68135535 7.50000000 0 0 0
518 1 1 0 11.30807229 148.44349434 7.50000000 0 0 0
519 1 1 0 10.58186581 147.22559882 7.50000000 0 0 0
520 1 1 0 11.27349103 145.98773780 7.50000000 0 0 0
521 1 1 0 10.54728455 144.76984229 7.50000000 0 0 0
522 1 1 0 11.23890977 143.53198127 7.50000000 0 0 0
523 1 1 0 10.51270329 142.31408576 7.50000000 0 0 0
524 1 1 0 11.20432851 141.07622474 7.50000000 0 0 0
525 1 1 0 10.47812203 139.85832923 7.50000000 0 0 0
526 1 1 0 11.16974725 138.62046821 7.50000000 0 0 0
527 1 1 0 10.44354077 137.40257270 7.50000000 0 0 0
528 1 1 0 11.13516598 136.16471168 7.50000000 0 0 0
529 1 1 0 10.40895951 134.94681617 7.50000000 0 0 0
530 1 1 0 11.10058472 133.70895515 7.50000000 0 0 0
531 1 1 0 10.37437825 132.49105964 7.50000000 0 0 0
532 1 1 0 11.06600346 131.25319862 7.50000000 0 0 0
533 1 1 0 10.33979699 130.03530311 7.50000000 0 0 0
534 1 1 0 11.03142220 128.79744209 7.50000000 0 0 0
535 1 1 0 10.30521572 127.57954658 7.50000000 0 0 0
536 1 1 0 10.99684094 126.34168556 7.50000000 0 0 0
537 1 1 0 10.27063446 125.12379005 7.50000000 0 0 0
538 1 1 0 10.96225968 123.88592903 7.50000000 0 0 0
539 1 1 0 10.23605320 122.66803352 7.50000000 0 0 0
540 1 1 0 10.92767842 121.43017250 7.50000000 0 0 0
541 1 1 0 10.20147194 120.21227699 7.50000000 0 0 0
542 1 1 0 10.89309716 118.97441597 7.50000000 0 0 0
543 1 1 0 10.16689068 117.75652046 7.50000000 0 0 0
544 1 1 0 10.85851590 116.51865944 7.50000000 0 0 0
545 1 1 0 10.13230942 115.30076393 7.50000000 0 0 0
546 1 1 0 10.82393464 114.06290291 7.50000000 0 0 0
547 1 1 0 10.09772816 112.84500740 7.50000000 0 0 0
548 1 1 0 10.78935338 111.60714638 7.50000000 0 0 0
549 1 1 0 10.06314690 110.38925086 7.50000000 0 0 0
550 1 1 0 10.75477212 109.15138985 7.50000000 0 0 0
551 1 1 0 10.02856564 107.93349433 7.50000000 0 0 0
552 1 1 0 10.72019085 106.69563332 7.50000000 0 0 0
553 1 1 0 9.99398438 105.47773780 7.50000000 0 0 0
554 1 1 0 10.68560959 104.23987679 7.50000000 0 0 0
555 1 1 0 9.95940312 103.02198127 7.50000000 0 0 0
556 1 1 0 10.65102833 101.78412026 7.50000000 0 0 0
557 1 1 0 9.92482186 100.56622474 7.50000000 0 0 0
558 1 1 0 10.61644707 99.32836373 7.50000000 0 0 0
559 1 1 0 9.89024060 98.11046821 7.50000000 0 0 0
560 1 1 0 10.58186581 96.87260720 7.50000000 0 0 0
561 1 1 0 9.85565933 95.65471168 7.50000000 0 0 0
562 1 1 0 10.54728455 94.41685067 7.50000000 0 0 0
563 1 1 0 9.82107807 93.19895515 7.50000000 0 0 0
564 1 1 0 10.51270329 91.96109414 7.50000000 0 0 0
565 1 1 0 9.78649681 90.74319862 7.50000000 0 0 0
566 1 1 0 10.47812203 89.50533761 7.50000000 0 0 0
567 1 1 0 9.75191555 88.28744209 7.50000000 0 0 0
568 1 1 0 10.44354077 87.04958108 7.50000000 0 0 0
569 1 1 0 9.71733429 85.83168556 7.50000000 0 0 0
570 1 1 0 10.40895951 84.59382455 7.50000000 0 0 0
571 1 1 0 9.68275303 83.37592903 7.50000000 0 0 0
572 1 1 0 10.37437825 82.13806802 7.50000000 0 0 0
573 1 1 0 9.64817177 80.92017250 7.50000000 0 0 0
574 1 1 0 10.33979699 79.68231149 7.50000000 0 0 0
575 1 1 0 9.61359051 78.46441597 7.50000000 0 0 0
576 1 1 0 10.30521573 77.22655495 7.50000000 0 0 0
577 1 1 0 9.57900925 76.00865944 7.50000000 0 0 0
578 1 1 0 10.27063446 74.77079842 7.50000000 0 0 0
579 1 1 0 9.54442799 73.55290291 7.50000000 0 0 0
580 1 1 0 10.23605320 72.31504189 7.50000000 0 0 0
581 1 1 0 9.50984673 71.09714638 7.50000000 0 0 0
582 1 1 0 10.20147194 69.85928536 7.50000000 0 0 0
583 1 1 0 9.47526547 68.64138985 7.50000000 0 0 0
584 1 1 0 10.16689068 67.40352883 7.50000000 0 0 0
585 1 1 0 9.44068420 66.18563332 7.50000000 0 0 0
586 1 1 0 10.13230942 64.94777230 7.50000000 0 0 0
587 1 1 0 9.40610294 63.72987679 7.50000000 0 0 0
588 1 1 0 10.09772816 62.49201577 7.50000000 0 0 0
589 1 1 0 9.37152168 61.27412026 7.50000000 0 0 0
590 1 1 0 10.06314690 60.03625924 7.50000000 0 0 0
591 1 1 0 9.33694042 58.81836373 7.50000000 0 0 0
592 1 1 0 10.02856564 57.58050271 7.50000000 0 0 0
593 1 1 0 9.30235916 56.36260720 7.50000000 0 0 0
594 1 1 0 9.99398438 55.12474618 7.50000000 0 0 0