ITEM: TIMESTEP
686
ITEM: NUMBER OF ATOMS
37448
ITEM: BOX BOUNDS pp pp pp
0.0000000000000000e+00 1.6803420100000000e+02
0.0000000000000000e+00 2.9104377299999999e+02
0.0000000000000000e+00 1.8399999999999999e+01
ITEM: ATOMS id type x y z c_csym c_2[1] c_2[2] c_2[3] c_2[4] c_2[5] c_2[6] c_3 
272 1 0.874828 8.57933 7.38608 6.01782 -172310 -153957 -3150.56 -16550.4 11780 -2892.98 -7.41377 
273 1 0.143125 7.36512 7.38317 6.02382 -159184 -167291 2132.38 -11531.4 13367 -1259.37 -7.41391 
274 1 0.828387 6.12398 7.38079 6.02236 -169065 -156810 -1019.68 -8056.53 8093.75 -2408.45 -7.41368 
275 1 0.0960669 4.9101 7.37877 6.02615 -160177 -165839 795.401 -4777.83 7896.92 -846.307 -7.41369 
276 1 0.780904 3.66875 7.37734 6.0255 -166355 -159415 5.33975 -2954.62 4660.58 -1822.77 -7.4136 
277 1 0.0482176 2.45506 7.37621 6.028 -161341 -164378 354.676 -1118.73 3516.99 -433.563 -7.41358 
278 1 0.73284 1.21361 7.37565 6.02826 -163940 -161792 304.059 -630.447 1481.8 -1221.28 -7.41356 
510 1 2.2923 8.55159 7.38672 6.01971 -166679 -160035 2515.38 -13636.8 16132.1 -3848.54 -7.41407 
511 1 2.97761 7.31041 7.38433 6.01986 -177441 -148933 -968.863 -11498.5 9976.4 -7103.07 -7.41381 
512 1 2.24584 6.09621 7.38139 6.02279 -164881 -161365 789.416 -5267.04 10121.3 -3518.66 -7.41379 
513 1 2.9307 4.85483 7.37993 6.02337 -172022 -154174 201.293 -4846.16 6381.56 -5961.2 -7.41371 
514 1 2.19834 3.64095 7.37791 6.02527 -163776 -162213 178.637 -284.818 5143.52 -3202.14 -7.41363 
515 1 2.88298 2.39949 7.37734 6.02648 -167183 -158732 471.796 -1255.51 3021.43 -4840.54 -7.41362 
516 1 2.15027 1.18579 7.37621 6.02701 -163050 -162722 198.833 1992.07 1187.74 -2957.03 -7.41357 
747 1 5.126 8.49762 7.38968 6.01711 -188590 -138145 283.205 -13701.6 12262.1 -12511.7 -7.41405 
748 1 4.39503 7.28294 7.38582 6.01716 -172590 -154157 -192.051 -4547.26 12635.9 -6251.98 -7.41391 
749 1 5.07993 6.04153 7.38435 6.02083 -180320 -146238 1332.14 -5375.15 8654.76 -10934.2 -7.41392 
750 1 4.34812 4.82731 7.38138 6.0213 -168647 -157628 -754.997 1960.55 7040.65 -6094.76 -7.41372 
751 1 5.03278 3.58583 7.38081 6.02432 -172892 -153469 1299.22 -485.664 5103.54 -9316.97 -7.41379 
752 1 4.3004 2.37193 7.37876 6.02402 -165481 -160557 -446.103 5370.33 2456.88 -6003.71 -7.41364 
753 1 4.98502 1.13047 7.37906 6.02506 -166092 -160143 595.096 1595.8 1647.67 -7860.05 -7.41369 
984 1 6.54339 8.47073 7.39202 6.00998 -183163 -143736 -2499.08 -2423.51 15256.5 -8915.52 -7.41402 
985 1 7.22834 7.22928 7.3906 6.01709 -191743 -135246 3833.94 -4349.35 11277.9 -16627.9 -7.41426 
986 1 6.49732 6.01456 7.38669 6.01555 -176300 -150181 -2821.36 5724.04 9195.93 -9109.91 -7.41381 
987 1 7.18202 4.77305 7.38614 6.02172 -181302 -145346 3263.82 2057.89 7695.36 -14689.8 -7.41408 
988 1 6.45018 3.55879 7.38313 6.01987 -170393 -155781 -2020.8 10489.3 3958.67 -9274.79 -7.41372 
989 1 7.13483 2.31732 7.38345 6.02261 -171711 -154678 1817.52 5317.97 4082.08 -12806.7 -7.41391 
990 1 6.40244 1.10337 7.38138 6.02192 -165195 -160931 -595.377 12463.3 -412.179 -9568.26 -7.41372 
1221 1 9.37565 8.41855 7.39847 6.0104 -206051 -121223 8001.52 -1433.65 13924.2 -22598.6 -7.41476 
1222 1 8.64569 7.20314 7.39374 6.00834 -187229 -139634 -6325.51 11321.4 11389.7 -11969.5 -7.41389 
1223 1 9.33043 5.96161 7.39324 6.01658 -193118 -134335 6749.74 6645.63 10572.2 -20620.8 -7.41452 
1224 1 8.59938 4.74681 7.38932 6.01475 -178274 -148267 -4872.48 17638.8 5643.21 -12581.9 -7.4138 
1225 1 9.28408 3.50534 7.38969 6.01985 -180646 -146682 4372.89 11229 6967.15 -18516.1 -7.41427 
1226 1 8.55223 2.291 7.38668 6.01831 -170214 -156265 -2518.78 20760.1 644.22 -13199 -7.41382 
1227 1 9.23707 1.04968 7.3879 6.01656 -168620 -158438 1341.83 12943.1 3201.47 -16502.1 -7.41406 
1458 1 10.7929 8.39353 7.40219 6.00022 -200982 -125879 -11451.7 18464.1 13297.6 -14288.8 -7.41392 
1459 1 11.4778 7.15198 7.40179 6.01 -207216 -120231 11956.8 13187.7 13420 -26506.2 -7.41511 
1460 1 10.7477 5.93648 7.39713 6.00795 -189458 -137509 -9257.22 26694.4 7292.85 -15530.2 -7.41385 
1461 1 11.4325 4.695 7.39753 6.016 -192013 -135478 8574.89 19473.1 10073.4 -24454.7 -7.41478 
1462 1 10.7014 3.48011 7.39369 6.01373 -178383 -148433 -5857.37 31361.6 1803.06 -16631.3 -7.41389 
1463 1 11.3863 2.2388 7.39494 6.01243 -177231 -150171 4252.49 22430.4 6412.34 -22282.7 -7.41447 
1464 1 10.6545 1.02438 7.392 6.01557 -167824 -159054 -1783.76 33043.6 -3048.84 -17735.9 -7.41403 
1695 1 13.6238 8.34458 7.4112 6.00245 -223152 -103816 18824.4 21492.9 15942.7 -31694.5 -7.41584 
1696 1 12.895 7.12822 7.40607 6.0003 -202952 -123882 -15275.9 37362.9 8639.11 -17725.3 -7.41384 
1697 1 13.5799 5.88676 7.40652 6.00972 -206166 -121631 14510 29676.7 13104.2 -29948.4 -7.41545 
1698 1 12.8498 4.67116 7.40207 6.00848 -189165 -137722 -10817.4 43864.6 2884.09 -19424.5 -7.41392 
1699 1 13.5348 3.42988 7.40331 6.00845 -188771 -139078 8906.47 34224.5 9768.94 -27873.1 -7.41504 
1700 1 12.8037 2.21488 7.39967 6.01206 -175843 -151328 -5347.36 47046 -2376.99 -20979.4 -7.41412 
1701 1 13.4891 0.9739 7.4017 6.0037 -171464 -156448 2560.91 35709.1 6050.73 -25627.1 -7.41465 
1932 1 15.041 8.32242 7.41551 5.9926 -218322 -108315 -22809.4 48795 9479.07 -18946.7 -7.41374 
1933 1 15.726 7.081 7.41598 6.00261 -221414 -105910 21997.3 41178.6 15806.2 -34408.9 -7.41624 
1934 1 14.9971 5.86455 7.41121 6.00201 -202731 -124649 -17412.1 57597.5 3694.55 -21246.5 -7.41388 
1935 1 15.6822 4.62333 7.4124 6.00386 -202213 -125657 15279.1 47777.5 13002.4 -32638.8 -7.41574 
1936 1 14.9521 3.40761 7.40832 6.00861 -186777 -140826 -10623.5 62689.1 -1788.21 -23300.4 -7.41413 
1937 1 15.6376 2.16669 7.41026 5.99885 -182710 -145542 7430.25 50786.5 9692.66 -30504 -7.41524 
1938 1 14.9064 0.951588 7.40697 6.0066 -170882 -156910 -3041.14 64234.1 -6777.58 -25179.3 -7.41448 
2169 1 17.8707 8.27797 7.42524 5.99536 -236712 -89052 30625.4 53243 18017.5 -37491.7 -7.4171 
2170 1 17.1431 7.06056 7.42042 5.99522 -217148 -109648 -25414.2 71644 4125.06 -21987.5 -7.41375 
2171 1 17.8285 5.81945 7.42152 5.99841 -216793 -110494 23091 62075.2 15891.4 -36140.3 -7.41655 
2172 1 17.0995 4.60289 7.41728 6.00437 -199434 -127982 -17535.1 78929.8 -1391.03 -24487.7 -7.41406 
2173 1 17.7851 3.36207 7.41906 5.99477 -195750 -132199 14003.9 67065.7 13141.3 -34290.1 -7.41595 
2174 1 17.0549 2.14624 7.41552 6.00253 -181413 -146400 -8447.24 82420.2 -6528.93 -26733.4 -7.41448 
2175 1 17.7411 0.905835 7.41795 5.98877 -174301 -154232 3984.58 68425.9 9858.97 -32032.2 -7.41535 
2406 1 19.2878 8.25936 7.42908 5.98894 -231717 -94054.7 -34383.1 84878.7 4170.54 -21755.2 -7.41354 
2407 1 19.9734 7.01839 7.43002 5.99338 -231216 -94719.4 31872.1 76111.6 18301.1 -38213.7 -7.41741 
2408 1 19.2456 5.80092 7.42586 5.99934 -213238 -113879 -25758.3 94682.4 -1226.98 -24566.1 -7.41391 
2409 1 19.9315 4.56024 7.42745 5.99022 -209744 -117615 21927.4 83393.8 16205.3 -36733.8 -7.41674 
2410 1 19.2024 3.3436 7.4239 5.99921 -193749 -133930 -15493.1 100431 -6382.23 -27096.2 -7.41439 
2411 1 19.8888 2.10331 7.4261 5.98445 -187145 -141095 10601.9 86672.5 13498.5 -34746.4 -7.41604 
2412 1 19.1585 0.887389 7.42322 5.99258 -173894 -154331 -4257.89 102098 -11062.9 -29363.3 -7.41497 
2643 1 22.1169 8.22018 7.43743 5.98693 -244393 -79214.9 41082.5 89065 20181.2 -38943.7 -7.41827 
2644 1 21.3905 7.00177 7.43352 5.99394 -226758 -99278.6 -34793.4 109061 -1262.67 -23738.1 -7.41367 
2645 1 22.0767 5.76127 7.43484 5.98515 -223280 -102732 30702.7 98717.2 18775.5 -37836.6 -7.41757 
2646 1 21.3487 4.54376 7.43151 5.99684 -206925 -120559 -23776.2 117209 -6333.27 -26420.5 -7.4142 
2647 1 22.0353 3.30363 7.43344 5.98136 -200595 -126891 18520.6 104344 16691.2 -36186 -7.41679 
2648 1 21.306 2.08692 7.43071 5.98883 -185957 -141964 -11333.9 121126 -11018 -28834.3 -7.41485 
2649 1 21.9933 0.847264 7.43316 5.97464 -176889 -151466 5206.23 105844 13979 -34042.3 -7.41599 
2880 1 23.534 8.20539 7.43987 5.98931 -238950 -84995.1 -44094.5 121310 -1424.27 -22282.5 -7.41338 
2881 1 24.2206 6.96511 7.44087 5.98101 -235571 -88023.2 39807.7 112391 20812.9 -37783.9 -7.41838 
2882 1 23.4938 5.74671 7.43787 5.99353 -219349 -106615 -32764.7 131985 -6337.35 -24980.2 -7.41394 
2883 1 24.1808 4.50677 7.4395 5.97752 -213601 -112331 27235 120320 19353.7 -36472.4 -7.41756 
2884 1 23.4526 3.28923 7.4371 5.98616 -198423 -128714 -19594.6 138257 -10973.4 -27426.6 -7.41463 
2885 1 24.1401 2.04974 7.43929 5.97167 -190072 -137320 13091 123972 17226.3 -34652.4 -7.41669 
2886 1 23.4107 0.832955 7.43744 5.97854 -176612 -151274 -5297.66 140121 -15087.1 -29628.2 -7.41541 
3117 1 26.3632 8.17161 7.44533 5.97783 -246254 -74607.4 48786.3 123818 22331.7 -36845.9 -7.41916 
3118 1 25.6376 6.95234 7.4427 5.99007 -230710 -93378.3 -41926.7 144195 -6340.43 -23071.3 -7.41363 
3119 1 26.325 5.71263 7.444 5.97359 -225541 -98500.1 36237 134062 21467.3 -35835.2 -7.41833 
3120 1 25.5979 4.49424 7.44202 5.98454 -210473 -115587 -28498.1 152850 -10888.2 -25448.2 -7.41434 
3121 1 26.2858 3.25494 7.44396 5.96998 -202978 -123183 21753.3 140068 19904.4 -34338.3 -7.41741 
3122 1 25.5574 2.03737 7.44255 5.97583 -188847 -138210 -13510.5 157063 -14998.1 -27604.2 -7.41515 
3123 1 26.2459 0.798563 7.44499 5.96311 -178984 -148446 6017.36 141781 17661.6 -32387.6 -7.41646 
3354 1 27.7802 8.16047 7.44593 5.98626 -240364 -81116.3 -50829.9 153596 -6296.73 -20944.6 -7.41331 
3356 1 27.7421 5.70182 7.44529 5.98256 -221251 -102882 -37537.8 164597 -10727 -23182.2 -7.414 
3358 1 27.7029 3.24437 7.44606 5.97427 -200649 -125296 -22337.5 171105 -14822 -25221.8 -7.41483 
3360 1 27.6632 0.788127 7.44795 5.96626 -178748 -148032 -5943.48 173131 -18347.6 -27080.3 -7.41575 
3355 1 28.468 6.92102 7.44682 5.97065 -235545 -85601.6 45105.9 145233 23061 -34531.4 -7.41905 
3357 1 28.4303 4.46273 7.44695 5.96712 -214546 -109674 30705.3 153473 22022.3 -33328.9 -7.41812 
3359 1 28.3918 2.00573 7.44837 5.9617 -191714 -134345 14666.5 157447 20296.2 -31693.2 -7.41713 
3591 1 30.6099 8.13172 7.44802 5.96867 -243838 -74191.8 53535.5 153760 24187.9 -32793.3 -7.41973 
3592 1 29.885 6.91174 7.44687 5.98002 -230210 -91244.2 -46319.4 173417 -10467.8 -20841 -7.41365 
3593 1 30.5737 5.67289 7.44823 5.96449 -224577 -97159.7 39544.7 164164 23623.6 -31842.4 -7.4188 
3594 1 29.8474 4.45376 7.44785 5.97367 -211052 -112994 -31304.2 182213 -14534.1 -22725.6 -7.41446 
3595 1 30.5365 3.21531 7.45002 5.96043 -203415 -121022 23624.7 170342 22369.4 -30496.5 -7.41779 
3596 1 29.809 1.99696 7.45022 5.96488 -190376 -135265 -14722 186526 -18117.4 -24446.7 -7.41539 
3597 1 30.4988 0.758983 7.45299 5.95437 -180504 -145352 6436.62 172289 20431.6 -28780.3 -7.41675 
3828 1 32.0269 8.1238 7.44688 5.97827 -237613 -81108.2 -54579 179506 -10106.9 -18561.9 -7.41331 
3829 1 32.716 6.88521 7.44787 5.96278 -232800 -86196.8 47982.2 172158 24775 -30061.5 -7.41944 
3830 1 31.9908 5.66534 7.44793 5.97337 -220033 -101840 -40044.3 190386 -14126 -20280.1 -7.41408 
3831 1 32.6803 4.4271 7.44994 5.95936 -213603 -108856 32504.2 180432 23944.1 -28969.7 -7.41844 
3832 1 31.9537 3.20803 7.45074 5.96447 -200923 -123231 -23665.2 196895 -17763.5 -21847.2 -7.41499 
3833 1 32.6437 1.9702 7.45356 5.95314 -192404 -132156 15433.5 184499 22445.5 -27534.4 -7.41738 
3834 1 31.916 0.75186 7.4548 5.95661 -180295 -145003 -6121.66 198976 -20806.2 -23288.8 -7.41599 
4065 1 34.8572 8.09944 7.44609 5.96185 -239057 -76619.7 55841.9 177562 25548.9 -28128.4 -7.42002 
4066 1 34.133 6.87889 7.44646 5.97182 -227159 -91855.5 -48317.5 195810 -13604.1 -17977.5 -7.41371 
4067 1 34.8229 5.64087 7.44826 5.95785 -221833 -97910.8 41029.2 187779 25094.2 -27250.3 -7.41904 
4068 1 34.0974 4.42111 7.44956 5.96485 -209899 -112221 -32434.6 204423 -17281.8 -19395.7 -7.41458 
4069 1 34.7877 3.18346 7.4524 5.95288 -202695 -120040 24392.9 193949 23987.6 -26064 -7.41799 
4070 1 34.0609 1.96443 7.45433 5.95642 -190960 -133069 -15076.2 208716 -20450.1 -20691.1 -7.41556 
4071 1 34.7519 0.727211 7.4579 5.94707 -181716 -142623 6551.46 196015 22233.7 -24591 -7.41691 
4302 1 36.2743 8.09419 7.44367 5.97096 -232554 -83354.5 -55992.2 198833 -12983.7 -15857.8 -7.41337 
4303 1 36.9646 6.85641 7.44519 5.95713 -228427 -88469.7 49029.8 192684 25896.4 -25442.5 -7.41961 
4304 1 36.24 5.63601 7.44686 5.9658 -217055 -102429 -40803.9 209314 -16679.6 -17143.2 -7.41418 
4305 1 36.9307 4.39854 7.44966 5.95334 -211387 -109156 33050 200783 25136.9 -24470 -7.41858 
4306 1 36.2049 3.17887 7.45217 5.95696 -200031 -122152 -23917.2 215696 -19962.2 -18307.8 -7.41512 
4307 1 36.8961 1.94178 7.45594 5.94692 -192373 -130579 15594.3 204850 23757.6 -23233.9 -7.4175 
4308 1 36.1691 0.72278 7.45891 5.94955 -181446 -142300 -5957.63 217810 -22642.6 -19377.5 -7.41615 
4539 1 39.1054 8.07351 7.44097 5.95702 -233251 -80475.2 56423.8 195358 26418.8 -23626 -7.42014 
4540 1 38.3817 6.8525 7.44287 5.9655 -222667 -94007 -48644.4 211910 -15973.5 -15102.1 -7.41381 
4541 1 39.0728 5.61524 7.44554 5.95327 -218293 -99763 41241 205209 25967.9 -22829.8 -7.41914 
4542 1 38.3478 4.39496 7.44849 5.95808 -207617 -112532 -32430.1 220183 -19349.1 -16156.6 -7.41469 
4543 1 39.0393 3.15801 7.45239 5.94754 -201336 -119740 24391.6 211279 24919.8 -21799.4 -7.41807 
4544 1 38.3132 1.93841 7.45603 5.95023 -190857 -131462 -14879.6 224423 -22202.1 -17109.6 -7.41568 
4545 1 39.0052 0.701844 7.46075 5.94216 -182535 -140210 6444.39 213416 23281 -20556.2 -7.41698 
4776 1 40.5224 8.07042 7.43783 5.96537 -226550 -86679.8 -55902.3 212543 -15182 -13270.1 -7.41346 
4777 1 41.2139 6.83336 7.44029 5.95325 -223406 -91506.7 48885.1 207582 26543.5 -21202.6 -7.41966 
4778 1 40.4898 5.61251 7.44353 5.95962 -213374 -103954 -40485.8 222527 -18622.8 -14231.4 -7.41429 
4779 1 41.1816 4.37573 7.44746 5.94867 -208612 -110151 32787.5 215407 25790.2 -20346.3 -7.41862 
4780 1 40.4564 3.15555 7.45162 5.95147 -198582 -121715 -23544.4 228655 -21629.3 -15089.8 -7.41523 
4781 1 41.1486 1.9191 7.45662 5.94278 -191839 -129402 15359.4 219398 24474.2 -19295 -7.41755 
4782 1 40.4225 0.699535 7.46127 5.94466 -182222 -139946 -5641.48 230787 -24035.8 -15864 -7.41626 
5013 1 43.3543 8.05274 7.43412 5.95375 -227129 -84659.3 55952.2 208203 26909.9 -19626.3 -7.42014 
5014 1 42.631 6.83137 7.43752 5.96083 -217558 -96620 -48023.9 223014 -17799.7 -12518 -7.41392 
5015 1 43.3231 5.59475 7.44136 5.9501 -214293 -101898 40697.9 217557 26422.9 -18917.5 -7.41914 
5016 1 42.5987 4.37404 7.44589 5.95311 -204757 -113212 -31824.6 230842 -20933.5 -13298.7 -7.4148 
5017 1 43.2912 3.13771 7.45106 5.94395 -199457 -119723 23941.1 223400 25394.5 -18033 -7.41809 
5018 1 42.5658 1.91761 7.45632 5.94595 -190261 -130216 -14431.9 234980 -23540 -13987.3 -7.41578 
5019 1 43.2587 0.681608 7.46235 5.9391 -182861 -138089 6203.28 225582 23831.7 -16995 -7.41702 
5250 1 44.7713 8.05135 7.43063 5.96126 -220367 -90331.9 -55017.1 221955 -16896.6 -11004.1 -7.41357 
5251 1 45.4638 6.81492 7.43429 5.95071 -218358 -94707 48080.3 218077 26856 -17538.1 -7.41963 
5252 1 44.7402 5.59371 7.43906 5.95504 -209341 -105729 -39645.9 231361 -20127.3 -11718.2 -7.4144 
5253 1 45.433 4.35752 7.44428 5.9455 -205738 -111309 32098.8 225520 26088.8 -16800.3 -7.41861 
5254 1 44.7083 3.13691 7.45001 5.94762 -196691 -121577 -22905.7 237191 -22910.9 -12337.9 -7.41533 
5255 1 45.4014 1.901 7.45633 5.94017 -191131 -128391 14923 229442 24810.8 -15917.7 -7.41756 
5256 1 44.6759 0.68095 7.46256 5.94146 -182485 -137773 -5307.87 239335 -25104 -12879.3 -7.41633 
5487 1 47.6038 8.0361 7.42642 5.95157 -221021 -88695.7 54914.1 217207 27112 -16212 -7.42009 
5488 1 46.8809 6.81443 7.4313 5.95716 -212460 -99254.2 -46967.7 230374 -19225.8 -10330.9 -7.41403 
5489 1 47.574 5.57838 7.43645 5.94712 -210232 -103966 39778.6 226030 26588 -15609.3 -7.41911 
5490 1 46.8501 4.3573 7.44251 5.94958 -201840 -114004 -30980.2 237769 -22159 -10894.4 -7.4149 
5491 1 47.5434 3.12149 7.44901 5.94167 -197502 -119792 23283.6 231624 25570.5 -14868.4 -7.41808 
5492 1 46.8186 1.90097 7.45581 5.94311 -189519 -129114 -13919.5 241750 -24568.9 -11371.5 -7.41586 
5493 1 47.5123 0.665446 7.46317 5.93734 -183025 -136043 5908.42 233841 24067.4 -14010.8 -7.41703 
5724 1 49.0209 8.03606 7.4228 5.95827 -214303 -93925.7 -53759.6 228198 -18248.7 -9116.48 -7.41369 
5725 1 49.7143 6.80016 7.42778 5.94887 -213463 -97729.8 46938.1 225305 26909.4 -14452.8 -7.41957 
5726 1 48.9911 5.57866 7.43402 5.95171 -205301 -107434 -38596.6 237027 -21299.2 -9637.47 -7.4145 
5727 1 49.6847 4.34296 7.44058 5.9434 -202808 -112296 31213.7 232350 26135.9 -13848.3 -7.41857 
5728 1 48.9605 3.12199 7.4478 5.94501 -194702 -121373 -22190.5 242569 -23901.6 -10066.5 -7.41541 
5729 1 49.6544 1.88654 7.45547 5.93862 -190177 -127354 14406.7 236134 24896.6 -13124.9 -7.41755 
5730 1 48.9295 0.666069 7.4632 5.93949 -182578 -135663 -5008.32 244689 -25930.2 -10421.8 -7.41639 
5961 1 51.854 8.02275 7.41854 5.95015 -215326 -92554.3 53546.3 223460 27065.5 -13312.7 -7.42001 
5962 1 51.1314 6.80085 7.42476 5.95395 -207603 -101841 -45706.9 235138 -20349.5 -8540.98 -7.41413 
5963 1 51.8253 5.56527 7.43127 5.94508 -206444 -105913 38653.7 231784 26524.1 -12840.5 -7.41905 
5964 1 51.1018 4.3439 7.43873 5.94711 -198975 -114804 -30047.3 242130 -23114.3 -8939.39 -7.41499 
5965 1 51.7959 3.10853 7.44659 5.94028 -195699 -119865 22523.1 237116 25533.1 -12249.6 -7.41805 
5966 1 51.0716 1.88764 7.45482 5.9413 -188618 -128104 -13409.2 245931 -25368.9 -9253.8 -7.41592 
5967 1 51.766 0.652518 7.46352 5.93641 -183192 -134182 5590.79 239298 24100.5 -11555 -7.41704 
6198 1 53.2711 8.02378 7.41508 5.95609 -208632 -97286.7 -52273.5 232300 -19334 -7570.65 -7.4138 
6199 1 53.9653 6.78834 7.42143 5.94686 -208821 -100488 45557.5 230268 26745.1 -11822.8 -7.41949 
6200 1 53.2424 5.56659 7.4289 5.94928 -201532 -109022 -37426.1 240625 -22226.3 -7961.59 -7.41459 
6201 1 53.9367 4.33131 7.43682 5.942 -199969 -113212 30184.6 236932 25992.2 -11364.5 -7.41852 
6202 1 53.213 3.11004 7.44535 5.94327 -192892 -121240 -21443.1 245896 -24678.8 -8259.42 -7.41548 
6203 1 53.9075 1.87497 7.45435 5.9378 -189194 -126497 13826 240552 24816.7 -10797.4 -7.41753 
6204 1 53.1832 0.654144 7.46344 5.93833 -182712 -133794 -4750.86 247934 -26581.3 -8485.91 -7.41643 
6436 1 55.3824 6.78996 7.41872 5.9515 -203012 -104301 -44275.9 238225 -21259.4 -7091.02 -7.41423 
6438 1 55.3538 4.33316 7.43513 5.94534 -196158 -115523 -29034 244828 -23876.2 -7398.85 -7.41507 
6440 1 55.3247 1.87698 7.45372 5.94015 -187572 -127043 -12900.6 248464 -26002 -7622.45 -7.41597 
6435 1 56.1047 8.01205 7.41153 5.94863 -209976 -96169.7 51894.2 227879 26809.6 -10775.4 -7.41991 
6437 1 56.0769 5.55479 7.42658 5.94364 -202861 -107728 37329.1 235743 26286.2 -10441.6 -7.41897 
6439 1 56.0485 3.09816 7.4443 5.93943 -193886 -119826 21643.1 240824 25357.9 -10004 -7.41801 
6441 1 56.0197 0.642183 7.46366 5.936 -183199 -132336 5230.41 242914 24029.6 -9467.46 -7.41703 
6672 1 57.5218 8.01392 7.40874 5.95351 -203296 -100555 -50566.6 235082 -20237.9 -6283.92 -7.41391 
6673 1 58.2167 6.77887 7.41644 5.94528 -204374 -103162 43919.6 233799 26427.3 -9465.29 -7.4194 
6674 1 57.4941 5.55692 7.42466 5.94744 -198002 -110669 -36120.4 242979 -22982.9 -6627.65 -7.41469 
6675 1 58.189 4.32201 7.43385 5.94102 -197270 -114237 28971.5 240115 25738 -9148.71 -7.41846 
6676 1 57.4657 3.10049 7.44329 5.94206 -191165 -121261 -20650 247959 -25299.3 -6878.41 -7.41554 
6677 1 58.1608 1.86574 7.45346 5.93741 -188289 -125757 13141.9 243592 24668.1 -8737.71 -7.41751 
6678 1 57.4369 0.644608 7.46359 5.93768 -182778 -132127 -4534.4 249944 -27092.7 -7052.59 -7.41646 
6909 1 60.3559 8.00348 7.40708 5.9469 -204885 -99723.9 49951.7 231167 26427.8 -8434.42 -7.41979 
6910 1 59.6338 6.78124 7.41458 5.94941 -198579 -106799 -42668.5 240347 -22021.4 -5898.24 -7.41434 
6911 1 60.3289 5.54642 7.42368 5.94251 -199274 -109554 35771.8 238652 25970.1 -8220.06 -7.41889 
6912 1 59.6061 4.3246 7.43271 5.94399 -193411 -116326 -27927.5 246624 -24492.9 -6204.04 -7.41514 
6913 1 60.3014 3.08991 7.44296 5.93889 -191934 -119952 20603.7 243474 25149.8 -7928.02 -7.41796 
6914 1 59.5779 1.86847 7.45305 5.93938 -186593 -126199 -12389 250078 -26493.2 -6421.43 -7.41602 
6915 1 60.2734 0.633955 7.4639 5.93591 -182947 -130716 4797.71 245493 23967.1 -7555.86 -7.41702 
7146 1 61.7731 8.00604 7.40561 5.9512 -198225 -104022 -48674.4 237105 -21013 -5173.65 -7.41403 
7147 1 62.4685 6.77132 7.41451 5.94393 -200124 -105999 42035.9 236517 26069.6 -7220.83 -7.41929 
7148 1 61.7461 5.54923 7.42271 5.94591 -194455 -112503 -34697.2 244624 -23604.3 -5548.32 -7.41478 
7149 1 62.4415 4.31462 7.43288 5.94023 -194626 -115372 27569.3 242563 25490.8 -7027.34 -7.41839 
7150 1 61.7185 3.09289 7.44249 5.94112 -189229 -121413 -19815.8 249367 -25776.9 -5834.72 -7.41561 
7151 1 62.4141 1.85842 7.4534 5.93717 -187292 -125175 12341.7 245876 24567.9 -6771.51 -7.41748 
7152 1 61.6906 0.637028 7.46392 5.93727 -182525 -130637 -4360.21 251269 -27452.2 -6035.4 -7.41649 
7383 1 64.6077 7.99664 7.40711 5.9453 -199939 -103497 47795.3 233733 26054.2 -6170.8 -7.41967 
7384 1 63.8857 6.77431 7.41407 5.94752 -194327 -109637 -40956.6 241884 -22652.8 -4877.78 -7.41445 
7385 1 64.5813 5.53978 7.42402 5.94144 -195847 -111730 34038.2 240908 25707.8 -6048.61 -7.4188 
7386 1 63.8587 4.31781 7.43268 5.94283 -190791 -117557 -26772.4 247905 -24964.2 -5245.94 -7.41523 
7387 1 64.5544 3.08339 7.44347 5.93845 -190030 -120463 19436.5 245561 25033.7 -5890.63 -7.41791 
7388 1 63.8313 1.86174 7.4534 5.93878 -185632 -125791 -11890.3 251231 -26822.1 -5526.09 -7.41607 
7389 1 64.5271 0.627457 7.46448 5.93596 -182725 -129566 4298.81 247516 24024.2 -5689.28 -7.41702 
7620 1 66.0249 7.99977 7.40753 5.94906 -193290 -107939 -46737.3 238589 -21656.9 -4174.7 -7.41415 
7621 1 66.7207 6.76534 7.41716 5.94263 -195929 -109267 40041.5 238674 25818.6 -5014.76 -7.41918 
7622 1 65.9985 5.54315 7.42443 5.94437 -191032 -114832 -33258.8 245794 -24074.4 -4620.2 -7.41488 
7623 1 66.6943 4.3088 7.43494 5.93948 -191891 -116937 26080.8 244528 25380.8 -4927.39 -7.41832 
7624 1 65.9716 3.08692 7.44378 5.94027 -187266 -121959 -18995.9 250343 -26082 -4990.11 -7.41567 
7625 1 66.6675 1.85267 7.45465 5.93697 -186062 -124896 11484.2 247741 24623.9 -4824.4 -7.41744 
7626 1 65.9443 0.631063 7.46465 5.93695 -182188 -129452 -4230.08 252235 -27618.1 -5268.62 -7.41652 
7857 1 68.8598 7.99121 7.41298 5.94375 -194988 -107859 45641.1 235789 25842.5 -3958.37 -7.41955 
7858 1 68.1379 6.76884 7.41849 5.94572 -190120 -113084 -39309.6 243004 -23122 -3946.69 -7.41456 
7859 1 68.834 5.53456 7.42859 5.94042 -192393 -114447 32310.2 242756 25629.2 -3913.17 -7.41871 
7860 1 68.1115 4.31249 7.4359 5.94171 -188080 -119330 -25676.8 248809 -25251.2 -4396.57 -7.41531 
7861 1 68.8076 3.07828 7.44638 5.93794 -188199 -121472 18269.7 247272 25110.4 -3879.69 -7.41786 
7862 1 68.0847 1.85647 7.45515 5.93823 -184492 -125904 -11438.9 252062 -26945 -4765.88 -7.41611 
7863 1 68.7809 0.622375 7.46551 5.93602 -182535 -128849 3792.46 249235 24271 -3849.43 -7.41701 
8094 1 70.2771 7.9948 7.41547 5.94699 -188280 -112477 -44980.2 239655 -22118.1 -3229.78 -7.41427 
8095 1 70.9733 6.76062 7.42506 5.94135 -191738 -113069 38188 240439 25794.1 -2881.92 -7.41908 
8096 1 70.2512 5.53838 7.43049 5.94286 -187535 -117694 -31969.1 246640 -24343.5 -3740.65 -7.41497 
8097 1 70.9474 4.30424 7.44043 5.9387 -189158 -119073 24699.1 246127 25497.7 -2891.41 -7.41825 
8098 1 70.2248 3.08225 7.44754 5.93946 -185433 -123197 -18272.9 251065 -26170.2 -4190.9 -7.41573 
8099 1 70.9211 1.84818 7.45737 5.93684 -184902 -125317 10683.3 249316 24894.1 -2930.84 -7.41742 
8100 1 70.1981 0.626411 7.46584 5.93666 -181971 -128843 -4136.53 252889 -27551.7 -4556.98 -7.41654 
8331 1 73.1125 7.98688 7.42479 5.94223 -190027 -112822 43785.6 237478 25890.8 -1867.75 -7.41945 
8332 1 72.3906 6.76451 7.4281 5.94396 -185907 -117139 -37928.7 243802 -23365.9 -3031.15 -7.41466 
8333 1 73.087 5.53045 7.43739 5.93941 -188888 -117737 30831 244319 25800.4 -1894.61 -7.41863 
8334 1 72.3646 4.30832 7.4425 5.9405 -185309 -121635 -24766.2 249436 -25306.3 -3540.44 -7.41538 
8335 1 73.061 3.07429 7.45165 5.93745 -186247 -122967 17272 248734 25415.5 -1975.7 -7.41781 
8336 1 72.3383 1.85237 7.45834 5.93769 -183246 -126342 -11069.4 252551 -26831.1 -3982.92 -7.41615 
8337 1 73.0347 0.618408 7.46695 5.93609 -182101 -128412 3354.57 250634 24715.1 -2100.39 -7.417 
8568 1 74.5298 7.99081 7.42909 5.94498 -183222 -117571 -43621.1 240409 -22320.5 -2288.04 -7.41437 
8570 1 74.5042 5.5346 7.44056 5.9414 -183975 -121102 -30975.7 247196 -24358.6 -2829.16 -7.41505 
8572 1 74.4782 3.07859 7.45351 5.93862 -183483 -124859 -17715.2 251490 -26013.6 -3326.46 -7.41578 
8574 1 74.4519 0.622768 7.46739 5.93641 -181624 -128767 -4064.16 253285 -27250.5 -3754.23 -7.41656 
8569 1 75.2264 6.75684 7.43765 5.94009 -187396 -117446 36732.6 241905 26029 -923.65 -7.41901 
8571 1 75.2007 4.30063 7.44892 5.93794 -186375 -121715 23617.2 247469 25847.7 -1020.62 -7.4182 
8573 1 75.1747 1.84465 7.46132 5.93665 -183773 -126164 10051.6 250593 25361.9 -1182.8 -7.41739 
8805 1 77.3657 7.98333 7.44136 5.94075 -184981 -118292 42466.4 238823 26187.4 -5.81167 -7.41937 
8806 1 76.6436 6.76102 7.44199 5.94224 -181522 -121665 -36961.1 244240 -23327.6 -2081.33 -7.41474 
8807 1 77.3403 5.52713 7.4495 5.93843 -185287 -121483 29780.9 245545 26196.6 -96.9785 -7.41858 
8808 1 76.6179 4.30499 7.45182 5.93932 -182487 -124394 -24123.5 249743 -25103.4 -2607.26 -7.41543 
8809 1 77.3146 3.0711 7.45872 5.93696 -184160 -124875 16559.4 249903 25911.5 -271.457 -7.41778 
8810 1 76.5919 1.84912 7.46262 5.93718 -182065 -127230 -10800.9 252794 -26486.4 -3085.23 -7.41618 
8811 1 77.2886 0.615256 7.46863 5.9361 -181647 -128423 3032.13 251796 25306.2 -514.352 -7.41699 
9042 1 78.7829 7.98749 7.44687 5.94303 -178094 -123136 -42777.5 240715 -22210.6 -1320.13 -7.41444 
9043 1 79.4798 6.75369 7.45349 5.93891 -182913 -122259 35816.4 242963 26464.9 771.708 -7.41896 
9044 1 78.7576 5.53151 7.4535 5.93999 -180342 -124983 -30351 247377 -24099.7 -1849.99 -7.4151 
9045 1 79.4543 4.29767 7.45944 5.93725 -183515 -124736 22930.8 248506 26368.2 607.048 -7.41817 
9046 1 78.7318 3.07562 7.46102 5.93774 -181360 -126844 -17352 251586 -25623.8 -2352.77 -7.41582 
9047 1 79.4285 1.84179 7.46605 5.93644 -182592 -127244 9641.18 251608 25961.3 357.219 -7.41737 
9048 1 78.7058 0.619837 7.46914 5.9362 -181127 -128815 -3997.35 253370 -26756.1 -2804.82 -7.41658 
9279 1 81.6193 7.98024 7.4608 5.93938 -179720 -124022 41768.2 239653 26651.7 1564.58 -7.41934 
9280 1 80.8971 6.75804 7.45856 5.94061 -176953 -126488 -36447.1 244234 -22998.5 -1079.83 -7.41478 
9281 1 81.594 5.52428 7.46354 5.93754 -181561 -125479 29213.8 246353 26737.5 1431.17 -7.41855 
9282 1 80.8716 4.3022 7.46278 5.93823 -179587 -127456 -23765.8 249694 -24662.4 -1583.84 -7.41547 
9283 1 81.5684 3.06841 7.46678 5.93649 -182124 -127094 16160 250713 26520 1196.75 -7.41776 
9284 1 80.8457 1.84641 7.46752 5.93668 -180922 -128477 -10630.8 252735 -25954.9 -2057.05 -7.4162 
9285 1 81.5425 0.612613 7.47039 5.93599 -181352 -128768 2831.22 252650 25971.6 880.194 -7.41698 
9516 1 83.0366 7.98452 7.46684 5.94125 -172846 -129098 -42455.1 240436 -21801.4 -318.986 -7.41447 
9517 1 83.7337 6.75085 7.4709 5.93786 -178392 -127315 35449.6 243552 27019.3 2182.84 -7.41894 
9518 1 83.0113 5.52877 7.4679 5.9387 -176610 -129121 -30089 247131 -23599.5 -801.986 -7.41513 
9519 1 83.7082 4.29503 7.47088 5.93655 -180587 -128019 22636.1 249136 26982.4 1985.05 -7.41815 
9520 1 82.9856 3.07303 7.46927 5.93698 -179291 -129132 -17175.2 251326 -25052.1 -1273.99 -7.41584 
9521 1 83.6824 1.83926 7.47108 5.93589 -181297 -128597 9441.86 252282 26621.3 1689.38 -7.41736 
9522 1 82.9597 0.6173 7.47091 5.93609 -180737 -129034 -3927.27 253094 -26134.4 -1711.62 -7.41659 
9753 1 85.8734 7.97728 7.48117 5.93817 -174211 -129986 41676.1 239930 27213.8 2843.99 -7.41933 
9754 1 85.151 6.75525 7.47614 5.93919 -172387 -131658 -36363.9 243771 -22432.9 -29.4473 -7.4148 
9755 1 85.848 5.52158 7.47817 5.9366 -177735 -129797 29106.3 246769 27353.8 2701.96 -7.41855 
9756 1 85.1254 4.29961 7.47432 5.93729 -176623 -130814 -23672.5 249254 -24044.2 -478.385 -7.41549 
9757 1 85.8223 3.06587 7.4751 5.93575 -179997 -129571 16052.4 251173 27173.7 2448.86 -7.41775 
9758 1 85.0996 1.84393 7.47258 5.93625 -179603 -129903 -10545.7 252276 -25303.1 -911.627 -7.41621 
9759 1 85.7964 0.610156 7.47207 5.93578 -180938 -129235 2739.25 253161 26645.6 2103.36 -7.41697 
9990 1 87.2907 7.98156 7.48712 5.93968 -167327 -135256 -42630.9 239701 -21166.1 711.227 -7.41448 
9991 1 87.9879 6.74798 7.48828 5.9367 -173783 -132620 35611.9 243703 27636.9 3327.62 -7.41895 
9992 1 87.2653 5.52607 7.48245 5.93758 -172739 -133474 -30168.1 246444 -22930.3 308.34 -7.41514 
9993 1 87.9623 4.29238 7.48225 5.93562 -177487 -131415 22708.3 249400 27633.3 3136.87 -7.41815 
9994 1 87.2396 3.07049 7.47753 5.93635 -177115 -131597 -17167.4 250751 -24366.7 -97.8841 -7.41585 
9995 1 87.9364 1.83674 7.47599 5.93544 -180005 -130226 9434.23 252599 27282.5 2839.96 -7.41736 
9996 1 87.2137 0.614832 7.47255 5.9359 -180345 -129670 -3848.14 252537 -25450.5 -483.594 -7.41659 
10227 1 90.1279 7.97414 7.50064 5.93684 -168736 -136343 42188.1 239803 27828.9 3846.6 -7.41936 
10228 1 89.4052 6.75232 7.49319 5.93791 -167779 -137107 -36704.7 242845 -21711.1 1062.01 -7.41479 
10229 1 90.1024 5.51871 7.49213 5.93551 -173862 -134311 29450.9 246789 27998.2 3730.9 -7.41856 
10230 1 89.3796 4.2969 7.48547 5.93646 -173530 -134371 -23837 248428 -23322.6 706.548 -7.41548 
10231 1 90.0765 3.06318 7.48298 5.93512 -177785 -132174 16225.5 251323 27822 3502.24 -7.41776 
10232 1 89.3537 1.84135 7.47737 5.93582 -178238 -131490 -10539.2 251524 -24597.9 353.631 -7.41621 
10233 1 90.0504 0.607562 7.47355 5.93564 -180419 -129916 2748 253351 27271.8 3172 -7.41696 
10464 1 91.5453 7.9783 7.50588 5.93829 -161722 -141422 -43319.2 238548 -20385.9 1759.56 -7.41445 
10465 1 92.2426 6.74477 7.5041 5.93546 -168942 -138013 36314.5 243396 28267.1 4216.13 -7.41898 
10466 1 91.5197 5.52307 7.49591 5.9366 -168824 -138035 -30599.1 245383 -22167.3 1477.7 -7.41512 
10467 1 92.2167 4.28941 7.49257 5.93481 -174394 -135072 23156.3 249284 28264.9 4067.97 -7.41817 