ITEM: TIMESTEP
0
ITEM: NUMBER OF ATOMS
37448
ITEM: BOX BOUNDS pp pp pp
0.0000000000000000e+00 1.6803420100000000e+02
0.0000000000000000e+00 2.9104377299999999e+02
0.0000000000000000e+00 1.8399999999999999e+01
ITEM: ATOMS id type x y z c_csym c_2[1] c_2[2] c_2[3] c_2[4] c_2[5] c_2[6] c_3 
272 1 0.771787 8.59059 7.5 6.03194 -141517 -133661 -155763 -288.209 9858.77 -1343.36 -7.41067 
273 1 0.0538456 7.3678 7.5 6.03193 -134677 -140017 -155843 65.3031 9523.86 -236.962 -7.41067 
274 1 0.753839 6.13465 7.5 6.03194 -139943 -134508 -156754 -288.717 7072.45 -1192.07 -7.41062 
275 1 0.0358971 4.91187 7.5 6.03193 -135187 -138928 -157026 43.5063 6159.47 -166.698 -7.41061 
276 1 0.73589 3.67872 7.5 6.03194 -138557 -135410 -157459 -288.99 4276.17 -1046.7 -7.41059 
277 1 0.0179485 2.45593 7.5 6.03193 -135894 -137870 -157692 22.0555 2998.26 -87.5822 -7.41058 
278 1 0.717941 1.22279 7.5 6.03193 -137357 -136350 -157835 -277.948 1432.23 -910.355 -7.41057 
510 1 2.18972 8.58023 7.5 6.03194 -134582 -140625 -154961 1159.81 11169.2 -2541.63 -7.41071 
511 1 2.88971 7.34708 7.5 6.03194 -140707 -134216 -155933 -956.229 8505.44 -4173.52 -7.41066 
512 1 2.17177 6.12429 7.5 6.03194 -134991 -139522 -156403 1079.1 7691.11 -2538.99 -7.41064 
513 1 2.87177 4.89114 7.5 6.03194 -139231 -135091 -156824 -1023.31 5703.81 -3892.76 -7.41062 
514 1 2.15382 3.66836 7.5 6.03194 -135598 -138446 -157299 995.626 4432.55 -2538.91 -7.4106 
515 1 2.85382 2.43521 7.5 6.03194 -137945 -136017 -157406 -1089.27 2873.21 -3631.16 -7.41059 
516 1 2.13588 1.21242 7.5 6.03193 -136395 -137369 -157710 893.394 1358.49 -2543.04 -7.41058 
747 1 5.02559 8.5595 7.5 6.03194 -141535 -134086 -154561 -1552.25 10074.3 -7321.94 -7.41073 
748 1 4.30765 7.33672 7.5 6.03194 -134837 -140275 -155474 2172.41 9224.37 -4875.5 -7.41068 
749 1 5.00764 6.10357 7.5 6.03194 -139973 -134931 -155670 -1685.8 7253.54 -6900.19 -7.41068 
750 1 4.2897 4.88078 7.5 6.03194 -135344 -139183 -156578 2029.86 5849.58 -4944.63 -7.41063 
751 1 4.98969 3.64763 7.5 6.03194 -138597 -135833 -156490 -1819.4 4417.43 -6504.72 -7.41064 
752 1 4.27175 2.42485 7.5 6.03194 -136050 -138118 -157166 1881.82 2677.14 -5028.65 -7.4106 
753 1 4.97174 1.1917 7.5 6.03193 -137404 -136754 -156977 -1934.13 1530.52 -6142.03 -7.41061 
984 1 6.44352 8.54914 7.5 6.03194 -134772 -141180 -154280 3319.96 10773.6 -7204.32 -7.41074 
985 1 7.14352 7.31599 7.5 6.03194 -140778 -134929 -153938 -2272.67 8937.03 -10094.6 -7.41076 
986 1 6.42558 6.0932 7.5 6.03194 -135179 -140074 -155573 3120.8 7268.77 -7337.03 -7.41068 
987 1 7.12557 4.86006 7.5 6.03194 -139319 -135803 -155028 -2474.26 6082.06 -9561.5 -7.41071 
988 1 6.40763 3.63727 7.5 6.03194 -135781 -138993 -156316 2912.75 3978.98 -7492.3 -7.41064 
989 1 7.10762 2.40412 7.5 6.03194 -138049 -136730 -155805 -2675.62 3190.97 -9067.18 -7.41067 
990 1 6.38968 1.18134 7.5 6.03193 -136572 -137914 -156572 2680.71 871.364 -7674.59 -7.41063 
1221 1 9.27939 8.52841 7.5 6.03194 -141638 -135087 -151565 -2778.9 10757 -13488.6 -7.41088 
1222 1 8.56145 7.30563 7.5 6.03194 -135101 -141117 -154321 4264.59 8703.33 -9738.22 -7.41074 
1223 1 9.26144 6.07248 7.5 6.03194 -140104 -135930 -152958 -3049.35 7876.73 -12820.6 -7.41081 
1224 1 8.5435 4.84969 7.5 6.03194 -135603 -140019 -155201 3998.75 5282.47 -9960.62 -7.41069 
1225 1 9.2435 3.61654 7.5 6.03194 -138752 -136830 -154056 -3320.28 4969.04 -12192.7 -7.41076 
1226 1 8.52555 2.39376 7.5 6.03194 -136299 -138951 -155561 3723.35 2058.1 -10216 -7.41068 
1227 1 9.22555 1.16061 7.5 6.03193 -137580 -137753 -154812 -3570.61 2003.05 -11614.5 -7.41072 
1458 1 10.6973 8.51805 7.5 6.03194 -135111 -142305 -152860 5456.11 10158.5 -12157.2 -7.4108 
1459 1 11.3973 7.2849 7.5 6.03194 -140943 -136210 -150219 -3539.14 9801.87 -16286.3 -7.41095 
1460 1 10.6794 6.06212 7.5 6.03194 -135513 -141194 -153858 5136.38 6599.44 -12448.1 -7.41076 
1461 1 11.3794 4.82897 7.5 6.03194 -139519 -137081 -151668 -3880.56 6872.21 -15529.4 -7.41088 
1462 1 10.6614 3.60618 7.5 6.03194 -136107 -140109 -154301 4801.9 3245.3 -12773.8 -7.41074 
1463 1 11.3614 2.37303 7.5 6.03194 -138277 -138007 -152797 -4220.78 3894.13 -14821.7 -7.41082 
1464 1 10.6435 1.15025 7.5 6.03193 -136884 -139026 -154250 4438.45 67.5567 -13141 -7.41074 
1695 1 13.5332 8.49733 7.5 6.03194 -141830 -136643 -146754 -3939.78 11847.7 -19946.1 -7.41113 
1696 1 12.8153 7.27454 7.5 6.03194 -135510 -142508 -152321 6319.12 7933.52 -14954.8 -7.41083 
1697 1 13.5152 6.04139 7.5 6.03194 -140341 -137481 -148584 -4351.61 8898.52 -19072 -7.41103 
1698 1 12.7973 4.81861 7.5 6.03194 -136006 -141408 -152831 5929.05 4443.23 -15353.5 -7.4108 
1699 1 13.4973 3.58546 7.5 6.03194 -139027 -138380 -150113 -4765.1 5904.45 -18241.2 -7.41095 
1700 1 12.7794 2.36267 7.5 6.03194 -136688 -140338 -152813 5522.7 1139.51 -15793.3 -7.41081 
1701 1 13.4794 1.12952 7.5 6.03193 -137886 -139301 -151292 -5156.43 2840.92 -17465.4 -7.41089 
1932 1 14.9511 8.48696 7.5 6.03194 -135590 -143948 -150625 7539.58 9279.45 -17465.4 -7.4109 
1933 1 15.6511 7.25381 7.5 6.03194 -141210 -138027 -144748 -4728.63 11035.9 -22797.6 -7.41123 
1934 1 14.9332 6.03103 7.5 6.03194 -135991 -142839 -151183 7098.98 5654.01 -17945.6 -7.41088 
1935 1 15.6332 4.79788 7.5 6.03194 -139834 -138892 -146704 -5214.86 8029.65 -21857.3 -7.41113 
1936 1 14.9152 3.57509 7.5 6.03194 -136573 -141756 -151180 6636.03 2219.06 -18461.7 -7.41089 
1937 1 15.6152 2.34195 7.5 6.03194 -138632 -139816 -148332 -5699 4958.79 -20963.7 -7.41104 
1938 1 14.8973 1.11916 7.5 6.03193 -137330 -140674 -150675 6137.8 -1047.72 -19021.5 -7.41092 
2169 1 17.787 8.46624 7.5 6.03194 -142119 -138712 -140117 -5008.26 13262 -26665.4 -7.41147 
2170 1 17.0691 7.24345 7.5 6.03194 -136057 -144385 -149393 8302.62 6870.99 -20525.2 -7.41096 
2171 1 17.7691 6.0103 7.5 6.03194 -140689 -139542 -142521 -5566.02 10255.4 -25636.2 -7.41134 
2172 1 17.0511 4.78752 7.5 6.03194 -136546 -143293 -149388 7788.43 3306.74 -21126.8 -7.41097 
2173 1 17.7511 3.55437 7.5 6.03194 -139425 -140434 -144621 -6125.3 7182.59 -24640.2 -7.41123 
2174 1 17.0332 2.33158 7.5 6.03194 -137212 -142228 -148848 7249.64 -83.422 -21764.6 -7.411 
2175 1 17.7332 1.09843 7.5 6.03193 -138322 -141350 -146365 -6661.99 4026.5 -23690.5 -7.41114 
2406 1 19.2049 8.45588 7.5 6.03194 -136198 -146025 -147496 9529.1 8079.13 -23053.2 -7.41105 
2407 1 19.9049 7.22273 7.5 6.03194 -141584 -140319 -137525 -5815.34 12557.6 -29527.3 -7.4116 
2408 1 19.187 5.99994 7.5 6.03194 -136601 -144933 -147471 8970.21 4394.72 -23754.4 -7.41106 
2409 1 19.887 4.76679 7.5 6.03194 -140267 -141176 -140116 -6448.18 9495.82 -28450.7 -7.41146 
2410 1 19.169 3.54401 7.5 6.03194 -137173 -143863 -146879 8379.54 884.238 -24479.9 -7.41109 
2411 1 19.869 2.31086 7.5 6.03194 -139113 -142090 -142376 -7079.33 6350.65 -27404.5 -7.41134 
2412 1 19.1511 1.08807 7.5 6.03193 -137907 -142793 -145779 7745.62 -2467.4 -25237.8 -7.41116 
2643 1 22.0408 8.43515 7.5 6.03194 -142509 -141212 -131687 -5961.52 14903.7 -33464.8 -7.41191 
2644 1 21.3229 7.21236 7.5 6.03194 -136728 -146649 -145468 10168.7 5467.32 -26297.6 -7.41115 
2645 1 22.0229 5.97922 7.5 6.03194 -141150 -142032 -134781 -6665.71 11872.8 -32335.3 -7.41174 
2646 1 21.3049 4.75643 7.5 6.03194 -137215 -145583 -144808 9533.22 1846.34 -27124.8 -7.41119 
2647 1 22.0049 3.52328 7.5 6.03194 -139945 -142912 -137573 -7371.29 8752.63 -31215.7 -7.41159 
2648 1 21.287 2.3005 7.5 6.03194 -137866 -144539 -143609 8864.45 -1613.72 -27970.4 -7.41126 
2649 1 21.987 1.06735 7.5 6.03193 -138889 -143813 -140008 -8052.39 5533.82 -30119.8 -7.41146 
2880 1 23.4587 8.42479 7.5 6.03194 -136919 -148413 -143419 11368.6 6502.25 -28699.8 -7.41124 
2881 1 24.1587 7.19164 7.5 6.03194 -142064 -142987 -128599 -6775.79 14279.8 -36221 -7.41206 
2882 1 23.4408 5.96885 7.5 6.03194 -137329 -147360 -142674 10698.2 2786.78 -29645.7 -7.41129 
2883 1 24.1408 4.7357 7.5 6.03194 -140819 -143830 -131932 -7553.01 11205.2 -35056.4 -7.41188 
2884 1 23.4228 3.51292 7.5 6.03194 -137896 -146324 -141359 9984.97 -771.178 -30592.8 -7.41137 
2885 1 24.1228 2.27977 7.5 6.03194 -139721 -144725 -134939 -8327.66 8027.71 -33893.1 -7.41172 
2886 1 23.4049 1.05698 7.5 6.03193 -138610 -145283 -139535 9220.61 -4179.19 -31548.6 -7.41147 
3117 1 26.2946 8.40406 7.5 6.03194 -143000 -144023 -121566 -6780.26 16677 -40025.1 -7.41243 
3118 1 25.5767 7.18128 7.5 6.03194 -137505 -149162 -140519 11857.5 3683.7 -31981.7 -7.41139 
3119 1 26.2767 5.94813 7.5 6.03194 -141725 -144828 -125441 -7624.25 13674.1 -38847.5 -7.41222 
3120 1 25.5587 4.72534 7.5 6.03194 -137998 -148144 -139074 11110 43.8837 -33046.4 -7.41147 
3121 1 26.2587 3.49219 7.5 6.03194 -140586 -145687 -129025 -8470.85 10558.8 -37645.8 -7.41203 
3122 1 25.5408 2.26941 7.5 6.03194 -138638 -147143 -137091 10319.2 -3446.94 -34101.2 -7.41159 
3123 1 26.2408 1.03626 7.5 6.03193 -139579 -146562 -132257 -9289.09 7329.02 -36433.4 -7.41185 
3354 1 27.7125 8.3937 7.5 6.03194 -137729 -150951 -138390 12991.4 4511.38 -34068.8 -7.41148 
3356 1 27.6946 5.93777 7.5 6.03194 -138159 -149966 -136799 12222.5 810.257 -35267.9 -7.41158 
3358 1 27.6766 3.48183 7.5 6.03194 -138727 -148989 -134642 11398.7 -2747.43 -36436.9 -7.4117 
3360 1 27.6587 1.0259 7.5 6.03193 -139425 -147996 -131979 10514.1 -6162.19 -37581.2 -7.41185 
3355 1 28.4125 7.16055 7.5 6.03194 -142653 -145886 -118106 -7586.93 16119.5 -42503.5 -7.41261 
3357 1 28.3946 4.70462 7.5 6.03194 -141485 -146707 -122264 -8499.47 13092.3 -41295.3 -7.41238 
3359 1 28.3766 2.24868 7.5 6.03194 -140447 -147574 -126108 -9407.08 9942.81 -40050.2 -7.41217 
3591 1 30.5484 8.37297 7.5 6.03194 -143592 -146981 -109949 -7446.4 18498.7 -45936.4 -7.41304 
3592 1 29.8305 7.15019 7.5 6.03194 -138366 -151749 -134583 13301.4 1503.83 -37193.7 -7.41168 
3593 1 30.5305 5.91704 7.5 6.03194 -142408 -147764 -114670 -8417.08 15588.6 -44754.9 -7.41278 
3594 1 29.8125 4.69425 7.5 6.03194 -138875 -150809 -132239 12458.2 -2101.06 -38491.8 -7.41181 
3595 1 30.5125 3.46111 7.5 6.03194 -141339 -148593 -119119 -9389.37 12544.8 -43508.7 -7.41254 
3596 1 29.7946 2.23832 7.5 6.03194 -139512 -149874 -129363 11560.6 -5565.99 -39744.9 -7.41198 
3597 1 30.4946 1.00517 7.5 6.03193 -140380 -149427 -123232 -10331.4 9370.77 -42210.6 -7.41231 
3828 1 31.9663 8.36261 7.5 6.03194 -138602 -153451 -132475 14324.4 2099.86 -38764.3 -7.41178 
3829 1 32.6663 7.12946 7.5 6.03194 -143343 -148834 -106275 -8229.46 18006.5 -47938.4 -7.41323 
3830 1 31.9484 5.90668 7.5 6.03194 -139066 -152564 -129932 13476.5 -1530.16 -40204.8 -7.41192 
3831 1 32.6484 4.67353 7.5 6.03194 -142256 -149623 -111314 -9258.35 15096.1 -46723.6 -7.41295 
3832 1 31.9304 3.45074 7.5 6.03194 -139646 -151673 -126832 12562.2 -5026.69 -41580 -7.4121 
3833 1 32.6304 2.21759 7.5 6.03194 -141276 -150448 -116061 -10280.3 12045.6 -45429.5 -7.41269 
3834 1 31.9125 0.994809 7.5 6.03193 -140334 -150754 -123237 11576.4 -8384.24 -42892.8 -7.4123 
4065 1 34.8022 8.34189 7.5 6.03194 -144277 -149890 -97128.9 -7944.8 20304.8 -50764.7 -7.41371 
4066 1 34.0843 7.1191 7.5 6.03194 -139283 -154213 -127772 14431.3 -1056.79 -41521.6 -7.41202 
4067 1 34.7843 5.88595 7.5 6.03194 -143187 -150643 -102733 -9020.1 17556.8 -49612.5 -7.41341 
4068 1 34.0663 4.66317 7.5 6.03194 -139821 -153380 -124438 13515.4 -4564.74 -43029.7 -7.41221 
4069 1 34.7663 3.43002 7.5 6.03194 -142188 -151429 -108095 -10095.3 14656.1 -48353.9 -7.41311 
4070 1 34.0484 2.20723 7.5 6.03194 -140465 -152537 -120586 12533.9 -7937.56 -44456.1 -7.41243 
4071 1 34.7484 0.974084 7.5 6.03193 -141276 -152206 -113147 -11136.7 11610.7 -47000.5 -7.41283 
4302 1 36.2201 8.33152 7.5 6.03194 -139509 -155712 -125812 15298.9 -700.637 -42398.2 -7.41212 
4303 1 36.9201 7.09838 7.5 6.03194 -144119 -151625 -93433.1 -8683.92 19887.6 -52100.4 -7.4139 
4304 1 36.2022 5.87559 7.5 6.03194 -140020 -154955 -122235 14397.8 -4199.47 -44046.4 -7.41232 
4305 1 36.9022 4.64244 7.5 6.03194 -143116 -152374 -99381.6 -9801.94 17163.7 -50907.2 -7.41358 
4306 1 36.1842 3.41966 7.5 6.03194 -140625 -154175 -118118 13418.8 -7569.49 -45595.2 -7.41255 
4307 1 36.8842 2.18651 7.5 6.03194 -142191 -153141 -105072 -10911 14283.8 -49593.7 -7.41326 
4308 1 36.1663 0.963721 7.5 6.03193 -141315 -153353 -113526 12359.2 -10800.6 -47044.8 -7.4128 
4539 1 39.056 8.3108 7.5 6.03194 -145039 -152544 -83487.7 -8261.14 22052.7 -54123.4 -7.41444 
4540 1 38.3381 7.08801 7.5 6.03194 -140224 -156358 -120276 15186 -3947.12 -44595 -7.41241 
4541 1 39.0381 5.85486 7.5 6.03194 -144045 -153259 -89985.1 -9410.07 19531.5 -53022.1 -7.41408 
4542 1 38.3201 4.63208 7.5 6.03194 -140807 -155656 -115888 14226.4 -7296.6 -46270.7 -7.41265 
4543 1 39.0201 3.39893 7.5 6.03194 -143113 -153990 -96281.1 -10558.1 16841.7 -51777 -7.41373 
4544 1 38.3022 2.17614 7.5 6.03194 -141470 -154929 -111003 13190.7 -10510.9 -47831.5 -7.41293 
4545 1 39.0022 0.942996 7.5 6.03193 -142240 -154694 -102302 -11667 13993.9 -50398 -7.4134 
4776 1 40.474 8.30044 7.5 6.03194 -140416 -157551 -118607 15857.3 -3819.16 -44655.2 -7.41249 
4777 1 41.1739 7.06729 7.5 6.03194 -144964 -154060 -79984.4 -8932.69 21726.3 -54644.2 -7.41462 
4778 1 40.456 5.8445 7.5 6.03194 -140991 -156945 -113947 14933.2 -7131.77 -46457.1 -7.41275 
4779 1 41.156 4.61135 7.5 6.03194 -144040 -154757 -86845 -10106.6 19249.8 -53492.3 -7.41424 
4780 1 40.4381 3.38857 7.5 6.03194 -141634 -156300 -108768 13921.3 -10314.5 -48131.4 -7.41303 
4781 1 41.138 2.15542 7.5 6.03194 -143165 -155452 -93489.3 -11267.9 16603.8 -52185.4 -7.41387 
4782 1 40.4201 0.932633 7.5 6.03193 -142337 -155593 -103142 12820.4 -13354.3 -49675.7 -7.41335 
5013 1 43.3098 8.27971 7.5 6.03194 -145861 -154754 -69470.7 -8383.08 23719.8 -55733.7 -7.41518 
5014 1 42.5919 7.05693 7.5 6.03194 -141158 -158009 -112342 15518.3 -7082.74 -46144.6 -7.41283 
5015 1 43.2919 5.82378 7.5 6.03194 -144958 -155422 -76847.1 -9569.68 21477.4 -54695 -7.41478 
5016 1 42.5739 4.60099 7.5 6.03194 -141799 -157459 -106871 14546.6 -10221.1 -47929.3 -7.41313 
5017 1 43.2739 3.36784 7.5 6.03194 -144086 -156085 -84070.1 -10752.8 19053.5 -53483.6 -7.41438 
5018 1 42.556 2.14506 7.5 6.03194 -142496 -156865 -100931 13492 -13219.3 -49574 -7.41346 
5019 1 43.256 0.911908 7.5 6.03193 -143242 -156703 -91061 -11893 16459.6 -52108.2 -7.414 
5250 1 44.7278 8.26935 7.5 6.03194 -141292 -158820 -111112 15961.3 -7151.07 -45339.9 -7.41288 
5251 1 45.4277 7.0362 7.5 6.03194 -145854 -155966 -66381.7 -8962.24 23499.3 -55356 -7.41534 
5252 1 44.7098 5.81341 7.5 6.03194 -141944 -158380 -105355 15046.1 -10234.7 -47226.2 -7.4132 
5253 1 45.4098 4.58027 7.5 6.03194 -145000 -156600 -74131.4 -10153.3 21315.3 -54258.3 -7.41492 
5254 1 44.6919 3.35748 7.5 6.03194 -142641 -157883 -99106.2 14036.7 -13182 -48966.2 -7.41355 
5255 1 45.3918 2.12433 7.5 6.03194 -144166 -157214 -81713.5 -11328 18950.2 -52981.7 -7.4145 
5256 1 44.6739 0.901546 7.5 6.03193 -143369 -157306 -92441 12930.4 -15978.3 -50555.2 -7.41391 
5487 1 47.5636 8.24862 7.5 6.03194 -146716 -156375 -55551.7 -8299.47 25296.3 -55461.5 -7.41593 
5488 1 46.8457 7.02584 7.5 6.03194 -142053 -159043 -104256 15401.5 -10353.4 -46039 -7.41326 
5489 1 47.5457 5.79269 7.5 6.03194 -145896 -156985 -63769.7 -9484.87 23366.6 -54490.6 -7.41548 
5490 1 46.8277 4.5699 7.5 6.03194 -142765 -158655 -97709.1 14452.3 -13243.2 -47863.6 -7.41361 
5491 1 47.5277 3.33675 7.5 6.03194 -145075 -157572 -71887.8 -10662.7 21245 -53329.6 -7.41503 
5492 1 46.8098 2.11397 7.5 6.03194 -143507 -158203 -90723.2 13413.6 -15983.7 -49533.8 -7.414 
5493 1 47.5098 0.88082 7.5 6.03193 -144251 -158093 -79821.9 -11794.3 18942.5 -51986.2 -7.4146 
5724 1 48.9816 8.23826 7.5 6.03194 -142109 -159436 -103601 15597.1 -10568.8 -44399.4 -7.41329 
5725 1 49.6815 7.00511 7.5 6.03194 -146758 -157230 -53088.2 -8763.52 25191 -54176.8 -7.41606 
5726 1 48.9636 5.78233 7.5 6.03194 -142850 -159165 -96771.3 14722.2 -13397.7 -46292.7 -7.41366 
5727 1 49.6636 4.54918 7.5 6.03194 -145967 -157792 -61681.4 -9930.59 23324.3 -53142.8 -7.41559 
5728 1 48.9457 3.32639 7.5 6.03194 -143611 -158821 -89478.1 13749.3 -16079.4 -48032 -7.41406 
5729 1 49.6457 2.09324 7.5 6.03194 -145162 -158317 -70159.2 -11078.5 21266.6 -51918.4 -7.41512 
5730 1 48.9277 0.870458 7.5 6.03193 -144377 -158380 -81802.6 12675.3 -18598.9 -49610.9 -7.41448 
5961 1 51.8174 8.21754 7.5 6.03194 -147575 -157329 -42194.4 -8005.29 26778.5 -53326.9 -7.41665 
5962 1 51.0995 6.99475 7.5 6.03194 -142879 -159409 -96314.1 14833 -13634.2 -44293.7 -7.41368 
5963 1 51.7995 5.7616 7.5 6.03194 -146828 -157873 -51197.1 -9148.74 25174.2 -52426.4 -7.41616 
5964 1 51.0815 4.53882 7.5 6.03194 -143675 -159180 -88732.9 13938.1 -16257.2 -46085 -7.4141 
5965 1 51.7815 3.30567 7.5 6.03194 -146047 -158377 -60155.3 -10281.6 23369.9 -51331.1 -7.41567 
5966 1 51.0636 2.08288 7.5 6.03194 -144473 -158873 -80744.1 12951.1 -18718.2 -47719.2 -7.41454 
5967 1 51.7636 0.849733 7.5 6.03193 -145232 -158797 -68979.7 -11364.9 21374.3 -50047.9 -7.41518 
6198 1 53.2354 8.20717 7.5 6.03194 -142841 -159389 -96347.7 14775.9 -13935.6 -41917.9 -7.41368 
6199 1 53.9354 6.97402 7.5 6.03194 -147646 -157812 -40540.3 -8332.7 26787.1 -51198 -7.41674 
6200 1 53.2174 5.75124 7.5 6.03194 -143680 -159281 -88503.5 13969.5 -16503.1 -43740.1 -7.41411 
6201 1 53.9174 4.51809 7.5 6.03194 -146905 -158300 -49911.6 -9437.28 25241 -50236.9 -7.41623 
6202 1 53.1995 3.2953 7.5 6.03194 -144515 -159086 -80224.1 13063.9 -18909.1 -45411.7 -7.41456 
6203 1 53.8995 2.06216 7.5 6.03194 -146119 -158730 -59220.3 -10519.6 23495.1 -49086.4 -7.41571 
6204 1 53.1815 0.83937 7.5 6.03193 -145328 -158778 -71596.6 12057.5 -21139.6 -46925.4 -7.41504 
6436 1 55.3533 6.96366 7.5 6.03194 -143615 -159133 -88794.2 13835.6 -16798.1 -41053.7 -7.4141 
6438 1 55.3353 4.50773 7.5 6.03194 -144499 -159053 -80252.5 13021.1 -19155.4 -42741.3 -7.41456 
6440 1 55.3174 2.05179 7.5 6.03194 -145363 -158882 -71333.6 12116.8 -21336.2 -44279.8 -7.41505 
6435 1 56.0712 8.18645 7.5 6.03194 -148409 -157615 -29817.1 -7499.06 28160.6 -49485.8 -7.41733 
6437 1 56.0533 5.73051 7.5 6.03194 -147722 -158091 -39531.1 -8562.51 26874.3 -48659.6 -7.41679 
6439 1 56.0353 3.27458 7.5 6.03194 -146970 -158509 -49255.2 -9613.29 25380.6 -47645.8 -7.41626 
6441 1 56.0174 0.818645 7.5 6.03193 -146152 -158827 -58894.7 -10612.3 23686.2 -46450.8 -7.41573 
6672 1 57.4892 8.17609 7.5 6.03194 -143472 -158753 -89597.2 13533.5 -17119.1 -38088.6 -7.41406 
6673 1 58.1892 6.94294 7.5 6.03194 -148487 -157759 -29116.3 -7673.32 28269.3 -46631.7 -7.41737 
6674 1 57.4712 5.72015 7.5 6.03194 -144412 -158790 -80828 12817.4 -19436.2 -39768 -7.41453 
6675 1 58.1712 4.487 7.5 6.03194 -147784 -158169 -39184.4 -8680.12 27027.3 -45754.5 -7.41681 
6676 1 57.4533 3.26422 7.5 6.03194 -145328 -158731 -71649 12006.1 -21576.2 -41309.8 -7.41503 
6677 1 58.1533 2.03107 7.5 6.03194 -147005 -158507 -49240.1 -9662.68 25577.5 -44700 -7.41626 
6678 1 57.4353 0.808282 7.5 6.03193 -146196 -158545 -62154.5 11095.9 -23526 -42706.2 -7.41555 
6909 1 60.325 8.15536 7.5 6.03194 -149188 -157319 -18767 -6785.51 29430 -44191.8 -7.41793 
6910 1 59.6071 6.93257 7.5 6.03194 -144245 -158319 -81936.9 12450.2 -19727.4 -36556.2 -7.41448 
6911 1 60.3071 5.69943 7.5 6.03194 -148548 -157725 -29106.5 -7736.82 28436.2 -43447.7 -7.41737 
6912 1 59.5891 4.47664 7.5 6.03194 -145220 -158370 -72535.3 11737.9 -21837.5 -38077.7 -7.41499 
6913 1 60.2891 3.24349 7.5 6.03194 -147813 -158060 -39506.5 -8673.29 27228.7 -42532.9 -7.4168 
6914 1 59.5712 2.02071 7.5 6.03194 -146154 -158320 -62783.7 10940.3 -23755.6 -39466.7 -7.41552 
6915 1 60.2712 0.787557 7.5 6.03193 -146984 -158282 -49867.4 -9557.94 25811.4 -41453.7 -7.41623 
7146 1 61.743 8.145 7.5 6.03194 -143994 -157667 -83554.7 11923.2 -20002.7 -33171.1 -7.4144 
7147 1 62.443 6.91185 7.5 6.03194 -149251 -157193 -19117.1 -6798.02 29612.5 -40765 -7.41792 
7148 1 61.725 5.68906 7.5 6.03194 -145032 -157827 -73973.3 11312.4 -22095 -34647.7 -7.41492 
7149 1 62.425 4.45591 7.5 6.03194 -148576 -157526 -29788.4 -7677.29 28642.4 -39986.1 -7.41733 
7150 1 61.7071 3.23313 7.5 6.03194 -146029 -157884 -64004.3 10615.2 -23994.4 -36006.3 -7.41546 
7151 1 62.4071 1.99998 7.5 6.03194 -147795 -157779 -40492.7 -8532.05 27457 -39050.6 -7.41674 
7152 1 61.6891 0.777194 7.5 6.03193 -146956 -157806 -53748.2 9824.27 -25689 -37239.7 -7.41602 
7383 1 64.5788 8.12427 7.5 6.03194 -149884 -156593 -9307.19 -5877.91 30564.7 -37748 -7.41846 
7384 1 63.8609 6.90149 7.5 6.03194 -144760 -157135 -75933.6 10733.5 -22322.3 -31083.5 -7.41482 
7385 1 64.5609 5.66834 7.5 6.03194 -149280 -156930 -20177.1 -6690.16 29824.9 -37098.7 -7.41786 
7386 1 63.8429 4.44555 7.5 6.03194 -145824 -157293 -65792.2 10138 -24216.5 -32388.2 -7.41537 
7387 1 64.5429 3.2124 7.5 6.03194 -148553 -157188 -31151.8 -7486.94 28865.4 -36302.7 -7.41726 
7388 1 63.825 1.98962 7.5 6.03194 -146827 -157345 -55323.8 9465.08 -25904 -33582.8 -7.41594 
7389 1 64.525 0.756469 7.5 6.03193 -147706 -157323 -42127 -8234.02 27687.6 -35365.7 -7.41666 
7620 1 65.9968 8.11391 7.5 6.03194 -144404 -156327 -78377.1 10009.4 -22492.9 -27444.9 -7.41469 
7621 1 66.6968 6.88076 7.5 6.03194 -149916 -156291 -10759.4 -5725.52 30785.2 -33910.6 -7.41838 
7622 1 65.9788 5.65798 7.5 6.03194 -145535 -156583 -68113.1 9513.89 -24395.6 -28673 -7.41525 
7623 1 66.6788 4.42483 7.5 6.03194 -149256 -156556 -21931.9 -6454.49 30043.9 -33247.7 -7.41777 
7624 1 65.9609 3.20204 7.5 6.03194 -146608 -156733 -57479.1 8942.74 -26090.8 -29806.3 -7.41582 
7625 1 66.6609 1.96889 7.5 6.03194 -148469 -156732 -33175.8 -7160.78 29080.3 -32454.2 -7.41715 
7626 1 65.9429 0.746107 7.5 6.03193 -147593 -156743 -46581.6 8287.46 -27567.9 -30839.1 -7.41642 
7857 1 68.8326 8.09318 7.5 6.03194 -150475 -155632 -1616.89 -4796.32 31534.6 -30460.4 -7.41888 
7858 1 68.1147 6.8704 7.5 6.03194 -145162 -155790 -70923.8 8750.9 -24505.4 -24916.7 -7.4151 
7859 1 68.8147 5.63725 7.5 6.03194 -149894 -155908 -12916.1 -5449.5 31002.1 -29922.8 -7.41826 
7860 1 68.0967 4.41446 7.5 6.03194 -146305 -156031 -60175.5 8279.28 -26222.8 -25967.3 -7.41568 
7861 1 68.7967 3.18132 7.5 6.03194 -149169 -156099 -24356.5 -6087.7 30244.4 -29266.2 -7.41764 
7862 1 68.0788 1.95853 7.5 6.03194 -147373 -156162 -49118.3 7742.86 -27720.5 -26932.9 -7.41628 
7863 1 68.7788 0.725381 7.5 6.03193 -148301 -156161 -35829.8 -6680.35 29260.6 -28496.2 -7.41701 
8094 1 70.2506 8.08282 7.5 6.03194 -144709 -154950 -74174.1 7860.49 -24521.3 -21169 -7.41493 
8095 1 70.9506 6.84967 7.5 6.03194 -150458 -155267 -4182.18 -4483.54 31751.7 -26363 -7.41875 
8096 1 70.2326 5.62689 7.5 6.03194 -145919 -155276 -63366.5 7484.13 -26274.5 -22117.1 -7.41552 
8097 1 70.9326 4.39374 7.5 6.03194 -149808 -155473 -15748.4 -5045.75 31190.3 -25835.6 -7.41811 
8098 1 70.2147 3.17095 7.5 6.03194 -147059 -155494 -52202.2 7046.03 -27807.8 -22995.1 -7.41612 
8099 1 70.9147 1.9378 7.5 6.03194 -149009 -155585 -27416.4 -5589.32 30400.2 -25206.3 -7.41747 
8100 1 70.1967 0.715019 7.5 6.03193 -148096 -155572 -40792.5 6536.38 -29111.8 -23798.7 -7.41674 
8331 1 73.0864 8.0621 7.5 6.03194 -150941 -154652 4197.17 -3568.5 32306 -22600.9 -7.41921 
8332 1 72.3685 6.83931 7.5 6.03194 -145454 -154504 -66999.3 6567.94 -26221.7 -18300.4 -7.41533 
8333 1 73.0685 5.60616 7.5 6.03194 -150375 -154878 -7426.59 -4047.7 31930 -22193.7 -7.41857 
8334 1 72.3506 4.38338 7.5 6.03194 -146664 -154802 -55783.6 6223.45 -27804.5 -19072.3 -7.41593 
8335 1 73.0505 3.15023 7.5 6.03194 -149648 -155014 -19219.3 -4515.74 31324.1 -21697.2 -7.41793 
8336 1 72.3326 1.92744 7.5 6.03194 -147786 -154991 -44272.5 5828.92 -29157.1 -19784.5 -7.41656 
8337 1 73.0326 0.694294 7.5 6.03193 -148761 -155018 -31069.3 -4943.34 30485.3 -21116 -7.41728 
8568 1 74.5044 8.05173 7.5 6.03194 -144917 -153750 -71015.9 5544.09 -26043.1 -14554.6 -7.41512 
8570 1 74.4864 5.5958 7.5 6.03194 -146189 -154121 -59807.7 5285.99 -27687.4 -15204 -7.41572 
8572 1 74.4685 3.13987 7.5 6.03194 -147382 -154385 -48251.8 4984.23 -29102.6 -15807.2 -7.41635 
8574 1 74.4505 0.683931 7.5 6.03193 -148462 -154509 -36463.7 4624.91 -30280.1 -16362 -7.41699 
8569 1 75.2044 6.81859 7.5 6.03194 -150864 -154332 538.756 -3104.99 32477.2 -18369 -7.41901 
8571 1 75.1864 4.36265 7.5 6.03194 -150219 -154492 -11310.8 -3490.11 32044.6 -17996.2 -7.41836 
8573 1 75.1685 1.90672 7.5 6.03194 -149410 -154555 -23284 -3861.17 31378.1 -17550.9 -7.41771 
8805 1 77.3402 8.03101 7.5 6.03194 -151268 -153851 8082.29 -2227.16 32846.9 -14387.2 -7.41943 
8806 1 76.6223 6.80822 7.5 6.03194 -145643 -153481 -64214.9 4247.09 -27435.7 -11422.6 -7.41549 
8807 1 77.3223 5.57507 7.5 6.03194 -150712 -154040 -3759.53 -2524.09 32575.8 -14128.4 -7.41878 
8808 1 76.6044 4.35229 7.5 6.03194 -146902 -153814 -52673.7 4030.24 -28925.7 -11901.6 -7.41611 
8809 1 77.3043 3.11914 7.5 6.03194 -149981 -154135 -15788.9 -2813.38 32070.9 -13809.6 -7.41812 
8810 1 76.5864 1.89635 7.5 6.03194 -148065 -154037 -40845.9 3780.11 -30178.3 -12345.2 -7.41675 
8811 1 77.2864 0.663206 7.5 6.03193 -149078 -154098 -27891.8 -3071.19 31328.2 -13435 -7.41746 
9042 1 78.7582 8.02065 7.5 6.03194 -145035 -152908 -68943 3119.92 -27031.5 -7754.43 -7.41524 
9043 1 79.4582 6.7875 7.5 6.03194 -151123 -153667 3370.51 -1628.1 32933.2 -10116.1 -7.41917 
9044 1 78.7402 5.56471 7.5 6.03194 -146350 -153304 -57477.6 2979.43 -28606.3 -8095.77 -7.41586 
9045 1 79.4402 4.33156 7.5 6.03194 -150479 -153796 -8650.77 -1830.08 32578.2 -9913.87 -7.41851 
9046 1 78.7223 3.10878 7.5 6.03194 -147579 -153594 -45670.2 2813.5 -29946.1 -8413.77 -7.41649 
9047 1 79.4223 1.87563 7.5 6.03194 -149663 -153826 -20808.7 -2024.06 31985.8 -9668.07 -7.41785 
9048 1 78.7043 0.652843 7.5 6.03193 -148688 -153743 -33638.5 2606.86 -31042.8 -8708.04 -7.41715 
9279 1 81.594 7.99992 7.5 6.03194 -151448 -153384 10019.4 -811.012 33133.6 -5980.54 -7.41954 
9280 1 80.8761 6.77714 7.5 6.03194 -145736 -152878 -62600.3 1845.55 -28126.8 -4412.3 -7.41558 
9281 1 81.5761 5.54399 7.5 6.03194 -150896 -153548 -1933.17 -920.813 32915.9 -5883.64 -7.41888 
9282 1 80.8582 4.3212 7.5 6.03194 -147024 -153227 -50875.1 1755.31 -29563.9 -4592.06 -7.41621 
9283 1 81.5582 3.08805 7.5 6.03194 -150163 -153620 -14082.6 -1027.68 32462.2 -5756.02 -7.41822 
9284 1 80.8402 1.86527 7.5 6.03194 -148211 -153467 -38868 1649.73 -30759.7 -4759.72 -7.41687 
9285 1 81.5402 0.632118 7.5 6.03193 -149252 -153558 -26313.8 -1112.18 31767.4 -5600.61 -7.41755 
9516 1 83.012 7.98956 7.5 6.03194 -145073 -152552 -67976.9 642.179 -27472.6 -869.203 -7.41529 
9517 1 83.712 6.75641 7.5 6.03194 -151228 -153395 4304.24 -95.2306 33101.6 -1738.66 -7.41922 
9518 1 82.994 5.53362 7.5 6.03194 -146406 -152955 -56396.9 618.292 -29014.8 -899.814 -7.41592 
9519 1 83.694 4.30048 7.5 6.03194 -150585 -153509 -7776.41 -110.306 32773.9 -1717.46 -7.41856 
9520 1 82.9761 3.07769 7.5 6.03194 -147653 -153252 -44477.2 587.943 -30319.8 -928.806 -7.41656 
9521 1 83.6761 1.84454 7.5 6.03194 -149766 -153523 -19998.2 -125.938 32206.8 -1681.15 -7.41789 
9522 1 82.9581 0.621756 7.5 6.03193 -148775 -153410 -32336.9 534.522 -31380 -957.875 -7.41722 
9753 1 85.8479 7.96883 7.5 6.03194 -151474 -153335 10005.8 638.693 33154.3 2500.52 -7.41954 
9754 1 85.1299 6.74605 7.5 6.03194 -145739 -152790 -62170.2 -584.376 -28284.2 2646.6 -7.41561 
9755 1 85.8299 5.5129 7.5 6.03194 -150923 -153492 -1949.78 718.583 32939.1 2428.51 -7.41888 
9756 1 85.112 4.29011 7.5 6.03194 -147034 -153137 -50401.6 -548.4 -29706.4 2766.74 -7.41624 
9757 1 85.812 3.05696 7.5 6.03194 -150191 -153557 -14102.5 794.711 32487 2358.21 -7.41822 
9758 1 85.094 1.83418 7.5 6.03194 -148226 -153377 -38352.4 -509.397 -30887.2 2876.41 -7.4169 
9759 1 85.794 0.60103 7.5 6.03193 -149281 -153488 -26337 884.752 31793 2287.89 -7.41755 
9990 1 87.2658 7.95847 7.5 6.03194 -145034 -152738 -68128.4 -1839.22 -27360 6032.77 -7.41528 
9991 1 87.9658 6.72532 7.5 6.03194 -151176 -153564 3341.29 1450 32977.9 6660.71 -7.41917 
9992 1 87.2478 5.50254 7.5 6.03194 -146362 -153132 -56575.4 -1747.23 -28905.3 6311.32 -7.41591 
9993 1 87.9478 4.26939 7.5 6.03194 -150535 -153679 -8686.09 1621.91 32627 6497.77 -7.41851 
9994 1 87.2299 3.0466 7.5 6.03194 -147604 -153419 -44682.3 -1641.51 -30215.1 6569.89 -7.41655 
9995 1 87.9299 1.81345 7.5 6.03194 -149719 -153695 -20850.5 1785.53 32036.9 6321.37 -7.41785 
9996 1 87.2119 0.590668 7.5 6.03193 -148724 -153566 -32567.8 -1541.5 -31281.5 6804.74 -7.41721 
10227 1 90.1017 7.93775 7.5 6.03194 -151346 -153711 8045.02 2078.57 32912 10954.8 -7.41943 
10228 1 89.3837 6.71496 7.5 6.03194 -145652 -153235 -62931.4 -2994.37 -27904.3 9690.12 -7.41556 
10229 1 90.0837 5.48181 7.5 6.03194 -150794 -153879 -3805.4 2346.95 32647.5 10714.8 -7.41878 
10230 1 89.3658 4.25903 7.5 6.03194 -146931 -153564 -51259.9 -2831.86 -29349.3 10106.6 -7.41619 
10231 1 90.0658 3.02588 7.5 6.03194 -150065 -153953 -15844 2605.94 32147.4 10447.2 -7.41812 
10232 1 89.3478 1.80309 7.5 6.03194 -148111 -153785 -39305.3 -2647.23 -30556.1 10489.7 -7.41684 
10233 1 90.0478 0.569943 7.5 6.03193 -149164 -153896 -27956.7 2869.26 31406.6 10151.4 -7.41746 
10464 1 91.5196 7.92738 7.5 6.03194 -144915 -153444 -69401.1 -4276.76 -26693.1 12887.9 -7.41521 
10465 1 92.2196 6.69423 7.5 6.03194 -150969 -154140 487.713 2963.28 32571.4 14982.4 -7.41901 
10466 1 91.5016 5.47145 7.5 6.03194 -146215 -153811 -58017.1 -4067.36 -28277.8 13470.5 -7.41582 
10467 1 92.2016 4.2383 7.5 6.03194 -150328 -154273 -11373.4 3319.15 32145.9 14640 -7.41836 
10468 1 91.4837 3.01551 7.5 6.03194 -147433 -154072 -46289.4 -3824.91 -29631.9 14010.6 -7.41646 
10469 1 92.1837 1.78237 7.5 6.03194 -149523 -154308 -23359 3660.83 31483.6 14255 -7.4177 
10470 1 91.4657 0.55958 7.5 6.03193 -148533 -154191 -34335.1 -3571.76 -30747.7 14502.6 -7.41711 
10701 1 94.3555 7.90666 7.5 6.03194 -151066 -154441 4146.37 3466.25 32422.7 19268.6 -7.41921 
10702 1 93.6375 6.68387 7.5 6.03194 -145471 -154151 -64884.3 -5334.75 -26990.1 16644.2 -7.41545 
10703 1 94.3375 5.45072 7.5 6.03194 -150508 -154634 -7490.55 3918.43 32056.2 18869.5 -7.41857 
10704 1 93.6196 4.22794 7.5 6.03194 -146713 -154445 -53450.7 -5044.05 -28496.6 17349.1 -7.41606 
10705 1 94.3196 2.99479 7.5 6.03194 -149787 -154737 -19297.6 4357.49 31456.9 18412.6 -7.41792 
10706 1 93.6016 1.772 7.5 6.03194 -147863 -154629 -41727.7 -4714.29 -29771.6 17996.6 -7.4167 