(written by TR)

37456	atoms
2	atom types
0	168.034201	xlo xhi
0	291.043773	ylo yhi
0	18.4	zlo zhi


Masses

1	12
2	12

Atoms

1 1 1 0 -0.00000001 291.04377205 7.50000000 0 0 0
2 1 1 0 0.69999292 289.81062354 7.50000000 0 0 0
3 1 1 0 0.68204438 287.35468913 7.50000000 0 0 0
4 1 1 0 0.66409585 284.89875471 7.50000000 0 0 0
5 1 1 0 0.64614731 282.44282030 7.50000000 0 0 0
6 1 1 0 0.62819877 279.98688589 7.50000000 0 0 0
7 1 1 0 0.61025024 277.53095147 7.50000000 0 0 0
8 1 1 0 0.59230170 275.07501706 7.50000000 0 0 0
9 1 1 0 0.57435316 272.61908264 7.50000000 0 0 0
10 1 1 0 0.55640463 270.16314823 7.50000000 0 0 0
11 1 1 0 0.53845609 267.70721381 7.50000000 0 0 0
12 1 1 0 0.52050755 265.25127940 7.50000000 0 0 0
13 1 1 0 0.50255902 262.79534498 7.50000000 0 0 0
14 1 1 0 0.48461048 260.33941057 7.50000000 0 0 0
15 1 1 0 0.46666194 257.88347615 7.50000000 0 0 0
16 1 1 0 0.44871341 255.42754174 7.50000000 0 0 0
17 1 1 0 0.43076487 252.97160732 7.50000000 0 0 0
18 1 1 0 0.41281633 250.51567291 7.50000000 0 0 0
19 1 1 0 0.39486780 248.05973849 7.50000000 0 0 0
20 1 1 0 0.37691926 245.60380408 7.50000000 0 0 0
21 1 1 0 0.35897072 243.14786966 7.50000000 0 0 0
22 1 1 0 0.34102219 240.69193525 7.50000000 0 0 0
23 1 1 0 0.32307365 238.23600083 7.50000000 0 0 0
24 1 1 0 0.30512511 235.78006642 7.50000000 0 0 0
25 1 1 0 0.28717658 233.32413200 7.50000000 0 0 0
26 1 1 0 0.26922804 230.86819759 7.50000000 0 0 0
27 1 1 0 0.25127950 228.41226317 7.50000000 0 0 0
28 1 1 0 0.23333097 225.95632876 7.50000000 0 0 0
29 1 1 0 0.21538243 223.50039434 7.50000000 0 0 0
30 1 1 0 0.19743390 221.04445993 7.50000000 0 0 0
31 1 1 0 0.17948536 218.58852551 7.50000000 0 0 0
32 1 1 0 0.16153682 216.13259110 7.50000000 0 0 0
33 1 1 0 0.14358829 213.67665668 7.50000000 0 0 0
34 1 1 0 0.12563975 211.22072227 7.50000000 0 0 0
35 1 1 0 0.10769121 208.76478785 7.50000000 0 0 0
36 1 1 0 0.08974268 206.30885344 7.50000000 0 0 0
37 1 1 0 0.07179414 203.85291902 7.50000000 0 0 0
38 1 1 0 0.05384560 201.39698461 7.50000000 0 0 0
39 1 1 0 0.03589707 198.94105020 7.50000000 0 0 0
40 1 1 0 0.01794853 196.48511578 7.50000000 0 0 0
41 1 1 0 -0.00000001 194.02918137 7.50000000 0 0 0
42 1 1 0 2.83586878 291.02304686 7.50000000 0 0 0
43 1 1 0 2.11792731 289.80026095 7.50000000 0 0 0
44 1 1 0 2.81792024 288.56711245 7.50000000 0 0 0
45 1 1 0 2.09997878 287.34432654 7.50000000 0 0 0
46 1 1 0 2.79997171 286.11117803 7.50000000 0 0 0
47 1 1 0 2.08203024 284.88839212 7.50000000 0 0 0
48 1 1 0 2.78202317 283.65524362 7.50000000 0 0 0
49 1 1 0 2.06408170 282.43245771 7.50000000 0 0 0
50 1 1 0 2.76407463 281.19930920 7.50000000 0 0 0
51 1 1 0 2.04613317 279.97652329 7.50000000 0 0 0
52 1 1 0 2.74612610 278.74337479 7.50000000 0 0 0
53 1 1 0 2.02818463 277.52058888 7.50000000 0 0 0
54 1 1 0 2.72817756 276.28744037 7.50000000 0 0 0
55 1 1 0 2.01023610 275.06465446 7.50000000 0 0 0
56 1 1 0 2.71022902 273.83150596 7.50000000 0 0 0
57 1 1 0 1.99228756 272.60872005 7.50000000 0 0 0
58 1 1 0 2.69228049 271.37557154 7.50000000 0 0 0
59 1 1 0 1.97433902 270.15278563 7.50000000 0 0 0
60 1 1 0 2.67433195 268.91963713 7.50000000 0 0 0
61 1 1 0 1.95639049 267.69685122 7.50000000 0 0 0
62 1 1 0 2.65638341 266.46370271 7.50000000 0 0 0
63 1 1 0 1.93844195 265.24091680 7.50000000 0 0 0
64 1 1 0 2.63843488 264.00776830 7.50000000 0 0 0
65 1 1 0 1.92049341 262.78498239 7.50000000 0 0 0
66 1 1 0 2.62048634 261.55183389 7.50000000 0 0 0
67 1 1 0 1.90254488 260.32904797 7.50000000 0 0 0
68 1 1 0 2.60253781 259.09589947 7.50000000 0 0 0
69 1 1 0 1.88459634 257.87311356 7.50000000 0 0 0
70 1 1 0 2.58458927 256.63996506 7.50000000 0 0 0
71 1 1 0 1.86664780 255.41717914 7.50000000 0 0 0
72 1 1 0 2.56664073 254.18403064 7.50000000 0 0 0
73 1 1 0 1.84869927 252.96124473 7.50000000 0 0 0
74 1 1 0 2.54869220 251.72809623 7.50000000 0 0 0
75 1 1 0 1.83075073 250.50531031 7.50000000 0 0 0
76 1 1 0 2.53074366 249.27216181 7.50000000 0 0 0
77 1 1 0 1.81280219 248.04937590 7.50000000 0 0 0
78 1 1 0 2.51279512 246.81622740 7.50000000 0 0 0
79 1 1 0 1.79485366 245.59344148 7.50000000 0 0 0
80 1 1 0 2.49484659 244.36029298 7.50000000 0 0 0
81 1 1 0 1.77690512 243.13750707 7.50000000 0 0 0
82 1 1 0 2.47689805 241.90435857 7.50000000 0 0 0
83 1 1 0 1.75895658 240.68157266 7.50000000 0 0 0
84 1 1 0 2.45894951 239.44842415 7.50000000 0 0 0
85 1 1 0 1.74100805 238.22563824 7.50000000 0 0 0
86 1 1 0 2.44100098 236.99248974 7.50000000 0 0 0
87 1 1 0 1.72305951 235.76970383 7.50000000 0 0 0
88 1 1 0 2.42305244 234.53655532 7.50000000 0 0 0
89 1 1 0 1.70511097 233.31376941 7.50000000 0 0 0
90 1 1 0 2.40510390 232.08062091 7.50000000 0 0 0
91 1 1 0 1.68716244 230.85783500 7.50000000 0 0 0
92 1 1 0 2.38715537 229.62468649 7.50000000 0 0 0
93 1 1 0 1.66921390 228.40190058 7.50000000 0 0 0
94 1 1 0 2.36920683 227.16875208 7.50000000 0 0 0
95 1 1 0 1.65126536 225.94596617 7.50000000 0 0 0
96 1 1 0 2.35125829 224.71281766 7.50000000 0 0 0
97 1 1 0 1.63331683 223.49003175 7.50000000 0 0 0
98 1 1 0 2.33330976 222.25688325 7.50000000 0 0 0
99 1 1 0 1.61536829 221.03409734 7.50000000 0 0 0
100 1 1 0 2.31536122 219.80094883 7.50000000 0 0 0
101 1 1 0 1.59741975 218.57816292 7.50000000 0 0 0
102 1 1 0 2.29741268 217.34501442 7.50000000 0 0 0
103 1 1 0 1.57947122 216.12222851 7.50000000 0 0 0
104 1 1 0 2.27946415 214.88908000 7.50000000 0 0 0
105 1 1 0 1.56152268 213.66629409 7.50000000 0 0 0
106 1 1 0 2.26151561 212.43314559 7.50000000 0 0 0
107 1 1 0 1.54357414 211.21035968 7.50000000 0 0 0
108 1 1 0 2.24356707 209.97721117 7.50000000 0 0 0
109 1 1 0 1.52562561 208.75442526 7.50000000 0 0 0
110 1 1 0 2.22561854 207.52127676 7.50000000 0 0 0
111 1 1 0 1.50767707 206.29849085 7.50000000 0 0 0
112 1 1 0 2.20767000 205.06534234 7.50000000 0 0 0
113 1 1 0 1.48972853 203.84255643 7.50000000 0 0 0
114 1 1 0 2.18972146 202.60940793 7.50000000 0 0 0
115 1 1 0 1.47178000 201.38662202 7.50000000 0 0 0
116 1 1 0 2.17177293 200.15347351 7.50000000 0 0 0
117 1 1 0 1.45383146 198.93068760 7.50000000 0 0 0
118 1 1 0 2.15382439 197.69753910 7.50000000 0 0 0
119 1 1 0 1.43588293 196.47475319 7.50000000 0 0 0
120 1 1 0 2.13587585 195.24160468 7.50000000 0 0 0
121 1 1 0 1.41793439 194.01881877 7.50000000 0 0 0
122 1 1 0 2.11792732 192.78567027 7.50000000 0 0 0
123 1 1 0 1.39998585 191.56288436 7.50000000 0 0 0
124 1 1 0 2.09997878 190.32973585 7.50000000 0 0 0
125 1 1 0 1.38203732 189.10694994 7.50000000 0 0 0
126 1 1 0 2.08203024 187.87380144 7.50000000 0 0 0
127 1 1 0 1.36408878 186.65101553 7.50000000 0 0 0
128 1 1 0 2.06408171 185.41786702 7.50000000 0 0 0
129 1 1 0 1.34614024 184.19508111 7.50000000 0 0 0
130 1 1 0 2.04613317 182.96193261 7.50000000 0 0 0
131 1 1 0 1.32819171 181.73914670 7.50000000 0 0 0
132 1 1 0 2.02818464 180.50599820 7.50000000 0 0 0
133 1 1 0 1.31024317 179.28321228 7.50000000 0 0 0
134 1 1 0 2.01023610 178.05006378 7.50000000 0 0 0
135 1 1 0 1.29229463 176.82727787 7.50000000 0 0 0
136 1 1 0 1.99228756 175.59412937 7.50000000 0 0 0
137 1 1 0 1.27434610 174.37134345 7.50000000 0 0 0
138 1 1 0 1.97433903 173.13819495 7.50000000 0 0 0
139 1 1 0 1.25639756 171.91540904 7.50000000 0 0 0
140 1 1 0 1.95639049 170.68226054 7.50000000 0 0 0
141 1 1 0 1.23844902 169.45947462 7.50000000 0 0 0
142 1 1 0 1.93844195 168.22632612 7.50000000 0 0 0
143 1 1 0 1.22050049 167.00354021 7.50000000 0 0 0
144 1 1 0 1.92049342 165.77039171 7.50000000 0 0 0
145 1 1 0 1.20255195 164.54760579 7.50000000 0 0 0
146 1 1 0 1.90254488 163.31445729 7.50000000 0 0 0
147 1 1 0 1.18460341 162.09167138 7.50000000 0 0 0
148 1 1 0 1.88459634 160.85852288 7.50000000 0 0 0
149 1 1 0 1.16665488 159.63573697 7.50000000 0 0 0
150 1 1 0 1.86664781 158.40258846 7.50000000 0 0 0
151 1 1 0 1.14870634 157.17980255 7.50000000 0 0 0
152 1 1 0 1.84869927 155.94665405 7.50000000 0 0 0
153 1 1 0 1.13075780 154.72386814 7.50000000 0 0 0
154 1 1 0 1.83075073 153.49071963 7.50000000 0 0 0
155 1 1 0 1.11280927 152.26793372 7.50000000 0 0 0
156 1 1 0 1.81280220 151.03478522 7.50000000 0 0 0
157 1 1 0 1.09486073 149.81199931 7.50000000 0 0 0
158 1 1 0 1.79485366 148.57885080 7.50000000 0 0 0
159 1 1 0 1.07691219 147.35606489 7.50000000 0 0 0
160 1 1 0 1.77690512 146.12291639 7.50000000 0 0 0
161 1 1 0 1.05896366 144.90013048 7.50000000 0 0 0
162 1 1 0 1.75895659 143.66698197 7.50000000 0 0 0
163 1 1 0 1.04101512 142.44419606 7.50000000 0 0 0
164 1 1 0 1.74100805 141.21104756 7.50000000 0 0 0
165 1 1 0 1.02306658 139.98826165 7.50000000 0 0 0
166 1 1 0 1.72305951 138.75511314 7.50000000 0 0 0
167 1 1 0 1.00511805 137.53232723 7.50000000 0 0 0
168 1 1 0 1.70511098 136.29917873 7.50000000 0 0 0
169 1 1 0 0.98716951 135.07639282 7.50000000 0 0 0
170 1 1 0 1.68716244 133.84324431 7.50000000 0 0 0
171 1 1 0 0.96922097 132.62045840 7.50000000 0 0 0
172 1 1 0 1.66921390 131.38730990 7.50000000 0 0 0
173 1 1 0 0.95127244 130.16452399 7.50000000 0 0 0
174 1 1 0 1.65126537 128.93137548 7.50000000 0 0 0
175 1 1 0 0.93332390 127.70858957 7.50000000 0 0 0
176 1 1 0 1.63331683 126.47544107 7.50000000 0 0 0
177 1 1 0 0.91537536 125.25265516 7.50000000 0 0 0
178 1 1 0 1.61536829 124.01950665 7.50000000 0 0 0
179 1 1 0 0.89742683 122.79672074 7.50000000 0 0 0
180 1 1 0 1.59741976 121.56357224 7.50000000 0 0 0
181 1 1 0 0.87947829 120.34078633 7.50000000 0 0 0
182 1 1 0 1.57947122 119.10763782 7.50000000 0 0 0
183 1 1 0 0.86152976 117.88485191 7.50000000 0 0 0
184 1 1 0 1.56152268 116.65170341 7.50000000 0 0 0
185 1 1 0 0.84358122 115.42891750 7.50000000 0 0 0
186 1 1 0 1.54357415 114.19576899 7.50000000 0 0 0
187 1 1 0 0.82563268 112.97298308 7.50000000 0 0 0
188 1 1 0 1.52562561 111.73983458 7.50000000 0 0 0
189 1 1 0 0.80768415 110.51704867 7.50000000 0 0 0
190 1 1 0 1.50767707 109.28390016 7.50000000 0 0 0
191 1 1 0 0.78973561 108.06111425 7.50000000 0 0 0
192 1 1 0 1.48972854 106.82796575 7.50000000 0 0 0
193 1 1 0 0.77178707 105.60517984 7.50000000 0 0 0
194 1 1 0 1.47178000 104.37203133 7.50000000 0 0 0
195 1 1 0 0.75383854 103.14924542 7.50000000 0 0 0
196 1 1 0 1.45383147 101.91609692 7.50000000 0 0 0
197 1 1 0 0.73589000 100.69331101 7.50000000 0 0 0
198 1 1 0 1.43588293 99.46016251 7.50000000 0 0 0
199 1 1 0 0.71794146 98.23737659 7.50000000 0 0 0
200 1 1 0 1.41793439 97.00422809 7.50000000 0 0 0
201 1 1 0 0.69999293 95.78144218 7.50000000 0 0 0
202 1 1 0 1.39998586 94.54829368 7.50000000 0 0 0
203 1 1 0 0.68204439 93.32550776 7.50000000 0 0 0
204 1 1 0 1.38203732 92.09235926 7.50000000 0 0 0
205 1 1 0 0.66409585 90.86957335 7.50000000 0 0 0
206 1 1 0 1.36408878 89.63642485 7.50000000 0 0 0
207 1 1 0 0.64614732 88.41363893 7.50000000 0 0 0
208 1 1 0 1.34614025 87.18049043 7.50000000 0 0 0
209 1 1 0 0.62819878 85.95770452 7.50000000 0 0 0
210 1 1 0 1.32819171 84.72455602 7.50000000 0 0 0
211 1 1 0 0.61025024 83.50177010 7.50000000 0 0 0
212 1 1 0 1.31024317 82.26862160 7.50000000 0 0 0
213 1 1 0 0.59230171 81.04583569 7.50000000 0 0 0
214 1 1 0 1.29229464 79.81268719 7.50000000 0 0 0
215 1 1 0 0.57435317 78.58990128 7.50000000 0 0 0
216 1 1 0 1.27434610 77.35675277 7.50000000 0 0 0
217 1 1 0 0.55640463 76.13396686 7.50000000 0 0 0
218 1 1 0 1.25639756 74.90081836 7.50000000 0 0 0
219 1 1 0 0.53845610 73.67803245 7.50000000 0 0 0
220 1 1 0 1.23844903 72.44488394 7.50000000 0 0 0
221 1 1 0 0.52050756 71.22209803 7.50000000 0 0 0
222 1 1 0 1.22050049 69.98894953 7.50000000 0 0 0
223 1 1 0 0.50255902 68.76616362 7.50000000 0 0 0
224 1 1 0 1.20255195 67.53301511 7.50000000 0 0 0
225 1 1 0 0.48461049 66.31022920 7.50000000 0 0 0
226 1 1 0 1.18460342 65.07708070 7.50000000 0 0 0
227 1 1 0 0.46666195 63.85429479 7.50000000 0 0 0
228 1 1 0 1.16665488 62.62114628 7.50000000 0 0 0
229 1 1 0 0.44871341 61.39836037 7.50000000 0 0 0
230 1 1 0 1.14870634 60.16521187 7.50000000 0 0 0
231 1 1 0 0.43076488 58.94242596 7.50000000 0 0 0
232 1 1 0 1.13075781 57.70927745 7.50000000 0 0 0
233 1 1 0 0.41281634 56.48649154 7.50000000 0 0 0
234 1 1 0 1.11280927 55.25334304 7.50000000 0 0 0
235 1 1 0 0.39486780 54.03055713 7.50000000 0 0 0
236 1 1 0 1.09486073 52.79740862 7.50000000 0 0 0
237 1 1 0 0.37691927 51.57462271 7.50000000 0 0 0
238 1 1 0 1.07691220 50.34147421 7.50000000 0 0 0
239 1 1 0 0.35897073 49.11868830 7.50000000 0 0 0
240 1 1 0 1.05896366 47.88553979 7.50000000 0 0 0
241 1 1 0 0.34102219 46.66275388 7.50000000 0 0 0
242 1 1 0 1.04101512 45.42960538 7.50000000 0 0 0
243 1 1 0 0.32307366 44.20681947 7.50000000 0 0 0
244 1 1 0 1.02306659 42.97367096 7.50000000 0 0 0
245 1 1 0 0.30512512 41.75088505 7.50000000 0 0 0
246 1 1 0 1.00511805 40.51773655 7.50000000 0 0 0
247 1 1 0 0.28717659 39.29495064 7.50000000 0 0 0
248 1 1 0 0.98716951 38.06180213 7.50000000 0 0 0
249 1 1 0 0.26922805 36.83901622 7.50000000 0 0 0
250 1 1 0 0.96922098 35.60586772 7.50000000 0 0 0
251 1 1 0 0.25127951 34.38308181 7.50000000 0 0 0
252 1 1 0 0.95127244 33.14993330 7.50000000 0 0 0
253 1 1 0 0.23333098 31.92714739 7.50000000 0 0 0
254 1 1 0 0.93332390 30.69399889 7.50000000 0 0 0
255 1 1 0 0.21538244 29.47121298 7.50000000 0 0 0
256 1 1 0 0.91537537 28.23806447 7.50000000 0 0 0
257 1 1 0 0.19743390 27.01527856 7.50000000 0 0 0
258 1 1 0 0.89742683 25.78213006 7.50000000 0 0 0
259 1 1 0 0.17948537 24.55934415 7.50000000 0 0 0
260 1 1 0 0.87947830 23.32619564 7.50000000 0 0 0
261 1 1 0 0.16153683 22.10340973 7.50000000 0 0 0
262 1 1 0 0.86152976 20.87026123 7.50000000 0 0 0
263 1 1 0 0.14358829 19.64747532 7.50000000 0 0 0
264 1 1 0 0.84358122 18.41432682 7.50000000 0 0 0
265 1 1 0 0.12563976 17.19154090 7.50000000 0 0 0
266 1 1 0 0.82563269 15.95839240 7.50000000 0 0 0
267 1 1 0 0.10769122 14.73560649 7.50000000 0 0 0
268 1 1 0 0.80768415 13.50245799 7.50000000 0 0 0
269 1 1 0 0.08974268 12.27967207 7.50000000 0 0 0
270 1 1 0 0.78973561 11.04652357 7.50000000 0 0 0
271 1 1 0 0.07179415 9.82373766 7.50000000 0 0 0
272 1 1 0 0.77178708 8.59058916 7.50000000 0 0 0
273 1 1 0 0.05384561 7.36780324 7.50000000 0 0 0
274 1 1 0 0.75383854 6.13465474 7.50000000 0 0 0
275 1 1 0 0.03589707 4.91186883 7.50000000 0 0 0
276 1 1 0 0.73589000 3.67872033 7.50000000 0 0 0
277 1 1 0 0.01794854 2.45593441 7.50000000 0 0 0
278 1 1 0 0.71794147 1.22278591 7.50000000 0 0 0
279 1 1 0 0.00000000 0.00000000 7.50000000 0 0 0
280 1 1 0 4.25380318 291.01268427 7.50000000 0 0 0
281 1 1 0 4.95379611 289.77953577 7.50000000 0 0 0
282 1 1 0 4.23585464 288.55674986 7.50000000 0 0 0
283 1 1 0 4.93584757 287.32360135 7.50000000 0 0 0
284 1 1 0 4.21790610 286.10081544 7.50000000 0 0 0
285 1 1 0 4.91789903 284.86766694 7.50000000 0 0 0
286 1 1 0 4.19995757 283.64488103 7.50000000 0 0 0
287 1 1 0 4.89995050 282.41173252 7.50000000 0 0 0
288 1 1 0 4.18200903 281.18894661 7.50000000 0 0 0
289 1 1 0 4.88200196 279.95579811 7.50000000 0 0 0
290 1 1 0 4.16406049 278.73301220 7.50000000 0 0 0
291 1 1 0 4.86405342 277.49986369 7.50000000 0 0 0
292 1 1 0 4.14611196 276.27707778 7.50000000 0 0 0
293 1 1 0 4.84610489 275.04392928 7.50000000 0 0 0
294 1 1 0 4.12816342 273.82114337 7.50000000 0 0 0
295 1 1 0 4.82815635 272.58799486 7.50000000 0 0 0
296 1 1 0 4.11021488 271.36520895 7.50000000 0 0 0
297 1 1 0 4.81020781 270.13206045 7.50000000 0 0 0
298 1 1 0 4.09226635 268.90927454 7.50000000 0 0 0
299 1 1 0 4.79225928 267.67612603 7.50000000 0 0 0
300 1 1 0 4.07431781 266.45334012 7.50000000 0 0 0
301 1 1 0 4.77431074 265.22019162 7.50000000 0 0 0
302 1 1 0 4.05636927 263.99740571 7.50000000 0 0 0
303 1 1 0 4.75636220 262.76425720 7.50000000 0 0 0
304 1 1 0 4.03842074 261.54147129 7.50000000 0 0 0
305 1 1 0 4.73841367 260.30832279 7.50000000 0 0 0
306 1 1 0 4.02047220 259.08553688 7.50000000 0 0 0
307 1 1 0 4.72046513 257.85238837 7.50000000 0 0 0
308 1 1 0 4.00252366 256.62960246 7.50000000 0 0 0
309 1 1 0 4.70251659 255.39645396 7.50000000 0 0 0
310 1 1 0 3.98457513 254.17366805 7.50000000 0 0 0
311 1 1 0 4.68456806 252.94051954 7.50000000 0 0 0
312 1 1 0 3.96662659 251.71773363 7.50000000 0 0 0
313 1 1 0 4.66661952 250.48458513 7.50000000 0 0 0
314 1 1 0 3.94867805 249.26179922 7.50000000 0 0 0
315 1 1 0 4.64867098 248.02865071 7.50000000 0 0 0
316 1 1 0 3.93072952 246.80586480 7.50000000 0 0 0
317 1 1 0 4.63072245 245.57271630 7.50000000 0 0 0
318 1 1 0 3.91278098 244.34993039 7.50000000 0 0 0
319 1 1 0 4.61277391 243.11678189 7.50000000 0 0 0
320 1 1 0 3.89483244 241.89399597 7.50000000 0 0 0
321 1 1 0 4.59482537 240.66084747 7.50000000 0 0 0
322 1 1 0 3.87688391 239.43806156 7.50000000 0 0 0
323 1 1 0 4.57687684 238.20491306 7.50000000 0 0 0
324 1 1 0 3.85893537 236.98212714 7.50000000 0 0 0
325 1 1 0 4.55892830 235.74897864 7.50000000 0 0 0
326 1 1 0 3.84098684 234.52619273 7.50000000 0 0 0
327 1 1 0 4.54097976 233.29304423 7.50000000 0 0 0
328 1 1 0 3.82303830 232.07025831 7.50000000 0 0 0
329 1 1 0 4.52303123 230.83710981 7.50000000 0 0 0
330 1 1 0 3.80508976 229.61432390 7.50000000 0 0 0
331 1 1 0 4.50508269 228.38117540 7.50000000 0 0 0
332 1 1 0 3.78714123 227.15838948 7.50000000 0 0 0
333 1 1 0 4.48713415 225.92524098 7.50000000 0 0 0
334 1 1 0 3.76919269 224.70245507 7.50000000 0 0 0
335 1 1 0 4.46918562 223.46930657 7.50000000 0 0 0
336 1 1 0 3.75124415 222.24652066 7.50000000 0 0 0
337 1 1 0 4.45123708 221.01337215 7.50000000 0 0 0
338 1 1 0 3.73329562 219.79058624 7.50000000 0 0 0
339 1 1 0 4.43328855 218.55743774 7.50000000 0 0 0
340 1 1 0 3.71534708 217.33465183 7.50000000 0 0 0
341 1 1 0 4.41534001 216.10150332 7.50000000 0 0 0
342 1 1 0 3.69739854 214.87871741 7.50000000 0 0 0
343 1 1 0 4.39739147 213.64556891 7.50000000 0 0 0
344 1 1 0 3.67945001 212.42278300 7.50000000 0 0 0
345 1 1 0 4.37944294 211.18963449 7.50000000 0 0 0
346 1 1 0 3.66150147 209.96684858 7.50000000 0 0 0
347 1 1 0 4.36149440 208.73370008 7.50000000 0 0 0
348 1 1 0 3.64355293 207.51091417 7.50000000 0 0 0
349 1 1 0 4.34354586 206.27776566 7.50000000 0 0 0
350 1 1 0 3.62560440 205.05497975 7.50000000 0 0 0
351 1 1 0 4.32559733 203.82183125 7.50000000 0 0 0
352 1 1 0 3.60765586 202.59904534 7.50000000 0 0 0
353 1 1 0 4.30764879 201.36589683 7.50000000 0 0 0
354 1 1 0 3.58970732 200.14311092 7.50000000 0 0 0
355 1 1 0 4.28970025 198.90996242 7.50000000 0 0 0
356 1 1 0 3.57175879 197.68717651 7.50000000 0 0 0
357 1 1 0 4.27175172 196.45402800 7.50000000 0 0 0
358 1 1 0 3.55381025 195.23124209 7.50000000 0 0 0
359 1 1 0 4.25380318 193.99809359 7.50000000 0 0 0
360 1 1 0 3.53586171 192.77530768 7.50000000 0 0 0
361 1 1 0 4.23585464 191.54215917 7.50000000 0 0 0
362 1 1 0 3.51791318 190.31937326 7.50000000 0 0 0
363 1 1 0 4.21790611 189.08622476 7.50000000 0 0 0
364 1 1 0 3.49996464 187.86343885 7.50000000 0 0 0
365 1 1 0 4.19995757 186.63029034 7.50000000 0 0 0
366 1 1 0 3.48201610 185.40750443 7.50000000 0 0 0
367 1 1 0 4.18200903 184.17435593 7.50000000 0 0 0
368 1 1 0 3.46406757 182.95157002 7.50000000 0 0 0
369 1 1 0 4.16406050 181.71842151 7.50000000 0 0 0
370 1 1 0 3.44611903 180.49563560 7.50000000 0 0 0
371 1 1 0 4.14611196 179.26248710 7.50000000 0 0 0
372 1 1 0 3.42817049 178.03970119 7.50000000 0 0 0
373 1 1 0 4.12816342 176.80655268 7.50000000 0 0 0
374 1 1 0 3.41022196 175.58376677 7.50000000 0 0 0
375 1 1 0 4.11021489 174.35061827 7.50000000 0 0 0
376 1 1 0 3.39227342 173.12783236 7.50000000 0 0 0
377 1 1 0 4.09226635 171.89468385 7.50000000 0 0 0
378 1 1 0 3.37432488 170.67189794 7.50000000 0 0 0
379 1 1 0 4.07431781 169.43874944 7.50000000 0 0 0
380 1 1 0 3.35637635 168.21596353 7.50000000 0 0 0
381 1 1 0 4.05636928 166.98281502 7.50000000 0 0 0
382 1 1 0 3.33842781 165.76002911 7.50000000 0 0 0
383 1 1 0 4.03842074 164.52688061 7.50000000 0 0 0
384 1 1 0 3.32047927 163.30409470 7.50000000 0 0 0
385 1 1 0 4.02047220 162.07094620 7.50000000 0 0 0
386 1 1 0 3.30253074 160.84816028 7.50000000 0 0 0
387 1 1 0 4.00252367 159.61501178 7.50000000 0 0 0
388 1 1 0 3.28458220 158.39222587 7.50000000 0 0 0
389 1 1 0 3.98457513 157.15907737 7.50000000 0 0 0
390 1 1 0 3.26663367 155.93629145 7.50000000 0 0 0
391 1 1 0 3.96662659 154.70314295 7.50000000 0 0 0
392 1 1 0 3.24868513 153.48035704 7.50000000 0 0 0
393 1 1 0 3.94867806 152.24720854 7.50000000 0 0 0
394 1 1 0 3.23073659 151.02442262 7.50000000 0 0 0
395 1 1 0 3.93072952 149.79127412 7.50000000 0 0 0
396 1 1 0 3.21278806 148.56848821 7.50000000 0 0 0
397 1 1 0 3.91278098 147.33533971 7.50000000 0 0 0
398 1 1 0 3.19483952 146.11255379 7.50000000 0 0 0
399 1 1 0 3.89483245 144.87940529 7.50000000 0 0 0
400 1 1 0 3.17689098 143.65661938 7.50000000 0 0 0
401 1 1 0 3.87688391 142.42347088 7.50000000 0 0 0
402 1 1 0 3.15894245 141.20068497 7.50000000 0 0 0
403 1 1 0 3.85893538 139.96753646 7.50000000 0 0 0
404 1 1 0 3.14099391 138.74475055 7.50000000 0 0 0
405 1 1 0 3.84098684 137.51160205 7.50000000 0 0 0
406 1 1 0 3.12304537 136.28881614 7.50000000 0 0 0
407 1 1 0 3.82303830 135.05566763 7.50000000 0 0 0
408 1 1 0 3.10509684 133.83288172 7.50000000 0 0 0
409 1 1 0 3.80508977 132.59973322 7.50000000 0 0 0
410 1 1 0 3.08714830 131.37694731 7.50000000 0 0 0
411 1 1 0 3.78714123 130.14379880 7.50000000 0 0 0
412 1 1 0 3.06919976 128.92101289 7.50000000 0 0 0
413 1 1 0 3.76919269 127.68786439 7.50000000 0 0 0
414 1 1 0 3.05125123 126.46507848 7.50000000 0 0 0
415 1 1 0 3.75124416 125.23192997 7.50000000 0 0 0
416 1 1 0 3.03330269 124.00914406 7.50000000 0 0 0
417 1 1 0 3.73329562 122.77599556 7.50000000 0 0 0
418 1 1 0 3.01535415 121.55320965 7.50000000 0 0 0
419 1 1 0 3.71534708 120.32006114 7.50000000 0 0 0
420 1 1 0 2.99740562 119.09727523 7.50000000 0 0 0
421 1 1 0 3.69739855 117.86412673 7.50000000 0 0 0
422 1 1 0 2.97945708 116.64134082 7.50000000 0 0 0
423 1 1 0 3.67945001 115.40819231 7.50000000 0 0 0
424 1 1 0 2.96150854 114.18540640 7.50000000 0 0 0
425 1 1 0 3.66150147 112.95225790 7.50000000 0 0 0
426 1 1 0 2.94356001 111.72947199 7.50000000 0 0 0
427 1 1 0 3.64355294 110.49632348 7.50000000 0 0 0
428 1 1 0 2.92561147 109.27353757 7.50000000 0 0 0
429 1 1 0 3.62560440 108.04038907 7.50000000 0 0 0
430 1 1 0 2.90766293 106.81760316 7.50000000 0 0 0
431 1 1 0 3.60765586 105.58445465 7.50000000 0 0 0
432 1 1 0 2.88971440 104.36166874 7.50000000 0 0 0
433 1 1 0 3.58970733 103.12852024 7.50000000 0 0 0
434 1 1 0 2.87176586 101.90573433 7.50000000 0 0 0
435 1 1 0 3.57175879 100.67258582 7.50000000 0 0 0
436 1 1 0 2.85381732 99.44979991 7.50000000 0 0 0
437 1 1 0 3.55381025 98.21665141 7.50000000 0 0 0
438 1 1 0 2.83586879 96.99386550 7.50000000 0 0 0
439 1 1 0 3.53586172 95.76071699 7.50000000 0 0 0
440 1 1 0 2.81792025 94.53793108 7.50000000 0 0 0
441 1 1 0 3.51791318 93.30478258 7.50000000 0 0 0
442 1 1 0 2.79997171 92.08199667 7.50000000 0 0 0
443 1 1 0 3.49996464 90.84884816 7.50000000 0 0 0
444 1 1 0 2.78202318 89.62606225 7.50000000 0 0 0
445 1 1 0 3.48201611 88.39291375 7.50000000 0 0 0
446 1 1 0 2.76407464 87.17012784 7.50000000 0 0 0
447 1 1 0 3.46406757 85.93697933 7.50000000 0 0 0
448 1 1 0 2.74612610 84.71419342 7.50000000 0 0 0
449 1 1 0 3.44611903 83.48104492 7.50000000 0 0 0
450 1 1 0 2.72817757 82.25825901 7.50000000 0 0 0
451 1 1 0 3.42817050 81.02511051 7.50000000 0 0 0
452 1 1 0 2.71022903 79.80232459 7.50000000 0 0 0
453 1 1 0 3.41022196 78.56917609 7.50000000 0 0 0
454 1 1 0 2.69228050 77.34639018 7.50000000 0 0 0
455 1 1 0 3.39227342 76.11324168 7.50000000 0 0 0
456 1 1 0 2.67433196 74.89045576 7.50000000 0 0 0
457 1 1 0 3.37432489 73.65730726 7.50000000 0 0 0
458 1 1 0 2.65638342 72.43452135 7.50000000 0 0 0
459 1 1 0 3.35637635 71.20137285 7.50000000 0 0 0
460 1 1 0 2.63843489 69.97858693 7.50000000 0 0 0
461 1 1 0 3.33842781 68.74543843 7.50000000 0 0 0
462 1 1 0 2.62048635 67.52265252 7.50000000 0 0 0
463 1 1 0 3.32047928 66.28950402 7.50000000 0 0 0
464 1 1 0 2.60253781 65.06671810 7.50000000 0 0 0
465 1 1 0 3.30253074 63.83356960 7.50000000 0 0 0
466 1 1 0 2.58458928 62.61078369 7.50000000 0 0 0
467 1 1 0 3.28458221 61.37763519 7.50000000 0 0 0
468 1 1 0 2.56664074 60.15484928 7.50000000 0 0 0
469 1 1 0 3.26663367 58.92170077 7.50000000 0 0 0
470 1 1 0 2.54869220 57.69891486 7.50000000 0 0 0
471 1 1 0 3.24868513 56.46576636 7.50000000 0 0 0
472 1 1 0 2.53074367 55.24298045 7.50000000 0 0 0
473 1 1 0 3.23073660 54.00983194 7.50000000 0 0 0
474 1 1 0 2.51279513 52.78704603 7.50000000 0 0 0
475 1 1 0 3.21278806 51.55389753 7.50000000 0 0 0
476 1 1 0 2.49484659 50.33111162 7.50000000 0 0 0
477 1 1 0 3.19483952 49.09796311 7.50000000 0 0 0
478 1 1 0 2.47689806 47.87517720 7.50000000 0 0 0
479 1 1 0 3.17689099 46.64202870 7.50000000 0 0 0
480 1 1 0 2.45894952 45.41924279 7.50000000 0 0 0
481 1 1 0 3.15894245 44.18609428 7.50000000 0 0 0
482 1 1 0 2.44100098 42.96330837 7.50000000 0 0 0
483 1 1 0 3.14099391 41.73015987 7.50000000 0 0 0
484 1 1 0 2.42305245 40.50737396 7.50000000 0 0 0
485 1 1 0 3.12304538 39.27422545 7.50000000 0 0 0
486 1 1 0 2.40510391 38.05143954 7.50000000 0 0 0
487 1 1 0 3.10509684 36.81829104 7.50000000 0 0 0
488 1 1 0 2.38715537 35.59550513 7.50000000 0 0 0
489 1 1 0 3.08714830 34.36235662 7.50000000 0 0 0
490 1 1 0 2.36920684 33.13957071 7.50000000 0 0 0
491 1 1 0 3.06919977 31.90642221 7.50000000 0 0 0
492 1 1 0 2.35125830 30.68363630 7.50000000 0 0 0
493 1 1 0 3.05125123 29.45048779 7.50000000 0 0 0
494 1 1 0 2.33330976 28.22770188 7.50000000 0 0 0
495 1 1 0 3.03330269 26.99455338 7.50000000 0 0 0
496 1 1 0 2.31536123 25.77176747 7.50000000 0 0 0
497 1 1 0 3.01535416 24.53861896 7.50000000 0 0 0
498 1 1 0 2.29741269 23.31583305 7.50000000 0 0 0
499 1 1 0 2.99740562 22.08268455 7.50000000 0 0 0
500 1 1 0 2.27946415 20.85989864 7.50000000 0 0 0
501 1 1 0 2.97945708 19.62675013 7.50000000 0 0 0
502 1 1 0 2.26151562 18.40396422 7.50000000 0 0 0
503 1 1 0 2.96150855 17.17081572 7.50000000 0 0 0
504 1 1 0 2.24356708 15.94802981 7.50000000 0 0 0
505 1 1 0 2.94356001 14.71488130 7.50000000 0 0 0
506 1 1 0 2.22561854 13.49209539 7.50000000 0 0 0
507 1 1 0 2.92561147 12.25894689 7.50000000 0 0 0
508 1 1 0 2.20767001 11.03616098 7.50000000 0 0 0
509 1 1 0 2.90766294 9.80301247 7.50000000 0 0 0
510 1 1 0 2.18972147 8.58022656 7.50000000 0 0 0
511 1 1 0 2.88971440 7.34707806 7.50000000 0 0 0
512 1 1 0 2.17177293 6.12429215 7.50000000 0 0 0
513 1 1 0 2.87176586 4.89114364 7.50000000 0 0 0
514 1 1 0 2.15382440 3.66835773 7.50000000 0 0 0
515 1 1 0 2.85381733 2.43520923 7.50000000 0 0 0
516 1 1 0 2.13587586 1.21242332 7.50000000 0 0 0
517 1 1 0 7.08967197 290.99195909 7.50000000 0 0 0
518 1 1 0 6.37173050 289.76917317 7.50000000 0 0 0
519 1 1 0 7.07172343 288.53602467 7.50000000 0 0 0
520 1 1 0 6.35378196 287.31323876 7.50000000 0 0 0
521 1 1 0 7.05377489 286.08009026 7.50000000 0 0 0
522 1 1 0 6.33583343 284.85730435 7.50000000 0 0 0
523 1 1 0 7.03582636 283.62415584 7.50000000 0 0 0
524 1 1 0 6.31788489 282.40136993 7.50000000 0 0 0
525 1 1 0 7.01787782 281.16822143 7.50000000 0 0 0
526 1 1 0 6.29993635 279.94543552 7.50000000 0 0 0
527 1 1 0 6.99992928 278.71228701 7.50000000 0 0 0
528 1 1 0 6.28198782 277.48950110 7.50000000 0 0 0
529 1 1 0 6.98198075 276.25635260 7.50000000 0 0 0
530 1 1 0 6.26403928 275.03356669 7.50000000 0 0 0
531 1 1 0 6.96403221 273.80041818 7.50000000 0 0 0
532 1 1 0 6.24609075 272.57763227 7.50000000 0 0 0
533 1 1 0 6.94608367 271.34448377 7.50000000 0 0 0
534 1 1 0 6.22814221 270.12169786 7.50000000 0 0 0
535 1 1 0 6.92813514 268.88854935 7.50000000 0 0 0
536 1 1 0 6.21019367 267.66576344 7.50000000 0 0 0
537 1 1 0 6.91018660 266.43261494 7.50000000 0 0 0
538 1 1 0 6.19224514 265.20982903 7.50000000 0 0 0
539 1 1 0 6.89223807 263.97668052 7.50000000 0 0 0
540 1 1 0 6.17429660 262.75389461 7.50000000 0 0 0
541 1 1 0 6.87428953 261.52074611 7.50000000 0 0 0
542 1 1 0 6.15634806 260.29796020 7.50000000 0 0 0
543 1 1 0 6.85634099 259.06481169 7.50000000 0 0 0
544 1 1 0 6.13839953 257.84202578 7.50000000 0 0 0
545 1 1 0 6.83839246 256.60887728 7.50000000 0 0 0
546 1 1 0 6.12045099 255.38609137 7.50000000 0 0 0
547 1 1 0 6.82044392 254.15294286 7.50000000 0 0 0
548 1 1 0 6.10250245 252.93015695 7.50000000 0 0 0
549 1 1 0 6.80249538 251.69700845 7.50000000 0 0 0
550 1 1 0 6.08455392 250.47422254 7.50000000 0 0 0
551 1 1 0 6.78454685 249.24107403 7.50000000 0 0 0
552 1 1 0 6.06660538 248.01828812 7.50000000 0 0 0
553 1 1 0 6.76659831 246.78513962 7.50000000 0 0 0
554 1 1 0 6.04865684 245.56235371 7.50000000 0 0 0
555 1 1 0 6.74864977 244.32920520 7.50000000 0 0 0
556 1 1 0 6.03070831 243.10641929 7.50000000 0 0 0
557 1 1 0 6.73070124 241.87327079 7.50000000 0 0 0
558 1 1 0 6.01275977 240.65048488 7.50000000 0 0 0
559 1 1 0 6.71275270 239.41733637 7.50000000 0 0 0
560 1 1 0 5.99481123 238.19455046 7.50000000 0 0 0
561 1 1 0 6.69480416 236.96140196 7.50000000 0 0 0
562 1 1 0 5.97686270 235.73861605 7.50000000 0 0 0
563 1 1 0 6.67685563 234.50546754 7.50000000 0 0 0
564 1 1 0 5.95891416 233.28268163 7.50000000 0 0 0
565 1 1 0 6.65890709 232.04953313 7.50000000 0 0 0
566 1 1 0 5.94096562 230.82674722 7.50000000 0 0 0
567 1 1 0 6.64095855 229.59359871 7.50000000 0 0 0
568 1 1 0 5.92301709 228.37081280 7.50000000 0 0 0
569 1 1 0 6.62301002 227.13766430 7.50000000 0 0 0
570 1 1 0 5.90506855 225.91487839 7.50000000 0 0 0
571 1 1 0 6.60506148 224.68172989 7.50000000 0 0 0
572 1 1 0 5.88712001 223.45894397 7.50000000 0 0 0
573 1 1 0 6.58711294 222.22579547 7.50000000 0 0 0
574 1 1 0 5.86917148 221.00300956 7.50000000 0 0 0
575 1 1 0 6.56916441 219.76986106 7.50000000 0 0 0
576 1 1 0 5.85122294 218.54707514 7.50000000 0 0 0
577 1 1 0 6.55121587 217.31392664 7.50000000 0 0 0
578 1 1 0 5.83327440 216.09114073 7.50000000 0 0 0
579 1 1 0 6.53326733 214.85799223 7.50000000 0 0 0
580 1 1 0 5.81532587 213.63520631 7.50000000 0 0 0
581 1 1 0 6.51531880 212.40205781 7.50000000 0 0 0
582 1 1 0 5.79737733 211.17927190 7.50000000 0 0 0
583 1 1 0 6.49737026 209.94612340 7.50000000 0 0 0
584 1 1 0 5.77942879 208.72333748 7.50000000 0 0 0
585 1 1 0 6.47942172 207.49018898 7.50000000 0 0 0
586 1 1 0 5.76148026 206.26740307 7.50000000 0 0 0
587 1 1 0 6.46147319 205.03425457 7.50000000 0 0 0
588 1 1 0 5.74353172 203.81146866 7.50000000 0 0 0
589 1 1 0 6.44352465 202.57832015 7.50000000 0 0 0
590 1 1 0 5.72558318 201.35553424 7.50000000 0 0 0
591 1 1 0 6.42557611 200.12238574 7.50000000 0 0 0