ITEM: TIMESTEP
0
ITEM: NUMBER OF ATOMS
23816
ITEM: BOX BOUNDS pp pp pp
0.0000000000000000e+00 1.3400400500000001e+02
0.0000000000000000e+00 2.3210174599999999e+02
0.0000000000000000e+00 1.8399999999999999e+01
ITEM: ATOMS id type x y z c_csym c_2[1] c_2[2] c_2[3] c_2[4] c_2[5] c_2[6] c_3 
215 1 0.788 8.589 3 6.02415 -139941 -122690 -105651 -25790.2 16251.4 -1842.68 -7.41325 
216 1 0.068 7.368 3 6.0234 -132853 -152423 -105956 -11470.7 16441.9 -241.301 -7.41342 
217 1 0.765 6.133 3 6.0237 -144789 -142081 -107618 -13881.9 12065.1 -1777.46 -7.41312 
218 1 0.045 4.912 3 6.02472 -127138 -132876 -108095 -26854.1 10819.5 -174.452 -7.41332 
219 1 0.743 3.677 3 6.02415 -135768 -126113 -108863 -25756 7591.94 -1649.71 -7.41306 
220 1 0.023 2.456 3 6.0234 -135591 -148859 -109304 -11568 5478.79 -108.92 -7.41323 
221 1 0.72 1.221 3 6.02246 -140262 -146116 -109642 -13848.3 2531.93 -1555.86 -7.413 
222 1 0 0 3 6.02651 -131869 -140371 -109717 -21776.9 -3.0269 -11.226 -7.41304 
405 1 2.206 8.576 3 6.02466 -134404 -153713 -104509 26404 18929.5 -3781.31 -7.4133 
406 1 2.903 7.342 3 6.02466 -145288 -142444 -106057 22601.8 14242.6 -6867.99 -7.4132 
407 1 2.183 6.12 3 6.0242 -128543 -134132 -106999 14385.8 13351.1 -4067.18 -7.41318 
408 1 2.881 4.886 3 6.02421 -136180 -126305 -107709 10610.3 9925.66 -6632.65 -7.41314 
409 1 2.161 3.664 3 6.02466 -136914 -150194 -108634 26217.7 7976.51 -4212.29 -7.41306 
410 1 2.858 2.43 3 6.02466 -140816 -146518 -108790 22412.5 5172.73 -6388.07 -7.41302 
411 1 2.138 1.208 3 6.02423 -133378 -139866 -109346 19057.7 2440.71 -4440.61 -7.41303 
594 1 5.041 8.55 3 6.02341 -144505 -141522 -103796 -14709.2 16275.6 -11872.6 -7.41355 
595 1 4.321 7.329 3 6.02415 -128535 -134212 -105291 -21636.8 15734.5 -7762.11 -7.41327 
596 1 5.019 6.094 3 6.02468 -135467 -125413 -105694 -30206.1 12324.2 -11521 -7.41346 
597 1 4.299 4.873 3 6.02369 -136808 -150180 -107226 -9879 10275.2 -8229.32 -7.41313 
598 1 4.996 3.638 3 6.02341 -140330 -144882 -107242 -15015.4 7739.05 -11171.2 -7.41335 
599 1 4.276 2.417 3 6.02417 -130929 -131351 -108307 -21890.1 4840.56 -8670.33 -7.41307 
600 1 4.974 1.182 3 6.02405 -133278 -137815 -108042 -35381.8 2972.01 -10663.7 -7.41334 
783 1 6.459 8.537 3 6.02392 -117267 -122625 -103226 31941.2 17677.9 -10880.1 -7.41321 
784 1 7.157 7.303 3 6.02637 -135697 -129789 -102695 6342.97 14571.5 -16504.7 -7.41322 
785 1 6.437 6.081 3 6.0257 -126648 -138138 -105380 16948.5 12417.5 -11677.5 -7.41307 
786 1 7.135 4.847 3 6.02367 -174110 -112353 -104636 22359.5 10302.4 -16046.3 -7.41349 
787 1 6.414 3.625 3 6.02392 -120446 -118626 -106751 30529.5 6883.34 -12375.2 -7.413 
788 1 7.112 2.391 3 6.02705 -131222 -133745 -105888 5830.2 5753.65 -15464.2 -7.413 
789 1 6.392 1.169 3 6.02382 -131315 -143912 -107260 21351.5 1681.86 -13016.3 -7.41298 
972 1 9.295 8.511 3 6.02369 -146850 -142138 -99015.7 -18790 16753.6 -21227 -7.41362 
973 1 8.575 7.29 3 6.02587 -126202 -137007 -103022 -19758.8 14188.7 -14821.6 -7.4134 
974 1 9.273 6.055 3 6.02413 -128154 -111845 -101148 -17922.3 12963 -20718.2 -7.41332 
975 1 8.552 4.834 3 6.02324 -167867 -118076 -104576 -4074.58 8894.88 -15832.1 -7.41349 
976 1 9.25 3.599 3 6.02629 -133688 -131389 -103090 -32066.7 8560.78 -20008.3 -7.41319 
977 1 8.53 2.378 3 6.02705 -128508 -136264 -105275 -20611 3559.96 -16710.5 -7.41302 
978 1 9.228 1.143 3 6.02391 -125943 -124053 -104181 -23384.1 3956.85 -19256.4 -7.41317 
11937 2 0.63 8.602 6.4 6.02572 -125259 -139526 -104604 -11396 19093.6 -1051.46 -7.41311 
11938 2 0.653 6.146 6.4 6.02391 -118796 -119970 -107153 -25149.3 13499.4 -1201.82 -7.41297 
11939 2 0.675 3.69 6.4 6.02572 -127764 -135991 -108790 -11334.5 8126.1 -1347.84 -7.41287 
11940 2 0.698 1.234 6.4 6.02331 -121848 -117230 -109546 -25668.9 2585.43 -1491.83 -7.41274 
11941 2 0 0 6.4 6.02712 -131543 -141039 -109710 -7580.89 5.83598 54.4892 -7.41305 
12123 2 2.048 8.615 6.4 6.02468 -137673 -123232 -105300 25852.8 16361.2 -4914.22 -7.41348 
12124 2 2.768 7.394 6.4 6.02369 -135404 -151964 -105710 15452.7 16163.7 -4807.87 -7.41322 
12125 2 2.071 6.159 6.4 6.0234 -142476 -142685 -107294 10376.6 12190.6 -4813.79 -7.41335 
12126 2 2.791 4.938 6.4 6.02415 -129659 -132499 -107745 27336.2 10678.4 -5233.05 -7.41313 
12127 2 2.093 3.703 6.4 6.02468 -133500 -126645 -108535 25587.3 7718.39 -4768.31 -7.4133 
12128 2 2.813 2.482 6.4 6.02369 -138156 -148429 -108892 15410.8 5234.83 -5639.73 -7.41304 
12129 2 2.116 1.247 6.4 6.02217 -138124 -146810 -109348 10180.8 2677.11 -4615.5 -7.4132 
12130 2 2.836 0.026 6.4 6.02417 -134513 -138108 -109246 22456.4 -98.2226 -5963.47 -7.41307 
12312 2 4.884 8.641 6.4 6.02536 -124959 -136694 -103700 -6954.21 18389.3 -8228.71 -7.41358 
12313 2 4.186 7.407 6.4 6.0242 -138422 -124646 -105312 -15032.5 14561.6 -9761.9 -7.41328 
12314 2 4.906 6.185 6.4 6.02327 -133050 -152885 -106038 -22372.5 13096.2 -8978.39 -7.41342 
12315 2 4.209 4.951 6.4 6.02517 -143345 -144174 -107013 -27175.3 10255.3 -9527.16 -7.41315 
12316 2 4.929 3.729 6.4 6.02536 -127482 -133245 -107512 -7076.95 7549.93 -9610.46 -7.41336 
12317 2 4.231 2.495 6.4 6.0242 -134323 -128064 -108134 -15457.5 5536.4 -9285.3 -7.41312 
12318 2 4.951 1.273 6.4 6.02305 -135664 -150031 -108159 -22592.5 2316.92 -10248.3 -7.41327 
12319 2 4.254 0.039 6.4 6.0258 -141265 -156596 -108627 -22704.8 471.088 -8920.58 -7.41308 
12501 2 6.302 8.654 6.4 6.02629 -138103 -127078 -102456 22378.8 16733.1 -14754.8 -7.41323 
12502 2 7.022 7.433 6.4 6.02705 -125794 -139033 -103975 32478.8 15097 -12094.6 -7.41313 
12503 2 6.324 6.198 6.4 6.02413 -128394 -110789 -104430 8238.36 12838.9 -14442.1 -7.41313 
12504 2 7.045 4.977 6.4 6.02324 -167556 -118141 -105707 16060.6 9772.21 -13064 -7.41342 
12505 2 6.347 3.742 6.4 6.02629 -133940 -130391 -106019 21780.4 8277.54 -14094.6 -7.41302 
12506 2 7.067 2.521 6.4 6.02705 -128564 -135646 -106568 32231.8 4392.69 -13932.5 -7.41298 
12507 2 6.369 1.286 6.4 6.02401 -124020 -114813 -106914 7740.94 3548.18 -13622.1 -7.41296 
12508 2 7.09 0.065 6.4 6.02325 -172420 -123898 -106688 10946.6 -747.013 -14700.7 -7.41339 
12690 2 9.138 8.68 6.4 6.02392 -117609 -122685 -101443 -18468.6 16787.3 -14954.5 -7.4133 
12691 2 8.44 7.446 6.4 6.02705 -136020 -129880 -101125 -15740.2 15239.6 -19119.6 -7.41331 
12692 2 9.16 6.224 6.4 6.0257 -126359 -138869 -103385 -4807.59 11626.8 -16187.2 -7.41318 
12693 2 8.462 4.99 6.4 6.02367 -174444 -112407 -103123 -32377.2 11022.8 -18695.2 -7.41358 
12694 2 9.183 3.768 6.4 6.02392 -120166 -119430 -104386 -18770.1 6235.68 -17377.3 -7.41313 
12695 2 8.485 2.534 6.4 6.02705 -131922 -133146 -104476 -16476.4 6520.61 -18106.9 -7.41312 
12696 2 9.205 1.312 6.4 6.02445 -128991 -136229 -104698 -5236.65 1159.35 -18368.7 -7.41308 
12697 2 8.507 0.078 6.4 6.02391 -172347 -124639 -105334 -28204 1555.76 -17415.7 -7.41347 
1161 1 10.713 8.498 3 6.0242 -127573 -136534 -100575 21025.6 15628.3 -17338.9 -7.41355 
1162 1 11.411 7.264 3 6.0242 -138244 -126912 -96787.7 5769.42 15327.9 -25240.2 -7.41378 
1163 1 10.691 6.042 3 6.02327 -133384 -153399 -102311 34406.5 10498.8 -18564.9 -7.41363 
1164 1 11.388 4.808 3 6.02517 -143157 -146303 -99067.6 17309.3 11338.6 -24534.8 -7.41361 
1165 1 10.668 3.586 3 6.02536 -127850 -133913 -103077 18738.9 5154.43 -19802.6 -7.41362 
1166 1 11.366 2.352 3 6.02416 -133120 -130277 -100808 5179.9 6933.36 -23663.6 -7.41363 
1167 1 10.646 1.13 3 6.01996 -138097 -159446 -103221 38628.1 114.071 -20787.4 -7.4136 
1350 1 13.549 8.472 3 6.02468 -137599 -126716 -91604.4 -34588.5 17637.5 -29451.8 -7.41428 
1351 1 12.829 7.251 3 6.02369 -135730 -152967 -99491.2 -3526.92 11766.4 -21032.3 -7.41358 
1352 1 13.526 6.016 3 6.02341 -142401 -145940 -94415.9 -19721.2 13944.1 -28726.6 -7.41409 
1353 1 12.806 4.795 3 6.02415 -130028 -133785 -100421 -15729.1 6625.89 -22493.4 -7.41355 
1354 1 13.504 3.56 3 6.02217 -131971 -132128 -96668.7 -35740.2 9955.22 -27775.2 -7.41386 
1355 1 12.784 2.339 3 6.02587 -146896 -184752 -100576 14858.3 1514.24 -23762.7 -7.41356 
1356 1 13.481 1.105 3 6.01816 -139614 -158910 -98513.4 12825.4 5395.86 -26666.8 -7.41387 
1539 1 14.967 8.459 3 6.0257 -125673 -140952 -96786 23050.6 12808.6 -22815.2 -7.41356 
1540 1 15.665 7.225 3 6.02367 -176243 -114086 -88583 18142.9 16381.4 -32733.2 -7.41442 
1541 1 14.944 6.003 3 6.02392 -119273 -121791 -97818.6 36520.6 7660.9 -24546.4 -7.41351 
1542 1 15.642 4.769 3 6.02705 -133638 -134567 -91356.8 1386.24 12755.3 -31773 -7.41388 
1543 1 14.922 3.547 3 6.02044 -126834 -140707 -97861.5 22564.7 2795.04 -26109.2 -7.41338 
1544 1 15.62 2.313 3 6.02303 -180279 -150198 -93785.9 -1814.57 8597 -30635.2 -7.41429 
1545 1 14.899 1.092 3 6.02276 -124535 -127081 -97340.5 2366.1 -2190.85 -27503.5 -7.41357 
1727 1 17.105 9.668 3 6.02705 -125187 -141701 -93861.6 -14401.8 13489 -24203.3 -7.41371 
1728 1 17.803 8.433 3 6.02413 -130349 -114208 -81990.2 -21603.8 18823.8 -36316.8 -7.41444 
1729 1 17.082 7.212 3 6.02324 -166780 -121254 -94748.8 1626.6 8634.82 -26196.2 -7.41405 
1730 1 17.78 5.977 3 6.02629 -135825 -133439 -85559.8 -36033.8 15467.3 -35308.9 -7.41421 
1731 1 17.06 4.756 3 6.02705 -127619 -139179 -94865.2 -15063.5 3721.03 -27986.3 -7.41365 
1732 1 17.758 3.521 3 6.02217 -124700 -119324 -88334.6 -22983.2 11761.6 -34202.3 -7.41394 
1733 1 17.037 2.3 3 6.02304 -177288 -152947 -94223.4 19646.3 -1067.95 -29655.7 -7.41426 
1734 1 17.735 1.066 3 6.02202 -132993 -145958 -91050.6 -3732.11 7530.97 -32768.6 -7.41392 
12879 2 10.556 8.693 6.4 6.02341 -144882 -142865 -96818 5694.47 17534.2 -23726.4 -7.41395 
12880 2 11.276 7.472 6.4 6.02415 -128280 -135421 -100920 33764.5 13125.4 -18673.5 -7.41352 
12881 2 10.578 6.237 6.4 6.02468 -135853 -126638 -99047.3 20579.9 13788.3 -23265.7 -7.41384 
12882 2 11.298 5.016 6.4 6.02369 -136568 -151588 -102132 21673.1 7938.92 -20103.9 -7.41343 
12883 2 10.601 3.781 6.4 6.02341 -140716 -145992 -101101 4795.93 9450.29 -22556.8 -7.41371 
12884 2 11.321 2.56 6.4 6.02415 -131079 -132310 -102483 33335.3 2797.86 -21419.9 -7.41344 
12885 2 10.623 1.325 6.4 6.02404 -131476 -130456 -102297 19803.1 4894.03 -21842.2 -7.41362 
12886 2 11.343 0.104 6.4 6.02493 -141474 -157629 -102062 16341.3 -2217.54 -22571.7 -7.41345 
13068 2 13.391 8.719 6.4 6.02327 -131786 -155884 -98011 -16123.2 14439 -20809.6 -7.41388 
13069 2 12.694 7.485 6.4 6.02517 -145747 -144866 -94395.4 -31747.6 16319.7 -27463.6 -7.41388 
13070 2 13.414 6.263 6.4 6.02536 -126001 -136555 -99342.4 -962.109 9257.61 -22505.4 -7.41383 
13071 2 12.716 5.029 6.4 6.0242 -136646 -128531 -96768.1 -20338.2 12415.7 -26780.4 -7.41378 
13072 2 13.436 3.807 6.4 6.02327 -134367 -152972 -99747.2 -16583.5 4302.68 -24087.1 -7.41378 
13073 2 12.739 2.573 6.4 6.02517 -141650 -147916 -98638.2 -32738.1 8073.35 -25884.4 -7.41363 
13074 2 13.459 1.351 6.4 6.02475 -128691 -134197 -99543.7 -1580.98 -734.081 -25392 -7.41379 
13075 2 12.761 0.117 6.4 6.02418 -134531 -140519 -100019 -16381.3 3389.43 -24904 -7.41361 
13257 2 14.809 8.732 6.4 6.02413 -130829 -112199 -88514.6 4133.53 18717.9 -31554.2 -7.41406 
13258 2 15.53 7.511 6.4 6.02324 -166194 -121465 -96649.8 21931.1 10402.4 -24259.7 -7.41394 
13259 2 14.832 6.276 6.4 6.02629 -136327 -131532 -91405.8 17371.6 15097.9 -30827.9 -7.41387 
13260 2 15.552 5.055 6.4 6.02705 -127013 -139310 -97102.6 37974 5411.28 -26081.4 -7.41353 
13261 2 14.854 3.82 6.4 6.02413 -126667 -115052 -93845.9 2983.31 11224.2 -29918 -7.41375 
13262 2 15.575 2.599 6.4 6.02324 -169039 -118743 -96697.8 21334.3 588.702 -27768.7 -7.41394 
13263 2 14.877 1.364 6.4 6.02505 -131958 -135028 -95937.4 16363.7 6728.43 -28753.7 -7.41357 
13264 2 15.597 0.143 6.4 6.02768 -131933 -145672 -95603.9 32451.7 -4191.29 -29279 -7.41364 
13446 2 17.645 8.758 6.4 6.0257 -125106 -142122 -93755.8 733.856 11205.2 -25575.4 -7.41373 
13447 2 16.947 7.524 6.4 6.02367 -176887 -114209 -85442.6 -36271.4 17663.6 -34474.1 -7.41461 
13448 2 17.668 6.302 6.4 6.02392 -118717 -123093 -94079.3 -13320.6 6276.17 -27699.9 -7.41372 
13449 2 16.97 5.068 6.4 6.02705 -134289 -134640 -88360.9 -20641.4 14132.4 -33497.9 -7.41405 
13450 2 17.69 3.846 6.4 6.0257 -127734 -139618 -93794.6 144.233 1577.9 -29559.3 -7.41374 
13451 2 16.992 2.612 6.4 6.02367 -172788 -116940 -90915.3 -37483.4 10043.2 -32404.7 -7.41429 
13452 2 17.713 1.39 6.4 6.02332 -121448 -121126 -92684.3 -14098 -3149.84 -31277.2 -7.41378 
13453 2 17.015 0.156 6.4 6.0283 -132164 -146292 -92913.2 -16890.6 5735.69 -31085.2 -7.41381 
13635 2 19.063 8.771 6.4 6.02468 -139878 -129594 -78226.2 15351.7 20115.7 -37817.3 -7.41481 
13637 2 19.086 6.315 6.4 6.02341 -143137 -148104 -81920.9 1167.63 16865 -36807 -7.41482 
13639 2 19.108 3.859 6.4 6.02468 -134160 -131600 -84872.4 15864.8 13280.8 -35737.2 -7.41467 
13641 2 19.131 1.403 6.4 6.02217 -138759 -151237 -87926.2 -18.0811 9154.08 -34269.5 -7.41444 
1916 1 19.941 9.642 3 6.02421 -140477 -129881 -74630.9 2622.85 20876.5 -39524.9 -7.41507 
1917 1 19.221 8.42 3 6.02327 -132381 -156463 -92229.5 39706.3 9223.45 -27095.4 -7.41421 
1918 1 19.918 7.186 3 6.02517 -145349 -148942 -78470.9 13893.5 17998.3 -38569.7 -7.41481 
1919 1 19.198 5.964 3 6.02536 -126671 -137415 -92151.1 23973.5 4351.74 -29227.3 -7.41424 
1920 1 19.896 4.73 3 6.02421 -136240 -132328 -81997.6 1363.67 14618.8 -37429.6 -7.41464 
1921 1 19.176 3.508 3 6.01937 -133630 -156622 -91493.5 39114.1 -261.031 -31043 -7.41413 
1922 1 19.873 2.274 3 6.02587 -149427 -184789 -85170.5 -6300.61 10850 -36047 -7.41458 
1923 1 19.153 1.053 3 6.02276 -132035 -143213 -89944.5 -10348 -4899.09 -32812.3 -7.41439 
2105 1 21.359 9.629 3 6.02369 -134804 -155835 -89532.4 1308.83 9523.33 -27700.8 -7.41415 
2106 1 22.056 8.394 3 6.02341 -144643 -149142 -70926.3 -22555.4 20295.7 -41387.9 -7.41547 
2107 1 21.336 7.173 3 6.02415 -128924 -137164 -89247 -10917.1 4876.9 -30022.1 -7.41419 
2108 1 22.034 5.938 3 6.02468 -135596 -132497 -75050.1 -38556.3 17394.4 -40253.9 -7.41525 
2109 1 21.314 4.717 3 6.02369 -137302 -153802 -88345.9 564.76 267.387 -32102.7 -7.41422 
2110 1 22.011 3.482 3 6.01853 -139009 -153853 -78821.1 -24103.5 13898.7 -38909.5 -7.41488 
2111 1 21.291 2.261 3 6.02419 -139510 -169289 -86745 6999.72 -4248.33 -34032.3 -7.41451 
2112 1 21.989 1.027 3 6.02364 -132763 -144603 -82207.1 -6415.19 10157.5 -37327.1 -7.41485 
2294 1 24.195 9.603 3 6.02367 -178527 -117766 -62535.8 15882.7 22400.4 -43853.2 -7.41595 
2295 1 23.474 8.381 3 6.02392 -118246 -124993 -86823.7 40813.3 5011.41 -30279.8 -7.41414 
2296 1 24.172 7.147 3 6.02705 -135869 -137901 -66963.2 -1101.75 19850.9 -42799.6 -7.41531 
2297 1 23.452 5.925 3 6.0257 -127120 -141840 -85707.6 26654.4 627.914 -32558.9 -7.4142 
2298 1 24.15 4.691 3 6.02367 -174277 -119863 -71337 14471.6 16764.4 -41482 -7.41543 
2299 1 23.429 3.469 3 6.02094 -119555 -125600 -83983.3 40146.6 -3884.43 -34697.8 -7.41419 
2300 1 24.127 2.235 3 6.02772 -139944 -173354 -75326.1 -21428.3 13417.6 -39918.1 -7.41498 
2301 1 23.407 1.014 3 6.02153 -132523 -148100 -81509.9 -7755.61 -7973.73 -36609.2 -7.41446 
2483 1 25.612 9.59 3 6.02324 -165815 -124135 -84531.5 5373.46 5145.96 -30157.5 -7.41464 
2484 1 26.31 8.355 3 6.02629 -138088 -137256 -58583 -37914.4 22145.4 -44775.8 -7.4158 
2485 1 25.59 7.134 3 6.02705 -126496 -142615 -83038.5 -11308.5 741.723 -32591.4 -7.41433 
2486 1 26.288 5.899 3 6.02413 -128382 -120246 -63346.2 -24789.7 19579.9 -43575.8 -7.41553 
2487 1 25.567 4.678 3 6.02324 -168392 -122594 -80981.1 4568.89 -3530.33 -34914.5 -7.41485 
2488 1 26.265 3.443 3 6.01966 -132463 -141552 -68232.2 -39565.5 16486.4 -42019.8 -7.4151 
2489 1 25.545 2.222 3 6.02772 -137129 -175229 -78351.1 6542.8 -7732.96 -36969.7 -7.41479 
2490 1 26.243 0.988 3 6.02214 -125576 -132001 -72362.7 7209.38 13063.3 -40363 -7.41501 
2672 1 28.448 9.564 3 6.02517 -147640 -153137 -49437.9 12576.1 24193.6 -46404.8 -7.41652 
2673 1 27.728 8.342 3 6.02536 -125627 -140582 -81015 27137.1 624.419 -32152.3 -7.41489 
2674 1 28.426 7.108 3 6.02421 -138491 -136154 -54620.4 -102.607 21999.7 -45215.3 -7.41625 
2675 1 27.706 5.886 3 6.02327 -133871 -157791 -78928.9 42100.6 -3485.2 -34505.6 -7.41498 
2676 1 28.403 4.652 3 6.02517 -143404 -154819 -59934.6 11109.5 19346.4 -43758.4 -7.41589 
2677 1 27.683 3.43 3 6.02179 -126988 -141692 -75815.5 26410.5 -7642.42 -36826.1 -7.41507 
2678 1 28.381 2.196 3 6.02416 -142567 -171171 -64852.7 -20509.6 16280.7 -42113.8 -7.4158 
2679 1 27.661 0.975 3 6.01977 -139296 -164447 -72519.7 7620.66 -11425.6 -38833.7 -7.41538 
13636 2 19.783 7.55 6.4 6.02125 -135225 -155113 -91593.9 26732.5 6980.47 -28570 -7.41403 
13638 2 19.806 5.094 6.4 6.02415 -129560 -136267 -91063.1 38310.7 2282.73 -30720.6 -7.41409 
13640 2 19.828 2.638 6.4 6.02369 -138116 -152825 -89802.2 26011.5 -2292.7 -32669.2 -7.41414 
13642 2 19.851 0.182 6.4 6.02417 -134520 -143048 -87809.2 32648.4 -6706.86 -34475.5 -7.41431 
13824 2 21.899 8.797 6.4 6.02418 -134030 -171681 -88812.2 19063.8 7333.09 -29110.4 -7.41466 
13825 2 21.201 7.563 6.4 6.02364 -137658 -133744 -74640.9 -23584.3 19501.8 -39763.5 -7.41494 
13826 2 21.921 6.341 6.4 6.02327 -132946 -156780 -88115.2 -12020.1 2877.33 -31459.3 -7.41444 
13827 2 21.224 5.107 6.4 6.02517 -144040 -150227 -78404.6 -36033.8 16249.8 -38598.3 -7.41482 
13828 2 21.944 3.885 6.4 6.02536 -127448 -137849 -86781.3 2956.76 -1713.75 -33630.8 -7.41456 
13829 2 21.246 2.651 6.4 6.0242 -135004 -133588 -81688.1 -24762.2 12577.2 -37276.2 -7.41465 
13830 2 21.966 1.429 6.4 6.02305 -135711 -155265 -84874.9 -12909.5 -5941.24 -35555.6 -7.41461 
13831 2 21.269 0.195 6.4 6.0258 -141899 -161483 -84566.6 -32432.4 8543.02 -35732 -7.41447 
14013 2 23.317 8.81 6.4 6.02587 -155805 -182515 -66510.4 -16593.8 21800.4 -42338.6 -7.41572 
14014 2 24.037 7.589 6.4 6.02238 -124371 -143411 -85770.5 41886.6 3102.02 -31658.1 -7.41427 
14015 2 23.339 6.354 6.4 6.02413 -129105 -117946 -70671.9 280.554 19031.7 -41262.4 -7.4151 
14016 2 24.06 5.133 6.4 6.02324 -167540 -122777 -84196.1 25364.4 -1253.15 -34013.9 -7.41466 
14017 2 23.362 3.898 6.4 6.02629 -134653 -136924 -74617.4 13389 15655.3 -39927.3 -7.41485 
14018 2 24.082 2.677 6.4 6.02705 -128629 -141057 -81894.1 41218.3 -5562.26 -36167.7 -7.41441 
14019 2 23.384 1.442 6.4 6.02401 -124712 -120672 -78441.3 -1031.39 12071 -38360.1 -7.41461 
14020 2 24.105 0.221 6.4 6.02325 -172527 -130032 -78936.5 19603 -9569.54 -38169 -7.415 
14202 2 26.153 8.836 6.4 6.02418 -125402 -159647 -83263.1 8089.54 3145.63 -31486.9 -7.41455 
14203 2 25.455 7.602 6.4 6.02044 -135283 -140563 -62562.2 -22937.9 21514.7 -43389.9 -7.41544 
14204 2 26.175 6.38 6.4 6.0257 -126341 -143413 -81641.2 3654.94 -1039.82 -33941.9 -7.41443 
14205 2 25.477 5.146 6.4 6.02367 -175187 -119916 -67147.2 -39774.4 18587.9 -42135.3 -7.41568 
14206 2 26.198 3.924 6.4 6.02392 -120238 -124818 -78986.3 -10566.9 -5304.34 -36324 -7.4146 
14207 2 25.5 2.69 6.4 6.02705 -132645 -139972 -71351.2 -24215.4 15347.2 -40571.2 -7.41504 
14208 2 26.22 1.468 6.4 6.02445 -129136 -142384 -76257.4 2684.65 -9225.51 -38374.3 -7.41473 
14209 2 25.522 0.234 6.4 6.02391 -173024 -130715 -75132.8 -36282.2 11633.6 -38918.3 -7.41523 
14391 2 27.571 8.849 6.4 6.02303 -153618 -185743 -53667.1 -19179.8 23764.6 -45129.6 -7.41668 
14392 2 28.291 7.628 6.4 6.02217 -126834 -142191 -79661.3 41502.4 -1056.98 -33410 -7.41462 
14393 2 27.593 6.393 6.4 6.02468 -136591 -135068 -58513 14180.3 21329.4 -43937 -7.41621 
14394 2 28.313 5.172 6.4 6.02369 -136647 -156787 -77026.7 28942.6 -5152.68 -35849.6 -7.41488 
14395 2 27.616 3.937 6.4 6.02341 -141450 -153684 -63609.5 -1920.86 18382.6 -42402.1 -7.41589 
14396 2 28.336 2.716 6.4 6.02415 -131238 -138406 -73526.6 40362.2 -9120.34 -38144.2 -7.41511 
14397 2 27.638 1.481 6.4 6.02404 -132201 -137352 -68168.9 12799 15118.8 -40774.4 -7.41561 
14398 2 28.358 0.26 6.4 6.02493 -141665 -164555 -69543.9 23112.4 -12835.2 -40222.7 -7.41534 
2861 1 29.866 9.551 3 6.02415 -127979 -139966 -79307.8 -8357.22 514.348 -31330 -7.41476 
2862 1 30.564 8.316 3 6.02468 -137872 -136727 -45466 -39415.6 24271 -46432.2 -7.41699 
2863 1 29.844 7.095 3 6.02369 -136166 -157174 -76552.5 3155.33 -3610.27 -33857.2 -7.4149 
2864 1 30.541 5.86 3 6.02341 -142691 -155178 -51381 -24837.3 21954.8 -45069.5 -7.41661 
2865 1 29.821 4.639 3 6.02415 -130577 -138921 -73354.4 -9212.09 -7604.67 -36243.8 -7.41511 
2866 1 30.519 3.404 3 6.02217 -134565 -140088 -56973.4 -39367.3 19324.2 -43484.1 -7.41597 
2867 1 29.799 2.183 3 6.02392 -146856 -190397 -69538.7 21000.3 -11444.4 -38423.5 -7.41549 
2868 1 30.496 0.949 3 6.02149 -142240 -165953 -62362.7 5488.11 16118.3 -41705 -7.41577 
3050 1 32.702 9.525 3 6.02705 -138159 -142437 -35761.4 -1403.77 26138.9 -47272.5 -7.41715 
3051 1 31.982 8.303 3 6.0257 -126058 -144913 -75152.9 28602.1 -3840.21 -32761.4 -7.41481 
3052 1 32.68 7.069 3 6.02367 -176543 -124019 -41812.2 14094.4 24320.3 -45997.9 -7.41717 
3053 1 31.959 5.847 3 6.02392 -119790 -126687 -71619.7 41944.8 -7837.55 -35295.6 -7.41503 
3054 1 32.657 4.613 3 6.02587 -134060 -141781 -48102.9 -2491.39 22017.9 -44495.5 -7.41663 
3055 1 31.937 3.391 3 6.02023 -136449 -160597 -67600.7 40537.4 -11512.8 -37510.1 -7.41531 
3056 1 32.634 2.157 3 6.02304 -147313 -191740 -54144.2 -7189.7 19289.8 -42738.7 -7.41661 
3057 1 31.914 0.936 3 6.02276 -134854 -147968 -62803.6 -5561.22 -15092.8 -39731.8 -7.41576 
3239 1 34.12 9.512 3 6.02705 -125553 -145289 -73981.2 -9989.72 -4180.38 -31444.9 -7.41486 
3240 1 34.818 8.277 3 6.02413 -130647 -124734 -32077.6 -24604.3 26435.9 -46449.4 -7.41738 
3241 1 34.097 7.056 3 6.02324 -167228 -125845 -69879.5 5927.89 -8009.02 -33990.7 -7.4155 
3242 1 34.795 5.821 3 6.02629 -136149 -143147 -39136 -39197.8 24521 -45007.3 -7.41694 
3243 1 34.075 4.6 3 6.02705 -128187 -144736 -65509.9 -10865.4 -11705.5 -36317.6 -7.41536 
3244 1 34.773 3.365 3 6.02217 -124400 -128815 -45520.7 -25256.2 22198.9 -43464 -7.41646 
3245 1 34.052 2.144 3 6.02418 -129744 -160769 -60421.1 23317.9 -15236.3 -38572 -7.41587 
3246 1 34.75 0.91 3 6.02231 -132758 -154531 -52163.5 -8254.17 19367.3 -41623.4 -7.41619 
3428 1 36.956 9.486 3 6.02421 -140769 -140877 -22173 602.235 28211.7 -46413.8 -7.41817 
3429 1 36.236 8.264 3 6.02327 -132827 -160696 -69282.8 42802.7 -8351.69 -32270 -7.41554 
3430 1 36.933 7.03 3 6.02517 -145660 -159162 -29270.7 11779.4 26736.5 -45075.7 -7.41771 
3431 1 36.213 5.808 3 6.02536 -127218 -142625 -64384.2 26988.3 -12039.7 -34758.5 -7.41586 
3432 1 36.911 4.574 3 6.02418 -135938 -141345 -36381.6 -639.97 24760.7 -43616.1 -7.41744 
3433 1 36.191 3.352 3 6.01691 -134250 -162785 -59242 42049.7 -15431.3 -36955.3 -7.41601 
3434 1 36.888 2.118 3 6.02587 -150450 -193681 -43474.7 -8422.4 22376.6 -41910.7 -7.4169 
3435 1 36.168 0.897 3 6.02276 -132704 -150330 -53240.3 -7465.51 -18681.6 -39144.4 -7.41654 
14580 2 30.406 8.875 6.4 6.02392 -142703 -192070 -77726.7 10980.8 -1127.48 -32525.4 -7.41503 
14581 2 29.709 7.641 6.4 6.02023 -145034 -156623 -49776.4 -37306.5 23766.9 -45269 -7.41638 
14582 2 30.429 6.419 6.4 6.02421 -128395 -141002 -74815.1 3558.14 -5199.8 -35099.9 -7.41503 
14583 2 29.731 5.185 6.4 6.02421 -137394 -137047 -55207.9 -25971.2 21283.6 -43879.4 -7.41621 
14584 2 30.451 3.963 6.4 6.02466 -136888 -158262 -71133.3 -8812.64 -9008.31 -37486.3 -7.41523 
14585 2 29.754 2.729 6.4 6.02466 -142376 -155621 -60445.8 -38627.9 18351.1 -42233.7 -7.41587 
14586 2 30.474 1.507 6.4 6.02422 -131229 -140459 -67116.6 2538.81 -12762.6 -39691.9 -7.41546 
14587 2 29.776 0.273 6.4 6.02418 -135233 -147420 -65235.5 -22505 15047.4 -40450.2 -7.41563 
14769 2 31.824 8.888 6.4 6.02418 -149150 -170061 -39913.5 -5932.94 25926.2 -46307.6 -7.41731 
14770 2 32.544 7.667 6.4 6.01853 -131549 -161667 -73447.3 28296.9 -5260.63 -33904.1 -7.41517 
14771 2 31.847 6.432 6.4 6.02369 -146042 -154756 -45980.9 122.551 23783.4 -44923.8 -7.41672 
14772 2 32.567 5.211 6.4 6.02468 -127429 -141036 -69514.5 42934.1 -9177.89 -36467.4 -7.41555 
14773 2 31.869 3.976 6.4 6.02415 -137011 -137707 -51733.9 11275.5 21310.5 -43404.4 -7.4164 
14774 2 32.589 2.755 6.4 6.02341 -135968 -158371 -65017.1 27100.6 -12801.1 -38703.9 -7.41579 
14775 2 31.892 1.52 6.4 6.02245 -141653 -156612 -57747.7 -1281.16 18316.9 -41586.5 -7.41599 
14776 2 32.612 0.299 6.4 6.02532 -132454 -149260 -59776.3 37076.7 -16204.3 -40875.9 -7.41616 
14958 2 34.66 8.914 6.4 6.02772 -133223 -179659 -72235.2 24766 -5588.68 -32501.2 -7.41517 
14959 2 33.962 7.68 6.4 6.02154 -127967 -127996 -36461.5 -39595 26081.7 -45582.7 -7.417 
14960 2 34.683 6.458 6.4 6.02392 -118287 -128886 -67850 -10464.7 -9378.59 -35085.8 -7.41525 
14961 2 33.985 5.224 6.4 6.02637 -135004 -143787 -42963.5 -24313.8 23992.5 -44073.6 -7.41672 
14962 2 34.705 4.002 6.4 6.02637 -127431 -146336 -63191.4 4941.38 -12895.7 -37394.9 -7.41551 
14963 2 34.007 2.768 6.4 6.02392 -125311 -126543 -49124.6 -40895.6 21447.2 -42446.1 -7.41638 
14964 2 34.728 1.546 6.4 6.02332 -121121 -128831 -57821.1 -11508.2 -16314.7 -39670.6 -7.41581 
14965 2 34.03 0.312 6.4 6.02763 -132851 -153718 -55087.7 -20848.8 18479.2 -40563.6 -7.41601 
15147 2 36.078 8.927 6.4 6.02654 -146859 -175189 -26242.3 -4451.56 28081.5 -45704.8 -7.41812 
15148 2 36.798 7.706 6.4 6.01881 -134004 -162295 -67439.6 29696.2 -9609.81 -33306.4 -7.41531 
15149 2 36.101 6.471 6.4 6.02341 -143813 -157850 -33441.2 -1454.83 26349.8 -44283.6 -7.41767 
15150 2 36.821 5.25 6.4 6.02415 -129849 -141975 -62211.2 40911.7 -13178.1 -35759.3 -7.41577 
15151 2 36.123 4.015 6.4 6.02468 -134851 -140515 -40018 13156.5 24207.2 -42783.7 -7.4173 
15152 2 36.843 2.794 6.4 6.02369 -138444 -159471 -56542.3 28515.6 -16541.4 -37968.2 -7.41608 
15153 2 36.146 1.559 6.4 6.02217 -139454 -159264 -47135.9 -2820.11 21573.7 -40999.3 -7.41682 
15154 2 36.866 0.338 6.4 6.02417 -134876 -150671 -50159.1 35059.1 -19598.5 -40066 -7.41651 
15337 2 38.216 7.719 6.4 6.02179 -138293 -144020 -23506.5 -25146.7 28486.5 -44128 -7.41796 
15339 2 38.239 5.263 6.4 6.02466 -144695 -159679 -30946.9 -37633 26711.7 -42666 -7.41762 
15341 2 38.261 2.807 6.4 6.02421 -135662 -142179 -38079.8 -26405.6 24476.4 -41050.4 -7.41722 
15343 2 38.284 0.351 6.4 6.02467 -142568 -169176 -45122.7 -34124.4 21868 -39256.6 -7.41678 
3617 1 38.374 9.473 3 6.02341 -135236 -159687 -68739.4 3217.02 -8726.49 -30414 -7.41535 
3618 1 39.071 8.238 3 6.02341 -147298 -159209 -19380.3 -25315.1 28644.6 -44714.4 -7.4183 
3619 1 38.351 7.017 3 6.02415 -129443 -142001 -63485 -9083.52 -12315.8 -32824.9 -7.41569 
3620 1 39.049 5.782 3 6.02217 -136801 -144295 -27079.4 -38174.7 27122.3 -43359.5 -7.41774 
3621 1 38.329 4.561 3 6.02392 -146588 -193753 -57849.1 21345.4 -15726.1 -35124.5 -7.41607 
3622 1 39.026 3.327 3 6.0183 -141175 -163277 -34817.7 11254.4 24997.6 -41854.1 -7.41725 
3623 1 38.306 2.105 3 6.02419 -130947 -142904 -51693.1 27914.9 -18946.2 -37274.4 -7.41649 
3624 1 39.004 0.871 3 6.02424 -136909 -149686 -42140.8 -6095.05 22628.2 -40109.9 -7.41711 
3806 1 41.209 9.447 3 6.02327 -145470 -161944 -9214.46 14911 30235.2 -43874.8 -7.41911 
3807 1 40.489 8.225 3 6.0242 -128342 -143460 -63405.7 28379.2 -12751.9 -30739 -7.41571 
3808 1 41.187 6.991 3 6.02536 -136416 -144299 -17045 -1155.66 29080 -42662 -7.41869 
3809 1 40.467 5.769 3 6.02023 -135226 -163837 -57636.1 40084.6 -16035.4 -32953.6 -7.4159 
3810 1 41.164 4.535 3 6.02303 -149882 -195159 -25308.1 -5423.53 27427.3 -41222.2 -7.41835 
3811 1 40.444 3.314 3 6.02217 -130347 -145065 -51000.5 -10524.5 -19220.2 -35209.3 -7.41631 
3812 1 41.142 2.079 3 6.02404 -132559 -144401 -33220.1 -40251.6 25362.2 -39685.8 -7.41768 
3813 1 40.422 0.858 3 6.02493 -143581 -166934 -44204.2 5718.31 -22118.4 -37131.3 -7.41696 
3995 1 42.627 9.434 3 6.02413 -118158 -129497 -63675 4348.19 -13059.3 -28394.6 -7.4155 
3996 1 43.325 8.199 3 6.02773 -137830 -148345 -7244.92 -38065 30784 -41485.2 -7.41884 
3997 1 42.605 6.978 3 6.02773 -127060 -147598 -57386.6 -11956.7 -16389 -30587.6 -7.41584 
3998 1 43.303 5.743 3 6.02217 -126626 -133061 -15598 -23040.7 29540.4 -40269.8 -7.41824 
3999 1 42.582 4.522 3 6.02418 -128812 -163525 -50403.7 22282.5 -19527.7 -32776.4 -7.41649 
4000 1 43.28 3.288 3 6.02044 -131713 -151937 -24502.4 -1430.83 27749.8 -38857.5 -7.41768 
4001 1 42.56 2.066 3 6.02512 -129193 -149328 -43312.3 24881.4 -22463.8 -34743.4 -7.41666 
4002 1 43.258 0.832 3 6.02424 -126820 -138126 -32605.4 9079.25 25653.2 -37284 -7.41749 
4184 1 45.463 9.408 3 6.02517 -147895 -163837 2980.14 14363 32135 -39848.7 -7.41963 
4185 1 44.743 8.186 3 6.02536 -126195 -145120 -58041.1 25262.5 -16714.4 -28017.2 -7.41624 
4186 1 45.441 6.952 3 6.02421 -138816 -146100 -5890.5 1790.22 31282.7 -38710.8 -7.41914 
4187 1 44.721 5.73 3 6.01937 -133028 -165779 -51186 40410.2 -19799.6 -30081.8 -7.41649 
4188 1 45.418 4.496 3 6.02587 -152352 -196707 -14826.1 -5840.46 29916.5 -37456.7 -7.41876 
4189 1 44.698 3.275 3 6.02217 -128197 -147155 -43397.1 -13562.6 -22661.9 -32106.3 -7.41697 
4190 1 45.396 2.04 3 6.02403 -134982 -145842 -23859.9 -37191.1 28155.8 -36042.5 -7.41802 
4191 1 44.676 0.819 3 6.02394 -141367 -169291 -35605.3 6128.33 -25330.9 -33886.5 -7.41768 
4373 1 46.881 9.395 3 6.02415 -128536 -144064 -59333.7 -11449.2 -16937.7 -25249.3 -7.41594 
4374 1 47.579 8.16 3 6.02415 -140428 -146305 3867.71 -34887 32783.3 -36675.7 -7.41971 
4375 1 46.859 6.939 3 6.02341 -136769 -162193 -51984.9 86.0931 -20028.2 -27233.5 -7.41635 
4376 1 47.556 5.704 3 6.01853 -143934 -166402 -5695.46 -23816.2 31759.6 -35613.5 -7.419 
4377 1 46.836 4.483 3 6.02418 -139205 -178506 -43898 6553.33 -22934.5 -29120 -7.41706 
4378 1 47.534 3.249 3 6.02179 -134382 -149541 -15160.2 1907.38 30315.4 -34442.7 -7.41845 
4379 1 46.814 2.027 3 6.02391 -138903 -164454 -35638.2 37043.2 -25624.3 -30904.3 -7.4173 
4380 1 47.511 0.793 3 6.02467 -144149 -171186 -24413 8499.65 28374.5 -33033.4 -7.41814 
15336 2 38.914 8.953 6.4 6.02418 -135895 -176414 -66861.2 22397.9 -9964.71 -31351.5 -7.41569 
15338 2 38.936 6.497 6.4 6.02466 -135624 -161443 -61428.7 -8890.92 -13372.2 -33758.1 -7.41579 
15340 2 38.959 4.041 6.4 6.02421 -130133 -143544 -55679.6 2571.72 -16734.7 -36072.4 -7.41616 
15342 2 38.981 1.585 6.4 6.02391 -138452 -161834 -49150.6 -9916 -19751.7 -38185.1 -7.41649 
15525 2 40.332 8.966 6.4 6.02587 -156383 -193248 -13239 -17194.1 30244.4 -43438.6 -7.41886 
15526 2 41.052 7.745 6.4 6.02217 -124853 -146275 -61578.3 42463.8 -13739.5 -31606.2 -7.4159 