ITEM: TIMESTEP
315
ITEM: NUMBER OF ATOMS
23816
ITEM: BOX BOUNDS pp pp pp
0.0000000000000000e+00 1.3400400500000001e+02
0.0000000000000000e+00 2.3210174599999999e+02
0.0000000000000000e+00 1.8399999999999999e+01
ITEM: ATOMS id type x y z c_csym c_2[1] c_2[2] c_2[3] c_2[4] c_2[5] c_2[6] c_3 
215 1 0.877736 8.57935 2.91015 6.01345 -171394 -143485 -2851.62 -24650.2 15620.1 -3328.18 -7.41524 
216 1 0.14599 7.36517 2.90636 6.02119 -150678 -164943 2054.61 -17913.9 20048.8 -1302.8 -7.41543 
217 1 0.831053 6.12385 2.90309 6.01846 -167789 -147625 -988.357 -13317.2 12583.7 -3014.32 -7.41509 
218 1 0.0984152 4.91014 2.90015 6.02403 -152776 -162915 691.599 -8246.98 13340.6 -876.523 -7.4151 
219 1 0.78279 3.66848 2.89794 6.0227 -163861 -151761 -128.658 -5319.62 8325.23 -2609.09 -7.41496 
220 1 0.0495456 2.4551 2.89614 6.02694 -155145 -160578 158.678 -2106.87 6530.49 -428.071 -7.41491 
221 1 0.733533 1.21325 2.89523 6.0273 -159867 -155837 77.5017 -1099.79 2942.94 -2100.74 -7.41487 
222 1 4.49761e-06 1.46558e-05 2.89477 6.0296 -157896 -157846 69.5878 81.4591 -1.80168 1.09202 -7.41485 
405 1 2.2952 8.55097 2.91093 6.01579 -162115 -153495 2487.2 -20034.6 22695.1 -4255.58 -7.41564 
406 1 2.98029 7.30958 2.90788 6.01611 -179967 -135227 -887.631 -18053.7 13999.3 -9764.95 -7.41528 
407 1 2.24851 6.09537 2.90392 6.01914 -160588 -155058 788.475 -8583.42 16142.1 -4694.69 -7.41525 
408 1 2.93291 4.85367 2.90184 6.01993 -172894 -142791 141.732 -8352.12 10443 -9106.66 -7.41512 
409 1 2.20024 3.63994 2.89882 6.02235 -159312 -156373 80.6184 -587.055 9326.98 -5024.32 -7.41501 
410 1 2.88425 2.39809 2.89794 6.02439 -165304 -150325 326.976 -2275.76 5710.07 -8242.8 -7.41499 
411 1 2.15098 1.18468 2.89614 6.02516 -158297 -157421 7.26599 3559.98 2601.26 -5267.35 -7.4149 
594 1 5.1284 8.49645 2.91448 6.01314 -194437 -120686 280.705 -20606.3 15236.3 -16392.8 -7.41561 
595 1 4.3977 7.28158 2.90978 6.01193 -171395 -144156 -15.4067 -6995.37 18206.8 -7525.42 -7.41543 
596 1 5.08216 6.03985 2.90789 6.01739 -184540 -131054 1272.65 -9139.28 12457.9 -15572.7 -7.41543 
597 1 4.35033 4.8256 2.9039 6.01681 -166737 -148743 -670.406 2931.76 11512.7 -8661.97 -7.41515 
598 1 5.0344 3.58373 2.90309 6.02153 -173979 -141693 1230.89 -1261.37 8492.53 -14463.9 -7.41524 
599 1 4.30168 2.36997 2.90013 6.02053 -162084 -153381 -493.267 9062.91 4753.75 -9635.68 -7.41502 
600 1 4.98566 1.12812 2.90057 6.02231 -163081 -152549 527.224 2690.24 3430.53 -13056 -7.4151 
783 1 6.54575 8.46925 2.91719 6.00417 -184410 -130607 -2025.98 -3769.66 19526.6 -9355.03 -7.41558 
784 1 7.23031 7.22751 2.91556 6.01216 -198158 -117269 3552.65 -7942.73 14285 -21706 -7.41587 
785 1 6.49953 6.01258 2.91088 6.01008 -176729 -138328 -2455.77 8171.61 13035 -11247 -7.4153 
786 1 7.18369 4.77072 2.91018 6.0179 -185131 -130491 3123.77 1869.03 11165.3 -20440.2 -7.41564 
787 1 6.45179 3.55642 2.9063 6.01538 -169055 -146092 -1839.94 16425.2 6358.39 -12939 -7.41516 
788 1 7.13584 2.31459 2.90673 6.01935 -171433 -144250 1803.69 7807.59 6893.48 -18811.5 -7.41543 
789 1 6.40309 1.10077 2.90391 6.01808 -161382 -154133 -577.024 20453.5 -149.833 -14417.9 -7.41515 
972 1 9.37716 8.41704 2.92423 6.00505 -213121 -102082 7145.73 -4967.84 15871.3 -27262.3 -7.41644 
973 1 8.64763 7.20131 2.91916 6.00293 -188640 -125487 -5503.85 14719.6 13920 -12827.7 -7.41542 
974 1 9.33193 5.95948 2.9186 6.01186 -198152 -117394 6232.73 6718.84 13641 -25919.9 -7.41618 
975 1 8.60105 4.7445 2.9141 6.01016 -178356 -136134 -4334.99 25103.9 7401.28 -15157.4 -7.41529 
976 1 9.28522 3.50272 2.91451 6.01659 -182059 -133553 4192.76 14681.6 10238.5 -24160.4 -7.41589 
977 1 8.55324 2.28836 2.91087 6.01472 -167875 -147128 -2269.99 31323.1 927.29 -17251.9 -7.4153 
978 1 9.23759 1.04676 2.91236 6.01159 -165362 -150072 1443.11 18533.9 5736.02 -21995.1 -7.41563 
11937 2 0.539712 8.60662 6.48979 6.01791 -145762 -169824 3113.09 24526.7 23292.4 552.714 -7.41565 
11938 2 0.586399 6.15177 6.49689 6.02158 -148588 -166975 1219.56 13386.7 16773.1 -120.398 -7.41525 
11939 2 0.634666 3.69687 6.50206 6.02441 -152047 -163542 323.364 5346.68 9987.52 -822.941 -7.41499 
11940 2 0.683929 1.24188 6.50478 6.02736 -155920 -159848 77.1748 1142.98 3285.72 -1496.36 -7.41487 
11941 2 2.18857e-06 3.90577e-06 6.50523 6.02962 -157852 -157851 69.7774 -46.8948 0.922436 1.63429 -7.41485 
12123 2 1.95727 8.63504 6.4891 6.01006 -154945 -159928 -2462.17 20785.2 16253.3 -5662.99 -7.4153 
12124 2 2.68958 7.4212 6.49209 6.01736 -136364 -179037 1269.2 18608.5 19723.2 -3003.36 -7.41543 
12125 2 2.00392 6.18029 6.49609 6.0168 -155677 -159596 -676.668 9274.92 13257.6 -5637.52 -7.41515 
12126 2 2.73694 4.96681 6.49816 6.01996 -142991 -172480 142.622 8879.1 13106.9 -4491.21 -7.41512 
12127 2 2.05215 3.72543 6.50118 6.02232 -156539 -159075 80.7707 1062.47 9021.5 -5564.93 -7.41501 
12128 2 2.78559 2.51215 6.50207 6.02268 -150095 -165405 -125.338 2681.71 6415.53 -5901.28 -7.41496 
12129 2 2.10139 1.27045 6.50386 6.02695 -157411 -158261 158.927 -3315.32 3641.9 -5444.9 -7.41491 
12130 2 2.83492 0.0572016 6.5034 6.0251 -157724 -158009 76.0777 340.38 20.3344 -7167.76 -7.41492 
12312 2 4.79395 8.68955 6.48551 6.01314 -121289 -193692 282.072 21602.4 21824.3 -5002.36 -7.4156 
12313 2 4.10718 7.44931 6.49021 6.01192 -144764 -170580 -15.4533 8336.63 15613.1 -11998.7 -7.41543 
12314 2 4.84013 6.2358 6.49212 6.01609 -130775 -184395 -881.386 10344.7 15461.6 -7243.61 -7.41528 
12315 2 4.15448 4.99495 6.49609 6.01913 -148949 -166656 795.125 -1855.86 12136.7 -11628.2 -7.41525 
12316 2 4.88788 3.78164 6.49693 6.01845 -141002 -174282 -975.92 2132.84 8898 -9390.14 -7.4151 
12317 2 4.20309 2.5403 6.49987 6.02403 -153141 -162413 699.942 -8467.32 7435.68 -11114.5 -7.4151 
12318 2 4.9366 1.32702 6.49945 6.01986 -151872 -163561 -366.986 -2337.91 2480.73 -11349.9 -7.41504 
12319 2 4.25238 0.0853434 6.50117 6.02232 -157607 -157950 106.489 -10946.5 1689.75 -10455.8 -7.41501 
12501 2 6.21164 8.71693 6.48278 6.00753 -131098 -184397 1790.67 5844.46 17648.3 -18115.9 -7.41584 
12502 2 6.94449 7.50336 6.4845 6.01304 -116092 -198667 -3061.15 9908.92 17052.4 -9052.12 -7.41542 
12503 2 6.25775 6.26319 6.48907 6.01578 -138322 -177407 2492.58 -6307.53 15028.2 -17519 -7.41564 
12504 2 6.99106 5.04982 6.48986 6.01349 -129025 -185828 -2837.88 -192.158 10690.2 -11863.7 -7.41524 
12505 2 6.30542 3.80902 6.49367 6.02124 -145738 -169889 2070.19 -15070.6 11153.8 -16705 -7.41543 
12506 2 7.03889 2.59568 6.49331 6.0143 -142860 -172261 -1665.3 -6791.01 4346.76 -14482.1 -7.41519 
12507 2 6.35408 1.35438 6.49609 6.01956 -153419 -162016 888.031 -19911.4 6109.04 -15673.8 -7.41525 
12508 2 7.08736 0.140892 6.49447 6.01587 -157114 -158358 32.3357 -9504.9 -1625.33 -16816.8 -7.41526 
12690 2 9.05023 8.76912 6.47594 6.00932 -99670.5 -214156 -6563.03 7853.38 17944.8 -10000.8 -7.41551 
12691 2 8.36221 7.52974 6.48077 6.01283 -125280 -190441 5410.32 -11814.7 17548 -23021.1 -7.41616 
12692 2 9.0954 6.31627 6.4815 6.00849 -114880 -199289 -5945.33 -4036.93 11827.9 -13360 -7.41535 
12693 2 8.40869 5.07614 6.48582 6.0162 -135559 -180047 4553.6 -22800.7 14602.4 -21976.7 -7.4159 
12694 2 9.14207 3.86271 6.48555 6.00755 -131230 -183331 -4120.74 -12814.5 5616.47 -16539 -7.41533 
12695 2 8.45643 2.62196 6.48909 6.01601 -146244 -169232 2679.4 -29989.2 10411.4 -20665.9 -7.41564 
12696 2 9.18967 1.40839 6.48767 6.00854 -148227 -166827 -1502.27 -17773 -350.051 -19442.3 -7.41543 
12697 2 8.50483 0.167143 6.49022 6.01563 -157041 -158147 226.677 -32956.5 5129.54 -19091.3 -7.41543 
1161 1 10.7944 8.39214 2.92813 5.99592 -201859 -111099 -9889.92 22152.9 14238.8 -13545.7 -7.41547 
1162 1 11.4789 7.15037 2.92773 6.00528 -212152 -103255 10647.4 12854.9 15860.2 -30709.5 -7.41683 
1163 1 10.7492 5.93459 2.92289 6.00372 -189528 -124085 -8136.3 34597.8 7929.26 -16390.3 -7.41538 
1164 1 11.4336 4.69288 2.92329 6.01197 -194464 -121057 7857.37 22907.2 13371.7 -28901.9 -7.41648 
1165 1 10.7026 3.47784 2.91911 6.01046 -176586 -137571 -5216.48 43096.7 1555.89 -19001.3 -7.41542 
1166 1 11.3871 2.23632 2.92044 6.00788 -175681 -139690 4089.52 28861.2 9716.07 -26660.7 -7.41612 
1167 1 10.655 1.0219 2.91717 6.01241 -163466 -151262 -1592.78 47012.2 -4527.88 -21356.1 -7.41558 
1350 1 13.6246 8.34361 2.93705 5.99857 -226465 -88610.1 16317 19924.3 17775.9 -34665.4 -7.41757 
1351 1 12.8962 7.12696 2.93208 5.99741 -201558 -110686 -13247.4 44447.2 8022.26 -16798.5 -7.4154 
1352 1 13.5808 5.88535 2.93247 6.0059 -207830 -107681 12820.9 31941.5 16220.8 -32888.3 -7.41717 
1353 1 12.8509 4.66954 2.92801 6.00628 -187015 -126159 -9508.33 55190.6 1797.31 -19802.1 -7.41547 
1354 1 13.5356 3.42811 2.92918 6.00476 -187783 -127697 8075.72 40124.5 13458 -30654.6 -7.41674 
1355 1 12.8044 2.21302 2.92546 6.00949 -171861 -142066 -4768.67 61442.8 -4257.27 -22561.7 -7.41568 
1356 1 13.4895 0.971915 2.92749 5.99888 -166772 -148152 2556.86 43861 9550.33 -28000.4 -7.4163 
1539 1 15.0418 8.32179 2.94118 5.9914 -214007 -96549.6 -19534.7 54347.6 7770.79 -16552.6 -7.41534 
1540 1 15.7267 7.08032 2.94153 5.99976 -221383 -94003 18968.8 41514 18719.1 -36012.7 -7.41795 
1541 1 14.998 5.86366 2.937 6.00058 -198354 -113567 -15082.7 67153.6 1739.97 -19821.4 -7.41546 
1542 1 15.683 4.62236 2.938 6.00029 -200620 -114865 13363.6 51848.4 16870.2 -33861.7 -7.41744 
1543 1 14.9529 3.40652 2.93408 6.00735 -181881 -131129 -9326.6 75802.4 -4240.53 -22863.1 -7.41571 
1544 1 15.6382 2.16552 2.93582 5.99511 -178510 -136407 6689.1 57883.5 13796.9 -31284.2 -7.4169 
1545 1 14.9069 0.950369 2.93266 6.00275 -164898 -148836 -2794.25 79623.7 -9816.09 -25667.1 -7.41608 
1727 1 17.186 9.51917 2.94983 5.98602 -226203 -82240.5 -26757.7 63711.7 7264.73 -15807.5 -7.4152 
1728 1 17.8713 8.27788 2.95007 5.99386 -234427 -80419.4 26061.8 51080.3 20809 -38212.2 -7.41877 
1729 1 17.1439 7.06033 2.9456 5.9953 -209836 -100380 -21749 78666.6 1475.9 -19225.1 -7.41536 
1730 1 17.8292 5.81921 2.9464 5.99581 -213546 -101788 19778.3 63547.5 19868.3 -36208.8 -7.41821 
1731 1 17.1003 4.60254 2.94247 6.00459 -192638 -119148 -15145.2 89623.4 -4380.8 -22430.7 -7.41566 
1732 1 17.7858 3.3617 2.94393 5.99212 -191135 -123916 12135 71967.5 17655.4 -33773.9 -7.41759 
1733 1 17.0555 2.1458 2.94067 5.99962 -174556 -138205 -7449.68 95900.9 -9966.98 -25418.3 -7.41609 
1734 1 17.7416 0.905354 2.94282 5.98579 -167740 -146603 3661.09 75566.4 14239 -30956.3 -7.41697 
12879 2 10.4681 8.79427 6.4718 6.00858 -110680 -204963 9648.29 -18012.3 19594.5 -27966.2 -7.4168 
12880 2 11.2011 7.58066 6.47247 6.00231 -99321.2 -213717 -10380.3 -8982.59 12391.8 -14006.3 -7.4154 
12881 2 10.5131 6.34131 6.47696 6.01007 -123322 -192110 8311.03 -31092.5 17632.8 -26755.4 -7.41649 
12882 2 11.2464 5.12776 6.47679 6.00067 -117492 -195861 -7893.36 -19853 6350.99 -17617.8 -7.41541 
12883 2 10.5597 3.88766 6.48076 6.00953 -136600 -178726 5701.47 -40612.7 14400.8 -25238 -7.41616 
12884 2 11.2929 2.67399 6.47959 6.001 -136871 -177454 -4327.16 -27154.9 432.126 -20978.5 -7.41555 
12885 2 10.6072 1.43328 6.48279 6.01108 -150070 -165090 2226.38 -46127.8 9957.22 -23435.5 -7.41584 
12886 2 11.34 0.219321 6.48053 6.00338 -156464 -158507 -162.742 -30224.9 -5026.74 -24012.6 -7.4158 
13068 2 13.3082 8.84278 6.46332 5.99635 -83180.1 -228499 -16074.4 -14739.3 12478.4 -13967.9 -7.41538 
13069 2 12.6189 7.60426 6.46769 6.00362 -109847 -205513 13361.3 -39558.7 20143.1 -30904.1 -7.4172 
13070 2 13.3519 6.39054 6.46761 5.99401 -102754 -209251 -12986.7 -27495.6 6644.68 -17875.7 -7.41543 
13071 2 12.6641 5.1512 6.47171 6.0025 -125000 -189926 10041.1 -51315.5 17926.7 -29246.8 -7.4168 
13072 2 13.3971 3.93739 6.47079 5.99353 -123729 -189298 -8527.53 -37079.3 807.629 -21565 -7.41561 
13073 2 12.7104 2.69733 6.47436 6.00346 -140768 -174091 5570.45 -59293.8 14429.7 -27291.4 -7.41638 
13074 2 13.4432 1.48326 6.47249 5.99511 -145319 -168849 -3169.97 -42692.9 -4699.45 -24959.7 -7.41591 
13075 2 12.7574 0.242611 6.47534 6.0066 -156504 -157974 439.028 -62841.6 9779.39 -25060.4 -7.416 
13257 2 14.7261 8.86482 6.45848 5.99713 -95710.8 -219389 19585.4 -47696 22063.4 -34320.3 -7.41798 
13258 2 15.4589 7.6509 6.45845 5.98764 -87459.3 -222825 -19262.1 -35425.1 6596.68 -17479.9 -7.41537 
13259 2 14.7697 6.41236 6.46242 5.99535 -112473 -202111 15644.7 -61685.5 20879.4 -32579.5 -7.41753 
13260 2 15.5026 5.19837 6.46175 5.98637 -109686 -201779 -14033.9 -47262.3 885.362 -21369.7 -7.4156 
13261 2 14.8148 3.95904 6.46544 5.99561 -129900 -184466 10276.2 -72157.2 18390 -30535.6 -7.41704 
13262 2 15.5474 2.74483 6.46398 5.9871 -132714 -180148 -7601.63 -55444 -4636.73 -25001.8 -7.41594 
13263 2 14.8607 1.50482 6.46715 5.99807 -147559 -166657 3939.3 -78334 14635.5 -28224.9 -7.41654 
13264 2 15.5928 0.290216 6.46483 5.99001 -156004 -158189 -505.351 -59069.7 -9631.97 -28321.8 -7.41639 
13446 2 17.5673 8.90873 6.44967 5.982 -72233 -235810 -26477.4 -43362.9 6299.43 -16581.9 -7.41523 
13447 2 16.8768 7.67102 6.4533 5.98839 -99315.2 -214590 22328.2 -71445.9 23176.7 -35156.9 -7.41833 
13448 2 17.6094 6.45681 6.45282 5.97982 -95243 -214163 -20651.4 -57347 765.33 -20555.9 -7.41549 
13449 2 16.9203 5.21826 6.45642 5.98786 -118208 -195687 16221.3 -84208.5 21717.4 -33075.3 -7.41778 
13450 2 17.6528 4.00387 6.45536 5.97963 -119268 -191879 -13327.9 -67864.3 -4719.79 -24309.6 -7.41588 
13451 2 16.965 2.76457 6.45867 5.98952 -137294 -176476 8847.66 -92990.8 18928 -30743.6 -7.41718 
13452 2 17.6971 1.54983 6.4569 5.9816 -143723 -169215 -5032.59 -74151.7 -9830.69 -27791.3 -7.41639 
13453 2 17.0103 0.3099 6.45969 5.99348 -156314 -157261 747.591 -97024.6 14925.1 -28189.4 -7.41661 
13635 2 18.9853 8.92715 6.44459 5.98192 -86188 -226640 29808.4 -80004.3 24779.9 -36936.1 -7.41917 
13637 2 19.0272 6.47492 6.44757 5.98053 -106055 -206919 23167.7 -95053.4 24329.1 -34860.3 -7.41857 
13639 2 19.0705 4.02176 6.45015 5.9813 -126213 -186872 14980.3 -106389 22537.4 -32548.1 -7.4179 
13641 2 19.1146 1.56761 6.45189 5.98437 -146417 -166826 5754.47 -113120 19432.9 -30045.9 -7.41722 
1916 1 20.0145 9.47804 2.95778 5.98844 -246383 -67778.7 33789.7 60089.8 22449 -39480.9 -7.41961 
1917 1 19.2884 8.2596 2.95344 5.9906 -220974 -87338.3 -29226.7 89085.1 1085.77 -18165.4 -7.4152 
1918 1 19.9742 7.01869 2.95398 5.99188 -225901 -89001.4 27045.7 74699.8 22387.1 -37669.7 -7.41902 
1919 1 19.2464 5.80117 2.95018 6.00036 -203434 -106731 -21987.3 102342 -4594.64 -21432.9 -7.41553 
1920 1 19.9323 4.5605 2.95134 5.98789 -203725 -111273 18669.1 85455.1 21035.8 -35430.6 -7.41834 
1921 1 19.2031 3.34383 2.94816 5.99718 -184973 -126560 -13354 111063 -10141.2 -24495.9 -7.416 
1922 1 19.8894 2.10352 2.94999 5.98247 -180160 -134136 9159.77 91520.7 18404.4 -32811 -7.41763 
1923 1 19.159 0.887573 2.94749 5.98972 -165942 -146691 -3902.02 114738 -15203.2 -27363.2 -7.41657 
2105 1 21.4316 9.46142 2.9603 5.98659 -231135 -75049.2 -37188.2 98203.6 635.421 -16781.1 -7.41497 
2106 1 22.1179 8.22075 2.96048 5.98766 -237255 -77274.3 34837.7 84885.8 24385.4 -38271.9 -7.41983 
2107 1 21.3913 7.00238 2.95688 5.9958 -213777 -94649.9 -29546.2 113560 -4818.45 -20027.5 -7.41533 
2108 1 22.0776 5.76194 2.95769 5.98375 -215718 -99140.1 25985.6 97865.5 23872.4 -36263.6 -7.41911 
2109 1 21.3495 4.54445 2.95474 5.99544 -195446 -114867 -20236.8 124754 -10270.1 -23076.9 -7.41583 
2110 1 22.0362 3.30433 2.95624 5.98005 -192600 -121799 15721.9 106538 22038.3 -33879.8 -7.41833 
2111 1 21.3067 2.08762 2.95393 5.98682 -176192 -135323 -9801.89 131008 -15387 -25942.1 -7.41645 
2112 1 21.9939 0.847928 2.9561 5.97356 -168457 -144973 4603.88 110081 18974.2 -31166.6 -7.41754 
2294 1 24.2603 9.42532 2.96575 5.98329 -247083 -66658.7 42825 93827.7 25848.9 -38090.1 -7.42063 
2295 1 23.535 8.20611 2.96236 5.99141 -223193 -83251.6 -37487.2 123088 -5006.32 -18356.4 -7.41508 
2296 1 24.2218 6.96593 2.96275 5.98038 -226629 -87952.6 33748.4 108830 26127.6 -36329.1 -7.41989 
2297 1 23.4948 5.74762 2.96008 5.99244 -205323 -103471 -27771.1 136492 -10309.6 -21328 -7.4156 
2298 1 24.1818 4.50772 2.96124 5.97642 -204295 -109993 23020.7 119925 25077.7 -34205.6 -7.41906 
2299 1 23.4534 3.29025 2.95925 5.98474 -186411 -123954 -16651.4 145366 -15425.2 -24117.2 -7.41624 
2300 1 24.1409 2.05072 2.96115 5.97111 -180873 -132750 11154.2 126089 22733.8 -31757.1 -7.41819 
2301 1 23.4113 0.833972 2.95977 5.97696 -166881 -144819 -4715.23 148910 -20008.9 -26752.3 -7.41699 
2483 1 25.6774 9.41224 2.96653 5.98769 -231288 -72877.8 -45488.4 130728 -5128.91 -16540.8 -7.4148 
2484 1 26.3647 8.17234 2.96643 5.97779 -236091 -77923.4 41633.2 118129 27794.6 -35722.9 -7.42064 
2485 1 25.6389 6.95324 2.96403 5.98956 -214223 -92750.8 -35618.2 146124 -10236.1 -19391.4 -7.41532 
2486 1 26.3264 5.71359 2.96479 5.97311 -215129 -99089.2 30713.9 131369 27492.8 -33866.1 -7.41979 
2487 1 25.599 4.49534 2.96318 5.98345 -195971 -112951 -24109 157394 -15292 -22058.9 -7.41597 
2488 1 26.2868 3.25601 2.96481 5.96959 -192688 -121036 18412.6 140134 25868.7 -31693.9 -7.41887 
2489 1 25.5582 2.03854 2.96386 5.97471 -176988 -133486 -11503.2 163567 -19975.6 -24567.4 -7.41674 
2490 1 26.2465 0.799626 2.96626 5.9633 -169084 -143444 5277.35 143667 23045.1 -29243.7 -7.41794 
2672 1 28.5066 9.381 2.96881 5.97594 -243788 -69250.7 49360.1 125503 28898.4 -34565.1 -7.42136 
2673 1 27.7818 8.16116 2.96658 5.98732 -221782 -82973 -43468.1 153569 -10047.5 -17381 -7.41501 
2674 1 28.4698 6.92178 2.96691 5.97064 -224496 -89266.5 38486.2 140744 29291.8 -32966.3 -7.42049 
2675 1 27.7435 5.70278 2.96562 5.98189 -204710 -102555 -31839.6 166969 -14990.1 -19902.9 -7.41566 
2676 1 28.4317 4.46367 2.96696 5.96674 -203429 -110183 26033.1 151830 28367.3 -31068.3 -7.41955 
2677 1 27.7041 3.24547 2.96646 5.97334 -186603 -122652 -18874.5 175699 -19711.8 -22257.1 -7.41643 
2678 1 28.3927 2.00673 2.96873 5.96169 -180959 -131819 12498.4 157966 26195.9 -28902.8 -7.41857 
2679 1 27.6639 0.789231 2.96883 5.96562 -167678 -143010 -5142.95 179090 -23877 -24489 -7.4173 
13636 2 19.7176 7.71268 6.44421 5.97411 -80882.8 -225904 -28102.1 -66702.5 524.236 -19271.5 -7.41531 
13638 2 19.7595 5.26031 6.44684 5.97298 -105521 -203429 -20111.8 -79612.6 -4859.02 -23046 -7.41574 
13640 2 19.8025 2.80686 6.44891 5.97394 -130854 -180459 -10851.5 -88539.4 -10024.7 -26586.9 -7.41629 
13642 2 19.8459 0.352263 6.45004 5.97707 -155912 -157323 -895.435 -92570.9 -14646.2 -29855.3 -7.41693 
13824 2 21.8272 8.96601 6.43605 5.96944 -67494.3 -236580 -36064.7 -75154.2 212.907 -17659.2 -7.41508 
13825 2 21.1355 7.72904 6.43903 5.97393 -93923.2 -217839 30803.2 -104384 26197.6 -35881.1 -7.41939 
13826 2 21.8675 6.51418 6.43852 5.96733 -92117.5 -214291 -27652 -90195.9 -4997.05 -21359.3 -7.41552 
13827 2 21.1773 5.27638 6.44172 5.97374 -114866 -197297 22054.2 -118058 25393.8 -33622 -7.41868 
13828 2 21.9091 4.06128 6.44095 5.96727 -117638 -191414 -17694 -101593 -10140.4 -24875 -7.4161 
13829 2 21.2201 2.82275 6.44405 5.97578 -135963 -176710 11978.1 -127474 23231.9 -31201.1 -7.41791 
13830 2 21.9514 1.60726 6.44287 5.96931 -143377 -168289 -6743.44 -108384 -14909.4 -28157.1 -7.41678 
13831 2 21.2634 0.3681 6.4456 5.98017 -156496 -156060 1143.68 -131891 19814.1 -28644.8 -7.41715 
14013 2 23.2452 8.9807 6.43088 5.96823 -82616.1 -227740 38793.6 -111854 27343.6 -36181.2 -7.42021 
14014 2 23.9768 7.76555 6.43042 5.96281 -79515 -224101 -35621.1 -99283.1 -5110.24 -19396.4 -7.41525 
14015 2 23.2853 6.5285 6.43342 5.96707 -103779 -207293 29738.7 -127753 27482.4 -33994.5 -7.41947 
14016 2 24.0169 5.31316 6.43301 5.9617 -104844 -201682 -25239.3 -112984 -10144.1 -22806.9 -7.41584 
14017 2 23.3267 4.07535 6.43617 5.96803 -125161 -186512 19103 -139677 26265.8 -31676.2 -7.41865 
14018 2 24.0579 2.85969 6.43561 5.96262 -130874 -178843 -13589.7 -122480 -14969.3 -26031.3 -7.41654 
14019 2 23.3689 1.62122 6.43859 5.97133 -146448 -165683 7413.89 -146859 23716.3 -29261.5 -7.4178 
14020 2 24.0994 0.405083 6.4377 5.96579 -156379 -155798 -1257.93 -126892 -19273.8 -29028.2 -7.41734 
14202 2 26.0873 9.01457 6.4226 5.95937 -68102 -232301 -43703.8 -106816 -5198.67 -17292.1 -7.41495 
14203 2 25.3947 7.77824 6.42529 5.96141 -93327.8 -216351 37700.4 -135352 28835.4 -33740.1 -7.42026 
14204 2 26.1259 6.56263 6.42507 5.95726 -92965 -210838 -33158 -122545 -10040.2 -20528.2 -7.41553 
14205 2 25.4346 5.32553 6.42822 5.96131 -114733 -195713 26786.3 -149617 28531.8 -31536.7 -7.4194 
14206 2 26.1656 4.10966 6.42816 5.95715 -118604 -188610 -21103.3 -134562 -14822 -23629.7 -7.41624 
14207 2 25.4755 2.87186 6.43139 5.96344 -136415 -175117 14560.5 -159445 26867.8 -29270.8 -7.4185 
14208 2 26.206 1.65559 6.43125 5.9591 -144364 -166150 -8093.76 -141669 -19261.5 -26550.1 -7.41705 
14209 2 25.5168 0.417196 6.43421 5.96798 -157195 -154171 1590.05 -164237 23938 -26957.8 -7.41759 
14391 2 27.5054 9.02575 6.41736 5.95687 -83882.6 -224013 45638.3 -140932 29529.6 -32962.4 -7.42102 
14392 2 28.2361 7.80984 6.41717 5.95399 -82134.3 -218530 -41146.6 -130274 -9860.38 -18175.1 -7.4152 
14393 2 27.5437 6.57341 6.4202 5.95572 -105094 -204085 34695.7 -157266 30071.7 -30879.7 -7.42015 
14394 2 28.2744 5.3573 6.42048 5.95282 -107202 -197262 -28958.2 -144408 -14505.2 -21094.2 -7.4159 
14395 2 27.5832 4.12017 6.42389 5.9567 -126472 -183716 22229.4 -169548 29274.9 -28767.4 -7.4192 
14396 2 28.3136 2.90373 6.4244 5.95368 -132614 -175567 -15574.4 -154239 -18971.1 -23885.4 -7.41671 
14397 2 27.6234 1.66598 6.42779 5.96 -147642 -163375 8757.05 -177025 27156.2 -26640.2 -7.41824 
14398 2 28.3531 0.449074 6.42823 5.95666 -157503 -153666 -1562.38 -158858 -22970.4 -26500.5 -7.41761 
2861 1 29.9236 9.37117 2.9679 5.98573 -227769 -74462 -51065.1 158791 -9755.35 -15377.8 -7.4147 
2862 1 30.6122 8.13209 2.96774 5.9689 -232074 -80881.9 46078.7 147949 30511.3 -31619 -7.42117 
2863 1 29.8869 6.91238 2.96665 5.97969 -212115 -93256.9 -39549.5 174160 -14543.3 -17748.7 -7.41533 
2864 1 30.5756 5.67353 2.96767 5.96434 -212835 -100487 33709.6 161242 30253.4 -29983.4 -7.42021 
2865 1 29.8489 4.45462 2.96756 5.97275 -195221 -112518 -26506.1 185252 -19244.3 -19944.2 -7.41608 
2866 1 30.5379 3.21607 2.96967 5.9601 -191986 -120983 20058.4 169888 28730.5 -28094.1 -7.41921 
2867 1 29.81 1.99789 2.9703 5.96422 -177264 -132243 -12452.7 191267 -23548.4 -22003.3 -7.41695 
2868 1 30.4995 0.759727 2.97331 5.95469 -169620 -141979 5632.33 173365 26087.6 -25971.9 -7.4182 
3050 1 32.7535 9.34434 2.96761 5.96789 -237941 -73996.2 53296 153140 31204.2 -29936.7 -7.42181 
3051 1 32.0293 8.12397 2.96654 5.97819 -217899 -85249.9 -47004.9 179058 -13982.8 -15659.3 -7.41499 
3052 1 32.7184 6.88539 2.96721 5.96271 -220571 -92238.1 41204.3 168371 31569.1 -28538.5 -7.42086 
3053 1 31.9927 5.66581 2.96731 5.97275 -202547 -103443 -34120.4 192302 -18614.5 -17707.6 -7.41572 
3054 1 32.6821 4.42747 2.96924 5.95898 -201380 -111302 27666.6 179304 30680.5 -26909.2 -7.41984 
3055 1 31.9551 3.20863 2.97029 5.96364 -186081 -122188 -20025.2 200806 -22995.1 -19606.1 -7.41657 
3056 1 32.6449 1.97063 2.9733 5.95311 -180775 -131110 13150 185350 28634.1 -25061.8 -7.4188 
3057 1 31.9168 0.752444 2.97499 5.95624 -168346 -141299 -5237.44 204071 -26809.2 -21397.6 -7.41751 
3239 1 34.1706 9.33733 2.96566 5.97729 -222023 -78430.1 -54036.1 181761 -13339.6 -13672.8 -7.41466 
3240 1 34.8603 8.09904 2.96595 5.9618 -226414 -85319.9 48340.6 173168 32369.6 -26827.2 -7.42146 
3241 1 34.1356 6.87884 2.96604 5.97134 -208361 -95633.8 -41498.5 196946 -17861.6 -15587.9 -7.41536 
3242 1 34.8254 5.64075 2.96776 5.95742 -209224 -102999 35104 186293 32087.2 -25431.5 -7.42044 
3243 1 34.0993 4.42128 2.96902 5.9637 -193325 -113267 -27593.3 207775 -22260.4 -17347.9 -7.41618 
3244 1 34.7893 3.18346 2.97199 5.95237 -190455 -121436 20719.2 194763 30637.7 -23840.1 -7.41939 
3245 1 34.0621 1.96466 2.97412 5.95568 -177227 -131312 -12788.5 213626 -26244.4 -18985.5 -7.4171 
3246 1 34.7526 0.727185 2.97802 5.94732 -170310 -140428 5646.57 198128 28173.2 -22072.1 -7.41834 
3428 1 37.0014 9.3143 2.96437 5.96157 -230492 -79945.5 55007.5 175961 32719.4 -24942 -7.42202 
3429 1 36.2774 8.09352 2.96422 5.97056 -212461 -89112.6 -48485.3 199332 -17023.5 -13597.5 -7.41502 
3430 1 36.9677 6.85569 2.96568 5.95659 -215355 -96146.2 42212.5 190910 33005.5 -23740.1 -7.42102 
3431 1 36.2425 5.63564 2.96689 5.96425 -199172 -105569 -34950.1 212237 -21387.4 -15243.1 -7.41579 
3432 1 36.933 4.39802 2.96975 5.95201 -198511 -113076 28137.2 201630 32137.6 -22377.1 -7.41997 
3433 1 36.2066 3.17864 2.97208 5.95576 -184716 -122428 -20347.9 220512 -25472.4 -16757.1 -7.41668 
3434 1 36.8973 1.9413 2.97603 5.94653 -180180 -130677 13203.4 207531 30222.6 -20858.5 -7.41891 
3435 1 36.1699 0.72252 2.97911 5.9489 -169133 -139729 -5135.17 223733 -28986.4 -18169.6 -7.41766 
14580 2 30.3475 9.05498 6.40944 5.95193 -72890.7 -224540 -48946.8 -135979 -9636.56 -15865.8 -7.41486 
14581 2 29.654 7.81919 6.41218 5.95132 -96328.5 -211190 42543.1 -162644 30962.8 -29819.8 -7.42087 
14582 2 30.3843 6.60281 6.41263 5.94978 -96855.6 -204611 -36865.6 -152064 -14078.5 -18557.3 -7.41553 
14583 2 29.6921 5.36631 6.41609 5.95119 -117342 -191549 30089.8 -177094 30987.1 -27858.1 -7.41991 
14584 2 30.4222 4.14967 6.41709 5.94954 -121636 -183968 -23384.4 -164252 -18471.4 -21166.6 -7.41633 
14585 2 29.7311 2.91253 6.42084 5.95326 -138332 -171894 16413.9 -187080 29678.9 -25912.1 -7.4189 
14586 2 30.4607 1.6955 6.42206 5.95132 -146123 -163087 -9033.85 -171498 -22570.7 -23654.6 -7.41723 
14587 2 29.7705 0.45782 6.42564 5.95763 -158507 -152082 2047.06 -191950 27128.1 -23973 -7.4179 
14769 2 31.7655 9.06307 6.40435 5.94814 -88953.7 -216832 50107.4 -165750 31305.1 -28458.4 -7.42156 
14770 2 32.4953 7.84638 6.40481 5.94786 -88066.6 -210490 -44583.1 -157561 -13594.8 -16125.8 -7.41518 
14771 2 31.8021 6.61047 6.40812 5.94693 -109216 -198340 37870.4 -182202 32074.9 -26652.7 -7.42059 
14772 2 32.5319 5.39359 6.40944 5.9466 -111874 -191146 -31243.7 -171754 -17843.9 -18515.8 -7.41594 
14773 2 31.8398 4.15705 6.41339 5.9478 -129664 -179458 24239.7 -194465 31552 -24879.7 -7.41957 
14774 2 32.5693 2.93987 6.41522 5.94709 -135573 -171442 -16826.6 -181541 -21940.2 -20828.7 -7.41682 
14775 2 31.8782 1.70276 6.41933 5.95089 -149525 -160454 9698.53 -202013 29748.2 -23138.9 -7.41853 
14776 2 32.6071 0.485141 6.42129 5.94893 -158843 -151328 -1852.71 -186212 -25631.6 -23023.9 -7.41778 
14958 2 34.6073 9.08824 6.39733 5.94702 -80630 -214623 -51919.7 -160937 -13093.4 -13885.7 -7.41483 
14959 2 33.9132 7.85287 6.40025 5.94388 -102312 -203642 45371 -185018 32625 -25239.8 -7.42125 
14960 2 34.6426 6.63573 6.40172 5.94473 -103099 -196938 -38921 -177069 -17153.6 -16023.7 -7.41556 
14961 2 33.9496 5.39974 6.40562 5.94359 -122064 -185883 31982.6 -199472 32832.2 -23638.1 -7.42022 
14962 2 34.6788 4.18236 6.4079 5.94378 -125996 -178458 -24668 -189118 -21169.4 -18126.7 -7.4164 
14963 2 33.9868 2.94581 6.41232 5.94541 -141306 -167925 17505.5 -209351 31767.3 -22081.7 -7.41915 
14964 2 34.7156 1.72807 6.41499 5.94442 -148630 -159595 -9647.87 -196282 -24928 -20154.5 -7.41733 
14965 2 34.0245 0.491023 6.41941 5.94944 -159986 -149701 2418.74 -214174 29507.2 -20545.1 -7.4181 
15147 2 36.0252 9.09372 6.39284 5.94201 -96622.9 -207335 52446.3 -185875 32728.3 -23693 -7.42186 
15148 2 36.7542 7.87628 6.39433 5.94347 -95772.2 -200944 -46241.1 -180235 -16442 -13757.8 -7.4152 
15149 2 36.0603 6.64079 6.39791 5.94059 -115261 -190944 39458.4 -202118 33585.9 -22259.9 -7.42084 
15150 2 36.7892 5.42319 6.40046 5.94164 -117547 -184083 -32339.2 -194298 -20327.8 -15622.9 -7.41599 
15151 2 36.0964 4.18714 6.4049 5.94119 -133954 -174135 25234.4 -214254 33222.7 -20878.9 -7.41978 
15152 2 36.825 2.96926 6.40811 5.94114 -139271 -166653 -17489.8 -203876 -24071.2 -17449.3 -7.41689 
15153 2 36.1331 1.73272 6.41292 5.94395 -152052 -157028 10219.5 -221676 31647.2 -19528.6 -7.4187 
15154 2 36.8612 0.514447 6.4163 5.94275 -160365 -148726 -2156.95 -208424 -27453.5 -19206.1 -7.41787 
15337 2 38.172 7.88042 6.39068 5.93877 -109817 -194446 46542.3 -202691 33891.1 -20799.4 -7.42144 
15339 2 38.2068 5.42698 6.39751 5.9382 -127590 -179054 32719.8 -216938 34166.6 -19585.9 -7.42038 
15341 2 38.2425 2.97284 6.40594 5.93969 -144938 -163250 17953.4 -226592 33254.4 -18406.1 -7.41929 
15343 2 38.2786 0.517966 6.41497 5.94328 -161528 -147186 2670.65 -231277 31221.7 -17224.6 -7.41823 
3617 1 38.4185 9.30966 2.96234 5.97037 -214872 -83948.7 -54995.5 199691 -16136.4 -11740.2 -7.41469 
3618 1 39.1093 8.0721 2.96353 5.95639 -219669 -90659.8 48898.8 193410 33498.2 -21915.3 -7.42157 
3619 1 38.3849 6.85151 2.96442 5.96459 -203417 -99162.4 -41957.7 214519 -20419.8 -13281.9 -7.41542 
3620 1 39.0757 5.61411 2.9671 5.95199 -204899 -106191 35263.9 206196 33186.5 -20741.5 -7.42053 
3621 1 38.3501 4.39419 2.96932 5.95634 -190716 -114923 -27725.1 225033 -24541.9 -14698.9 -7.41627 
3622 1 39.0412 3.15702 2.97324 5.9464 -188501 -122329 20631 214528 31817.8 -19442.9 -7.41947 
3623 1 38.3146 1.9377 2.97648 5.94896 -176772 -130773 -12707 230746 -28234.1 -16003.8 -7.4172 
3624 1 39.006 0.700824 2.98123 5.94187 -170704 -138897 5405.4 217814 29542.8 -18033.6 -7.41841 
3806 1 41.2501 9.28978 2.96178 5.95673 -222240 -86792.6 55123.6 194042 33627.6 -20026.9 -7.42208 
3807 1 40.5264 8.06872 2.96212 5.96445 -206001 -94169.9 -48545 214717 -19397.8 -11456.9 -7.41508 
3808 1 41.2178 6.83156 2.96459 5.95198 -209535 -100690 42020.2 208607 33842.3 -19002.5 -7.42107 
3809 1 40.4929 5.61114 2.96641 5.95733 -195104 -108570 -34803.1 227312 -23503 -12789.5 -7.41587 
3810 1 41.1843 4.37415 2.9702 5.94641 -195238 -115382 27804.7 219064 33009.7 -17887.8 -7.42001 
3811 1 40.4584 3.15433 2.97328 5.94954 -182989 -123336 -20133.4 235355 -27302.4 -14012.7 -7.41677 
3812 1 41.1501 1.91758 2.97801 5.94166 -179408 -130553 12852.8 224889 31237.4 -16689.4 -7.41895 
3813 1 40.4233 0.698284 2.98197 5.94334 -169630 -138304 -4928.06 238526 -30536 -15141.3 -7.41775 
3995 1 42.6672 9.28707 2.96044 5.96476 -206945 -90573.3 -54685 213262 -18348.5 -9768.07 -7.41477 
3996 1 43.3591 8.05017 2.96268 5.95232 -212334 -96689 48374.7 209169 34157.1 -17220.2 -7.42158 
3997 1 42.6349 6.8293 2.96387 5.95864 -197923 -103568 -41519.2 227599 -22396 -11014.8 -7.41551 
3998 1 43.3267 5.59251 2.96746 5.94679 -200154 -109798 34660.2 221572 33844.5 -16252 -7.42054 