ITEM: TIMESTEP
0
ITEM: NUMBER OF ATOMS
7352
ITEM: BOX BOUNDS pp pp pp
0.0000000000000000e+00 7.4453670299999999e+01
0.0000000000000000e+00 1.2895753999999999e+02
0.0000000000000000e+00 1.8399999999999999e+01
ITEM: ATOMS id type x y z c_csym c_2[1] c_2[2] c_2[3] c_2[4] c_2[5] c_2[6] c_3 
117 1 0.850668 8.58314 7.5 6.03193 -150392 -130710 -149082 -652.531 22188.9 -4443.43 -7.41099 
118 1 0.121524 7.367 7.5 6.03193 -134685 -144224 -146141 320.569 24281 -965.306 -7.41118 
119 1 0.81016 6.12747 7.5 6.03193 -145459 -132108 -153128 -649.079 15806.7 -3748.98 -7.41081 
120 1 0.081016 4.91133 7.5 6.03193 -134397 -141695 -153415 220.548 15026.5 -732.538 -7.41081 
121 1 0.769652 3.67181 7.5 6.03193 -141305 -133815 -156263 -650.007 9460.43 -2978.4 -7.41067 
122 1 0.040508 2.45567 7.5 6.03193 -135143 -139198 -157279 112.231 6985.02 -415.529 -7.41062 
123 1 0.729144 1.21614 7.5 6.03192 -138070 -135820 -158072 -651.901 3144.47 -2236.83 -7.41058 
124 1 0 0 7.5 6.03192 -136912 -136899 -158419 31.5494 0.0225634 0.0376178 -7.41057 
223 1 2.26845 8.55975 7.5 6.03194 -135324 -145773 -141111 3281.74 28677.3 -5722.89 -7.41143 
224 1 2.95708 7.32022 7.5 6.03194 -147755 -132100 -148603 -1588.06 19359.3 -11904 -7.41103 
225 1 2.22794 6.10408 7.5 6.03194 -134542 -143261 -150058 2972.12 18898.9 -5770.16 -7.41098 
226 1 2.91657 4.86456 7.5 6.03194 -143241 -133640 -152707 -1911.87 12907.9 -10424.4 -7.41084 
227 1 2.18743 3.64842 7.5 6.03194 -134777 -140722 -155296 2592.38 10236.2 -5773.85 -7.41072 
228 1 2.87607 2.40889 7.5 6.03192 -139579 -135496 -155671 -2255 6468.89 -8970.29 -7.4107 
229 1 2.14692 1.19275 7.5 6.03192 -136038 -138336 -157478 2201.61 2764.65 -5783.78 -7.41061 
328 1 5.10401 8.51298 7.5 6.03194 -150138 -132932 -140275 -2147.91 23418.5 -20741.1 -7.41146 
329 1 4.37486 7.29684 7.5 6.03194 -135160 -145570 -145644 5931.01 22865.9 -10739.5 -7.41119 
330 1 5.0635 6.05731 7.5 6.03194 -145403 -134283 -145693 -2772.06 17055.9 -18746.3 -7.4112 
331 1 4.33435 4.84117 7.5 6.03194 -134914 -143017 -152014 5336.97 13578.7 -11101.3 -7.41087 
332 1 5.02299 3.60164 7.5 6.03194 -141407 -135964 -150190 -3454.18 10493.1 -16656 -7.41098 
333 1 4.29385 2.3855 7.5 6.03192 -135653 -140500 -154991 4635.51 5444.11 -11483.2 -7.41072 
334 1 4.98248 1.14598 7.5 6.03192 -138304 -138019 -153289 -4186.39 3793.55 -14714.7 -7.41082 
433 1 6.52179 8.48959 7.5 6.03194 -136103 -148490 -140628 8986.97 26736.4 -15497.5 -7.41142 
434 1 7.21042 7.25006 7.5 6.03194 -147666 -135719 -134649 -3195.83 21614.9 -27715.9 -7.41176 
435 1 6.48128 6.03392 7.5 6.03194 -135452 -145992 -147858 8267.56 17013.2 -16407.1 -7.41105 
436 1 7.16991 4.7944 7.5 6.03194 -143461 -137208 -140973 -4199.18 15135.4 -25251.5 -7.41145 
437 1 6.44077 3.57826 7.5 6.03194 -135727 -143446 -151397 7342.45 8208.11 -17245.1 -7.41089 
438 1 7.1294 2.33873 7.5 6.03192 -140032 -139040 -146142 -5263.32 8359.76 -22766.7 -7.41118 
439 1 6.40026 1.12259 7.5 6.03192 -136945 -141047 -151860 6313.01 453.657 -18162 -7.41088 
539 1 8.6282 7.22667 7.5 6.03194 -136291 -149433 -143261 11246.8 20308.1 -21345.7 -7.41126 
541 1 8.58769 4.77101 7.5 6.03194 -136187 -146962 -147106 10196 11018 -22851.6 -7.41107 
542 1 9.27633 3.53148 7.5 6.03194 -142013 -140790 -135010 -5867.01 13430.3 -31562.5 -7.41175 
543 1 8.54718 2.31534 7.5 6.03192 -136940 -144493 -147554 8903.32 2621.81 -24297.3 -7.41107 
544 1 9.23582 1.07582 7.5 6.03192 -139173 -142814 -141063 -7345.83 6364.96 -28838.3 -7.41143 
538 1 9.35734 8.44281 7.5 6.03194 -149880 -137851 -119271 -3188.78 26075.7 -36714.3 -7.41257 
540 1 9.31684 5.98715 7.5 6.03194 -145630 -139149 -127546 -4461 20056.7 -34285.3 -7.41214 
643 1 10.7751 8.41943 7.5 6.03194 -137277 -152977 -138722 14063.6 23064.6 -25327.7 -7.41146 
644 1 11.4638 7.1799 7.5 6.03194 -147773 -141623 -109779 -4263.06 24735.1 -42934.8 -7.41307 
645 1 10.7346 5.96376 7.5 6.03194 -136920 -150742 -142570 13026.7 13624 -27762.7 -7.41127 
646 1 11.4233 4.72423 7.5 6.03194 -144121 -143083 -119570 -5949.07 18633.1 -40393.8 -7.41256 
647 1 10.6941 3.50809 7.5 6.03194 -137327 -148387 -142765 11611.6 4773.07 -29941.1 -7.41128 
648 1 11.3827 2.26857 7.5 6.03192 -141090 -144867 -128345 -7750.59 11855.4 -37534.6 -7.41208 
649 1 10.6536 1.05243 7.5 6.03192 -138517 -146122 -139882 9960.59 -3263.16 -32009.4 -7.41146 
748 1 13.6107 8.37265 7.5 6.03194 -149729 -144370 -87994.2 -3690.78 28605.3 -50236.5 -7.41423 
749 1 12.8815 7.15651 7.5 6.03194 -137760 -154354 -138314 15594.7 15655 -31302.3 -7.41146 
750 1 13.5702 5.91699 7.5 6.03194 -146225 -145684 -99907 -5550.57 23459.1 -48301.7 -7.41359 
751 1 12.841 4.70085 7.5 6.03194 -137957 -152301 -138000 14211.5 6660.88 -34420.8 -7.4115 
752 1 13.5297 3.46132 7.5 6.03194 -143170 -147289 -111336 -7629.35 17328.5 -45714.7 -7.41298 
753 1 12.8005 2.24518 7.5 6.03192 -138819 -150149 -134343 12420.2 -1720.62 -37211.5 -7.41171 
754 1 13.4892 1.00565 7.5 6.03192 -140682 -149207 -121543 -9802.04 10458.1 -42716.3 -7.41242 
853 1 15.0285 8.34926 7.5 6.03194 -138511 -157296 -134897 17620.1 16757.7 -32907.6 -7.41161 
854 1 15.7171 7.10974 7.5 6.03194 -148171 -148290 -76571.5 -4778.09 27401.8 -54330.1 -7.41483 
855 1 14.988 5.8936 7.5 6.03194 -138651 -155756 -133825 16442.8 7967.91 -37070.9 -7.41168 
856 1 15.6766 4.65407 7.5 6.03194 -145262 -149758 -90348 -7012.86 22304 -52390.1 -7.41409 
857 1 14.9474 3.43793 7.5 6.03194 -139353 -153965 -129200 14711.9 -483.115 -40723.9 -7.41195 
858 1 15.6361 2.19841 7.5 6.03192 -142729 -151443 -103497 -9408.3 16237.4 -49708.6 -7.41337 
859 1 14.9069 0.982266 7.5 6.03192 -140608 -152127 -121607 12595.7 -8294.19 -43924.3 -7.41238 
958 1 17.864 8.30249 7.5 6.03194 -149803 -150570 -50546.6 -3782.21 30086 -57770.8 -7.41623 
959 1 17.1349 7.08635 7.5 6.03194 -139213 -158266 -130799 18030.7 8439.8 -37471.4 -7.41182 
960 1 17.8235 5.84682 7.5 6.03194 -147221 -151955 -66140.1 -6024.1 26344.5 -56721.7 -7.41538 
961 1 17.0944 4.63068 7.5 6.03194 -139909 -157041 -125060 16541 201.191 -41999.5 -7.41214 
962 1 17.783 3.39116 7.5 6.03194 -144825 -153498 -81824.3 -8539.46 21403.6 -54679.7 -7.41453 
963 1 17.0539 2.17502 7.5 6.03192 -141038 -155556 -116126 14495 -7562.93 -45919.8 -7.41264 
964 1 17.7425 0.935492 7.5 6.03192 -142698 -155186 -96737.9 -11148.4 15516.5 -51788.9 -7.41371 
1063 1 19.2818 8.2791 7.5 6.03194 -139472 -159459 -129355 18745.9 7989.87 -35595.2 -7.41188 
1064 1 19.9704 7.03958 7.5 6.03194 -148896 -153590 -39838.4 -4826.36 29159 -58217.2 -7.4168 
1065 1 19.2413 5.82344 7.5 6.03194 -140288 -158954 -122457 17650.3 181.68 -40838 -7.41226 
1066 1 19.9299 4.58391 7.5 6.03194 -146805 -155048 -57447 -7304.63 25589.6 -56997.6 -7.41584 
1067 1 19.2008 3.36777 7.5 6.03194 -141469 -158053 -112148 15889 -7335.38 -45415 -7.41283 
1068 1 19.8894 2.12824 7.5 6.03192 -144771 -156538 -75049.3 -9950.15 20905.7 -54728.1 -7.41487 
1069 1 19.1603 0.912104 7.5 6.03192 -142943 -156919 -99101.9 13630.4 -14227.8 -49282.7 -7.41355 
1168 1 22.1174 8.23233 7.5 6.03194 -150160 -154465 -12776.8 -3587.58 30645.4 -56804.2 -7.41827 
1169 1 21.3882 7.01619 7.5 6.03194 -140332 -159454 -121740 17853 -521.735 -37453.5 -7.4123 
1170 1 22.0769 5.77666 7.5 6.03194 -148527 -155883 -31566.6 -5875.82 28579.6 -56425 -7.41724 
1171 1 21.3477 4.56052 7.5 6.03194 -141683 -159261 -110152 16520.1 -7665.12 -42468.8 -7.41293 
1172 1 22.0363 3.321 7.5 6.03194 -146768 -157280 -51175.4 -8431.43 25261.4 -54913.2 -7.41616 
1173 1 21.3072 2.10486 7.5 6.03192 -143248 -158647 -95571.3 14563.1 -14278.1 -46771.1 -7.41373 
1174 1 21.9958 0.86533 7.5 6.03192 -144923 -158609 -70648.7 -11052.8 20891.1 -52337.7 -7.41509 
1273 1 23.5351 8.20894 7.5 6.03194 -139956 -158530 -122989 17081.6 -1717.16 -32400.8 -7.41224 
1274 1 24.2238 6.96941 7.5 6.03194 -149865 -155921 -5498.8 -4423.62 30325.9 -53113.8 -7.41866 
1275 1 23.4946 5.75327 7.5 6.03194 -141532 -159073 -110375 16248.2 -8444.54 -37520 -7.41292 
1276 1 24.1833 4.51375 7.5 6.03194 -148526 -157274 -26326.7 -6740.42 28433 -52352.7 -7.41752 
1277 1 23.4541 3.29761 7.5 6.03194 -143322 -159115 -94480.5 14752.9 -14746.4 -42010.1 -7.41379 
1278 1 24.1428 2.05808 7.5 6.03192 -146895 -158467 -47860.6 -9188.76 25386 -50503.5 -7.41633 
1279 1 23.4136 0.841943 7.5 6.03192 -145154 -158764 -76121.4 12734.7 -20291.5 -45775.8 -7.41479 
1378 1 26.3707 8.16217 7.5 6.03194 -150738 -155226 19494.6 -3088.05 30913.2 -47491.6 -7.42003 
1379 1 25.6416 6.94603 7.5 6.03194 -140951 -157626 -112756 15057.3 -9431.4 -31253.1 -7.41281 
1380 1 26.3302 5.7065 7.5 6.03194 -149925 -156561 -1746.24 -5049.04 30414.7 -47369.2 -7.41886 
1381 1 25.601 4.49036 7.5 6.03194 -143006 -158327 -95928.6 14074.1 -15458.4 -35609 -7.41372 
1382 1 26.2897 3.25083 7.5 6.03194 -148672 -157715 -24521.3 -7216.88 28689 -46227.1 -7.41761 
1383 1 25.5605 2.03469 7.5 6.03192 -145100 -158513 -76282.2 12513.3 -20775 -39364.9 -7.41478 
1384 1 26.2492 0.795168 7.5 6.03192 -146979 -158622 -47804.9 -9412.38 25857.1 -44105.2 -7.41634 
1483 1 27.7885 8.13878 7.5 6.03194 -139976 -155266 -116963 13058.6 -10323.7 -24408.2 -7.41261 
1485 1 27.748 5.68311 7.5 6.03194 -142256 -156543 -99714.2 12552.8 -16143.2 -28307.9 -7.41353 
1487 1 27.7075 3.22745 7.5 6.03194 -144661 -157294 -79253.5 11508.9 -21334.7 -31760.9 -7.41464 
1489 1 27.667 0.771781 7.5 6.03192 -146912 -157572 -56546.2 10025.1 -25579.4 -34683.3 -7.41587 
1484 1 28.4771 6.89925 7.5 6.03194 -150879 -155311 21429 -3496.46 31303.6 -40456.4 -7.42014 
1486 1 28.4366 4.44359 7.5 6.03194 -150111 -156460 -1769.7 -5276.74 30828 -39924.7 -7.41886 
1488 1 28.3961 1.98792 7.5 6.03192 -148734 -157306 -26298.8 -7132.86 29191.6 -38511.4 -7.41752 
1588 1 30.624 8.092 7.5 6.03194 -151360 -153783 42259.7 -2180.63 31250.3 -32132.3 -7.42129 
1589 1 29.8949 6.87586 7.5 6.03194 -141122 -154176 -105387 10323.1 -16510.8 -20799.1 -7.41325 
1590 1 30.5835 5.63634 7.5 6.03194 -151127 -154940 19384.4 -3508.05 31912 -32082.5 -7.42003 
1591 1 29.8544 4.4202 7.5 6.03194 -143785 -155413 -84699.8 9745.52 -21685.6 -23682.5 -7.41436 
1592 1 30.543 3.18067 7.5 6.03194 -150198 -155810 -5571.69 -4958.87 31375.4 -31293.5 -7.41866 
1593 1 29.8139 1.96453 7.5 6.03192 -146375 -156118 -61292.9 8744.32 -25960.2 -26195.1 -7.41562 
1594 1 30.5025 0.725006 7.5 6.03192 -148544 -156332 -31528.5 -6417.96 29687.8 -29804.4 -7.41725 
1693 1 32.0418 8.06862 7.5 6.03194 -139740 -151686 -112343 7587.73 -16323.9 -13605.7 -7.41291 
1694 1 32.7304 6.82909 7.5 6.03194 -151681 -153428 38115.3 -2012.85 32092.5 -23144.5 -7.42107 
1695 1 32.0013 5.61295 7.5 6.03194 -142536 -153296 -92072.2 7365.57 -21554.2 -15722.9 -7.41399 
1696 1 32.6899 4.37342 7.5 6.03194 -151257 -154348 13474.5 -2998.62 32530.9 -22872.5 -7.41972 
1697 1 31.9608 3.15728 7.5 6.03194 -145420 -154405 -68598.3 6815.42 -25993.7 -17607.3 -7.41525 
1698 1 32.6494 1.91776 7.5 6.03192 -150000 -154895 -12906.2 -4017.15 31796.8 -22041 -7.41827 
1699 1 31.9203 0.701619 7.5 6.03192 -148029 -155037 -43002.6 5999.2 -29333.8 -19223.7 -7.41663 
1798 1 34.8774 8.02184 7.5 6.03194 -151800 -152167 53790.6 -855.218 31544.9 -13469.1 -7.42194 
1799 1 34.1482 6.8057 7.5 6.03194 -141052 -151353 -100708 4558.81 -20732.6 -8283.98 -7.41354 
1800 1 34.8369 5.56618 7.5 6.03194 -151868 -153151 30090.7 -1359.04 32820.2 -13595.9 -7.42063 
1801 1 34.1077 4.35004 7.5 6.03194 -144098 -152783 -77842.3 4347.1 -25421 -9387.2 -7.41476 
1802 1 34.7964 3.11051 7.5 6.03194 -151094 -153800 4018.77 -1909.44 32910.2 -13321.2 -7.41921 
1803 1 34.0672 1.89437 7.5 6.03192 -147020 -153702 -52291.8 3936.64 -29090.8 -10347.7 -7.41614 
1804 1 34.7558 0.654844 7.5 6.03192 -149432 -154063 -23311.8 -2482.85 31810.3 -12681.6 -7.41771 
1903 1 36.2952 7.99845 7.5 6.03194 -139512 -149895 -109916 1521.17 -19095.7 -1597.51 -7.41306 
1904 1 36.9838 6.75893 7.5 6.03194 -152049 -152371 43677.2 -110.396 32437.8 -3744.69 -7.42139 
1905 1 36.2546 5.54279 7.5 6.03194 -142546 -151567 -88320.8 1512.31 -24051.9 -1824 -7.41421 
1906 1 36.9433 4.30326 7.5 6.03194 -151751 -153149 18535.8 -175.379 33206.9 -3904.21 -7.42 
1907 1 36.2141 3.08712 7.5 6.03194 -145663 -152759 -63512.9 1428.4 -28142.1 -2002.32 -7.41554 
1908 1 36.9028 1.8476 7.5 6.03192 -150534 -153529 -8489.98 -251.327 32793.6 -3847.46 -7.41853 
1909 1 36.1736 0.631457 7.5 6.03192 -148453 -153484 -36631.5 1304.99 -31069.8 -2154.26 -7.41699 
2007 1 38.4421 9.19121 7.5 6.03194 -138094 -149091 -119030 -1579.29 -16583.2 4196.98 -7.41258 
2008 1 39.1307 7.95168 7.5 6.03194 -151886 -152049 53768.7 713.904 31612 6409.39 -7.42194 
2009 1 38.4016 6.73554 7.5 6.03194 -140936 -150950 -99313.1 -1517.38 -21768.1 4913.55 -7.41362 
2010 1 39.0902 5.49601 7.5 6.03194 -151982 -152967 30046.7 1107.91 32906.7 5971.21 -7.42063 
2011 1 38.3611 4.27987 7.5 6.03194 -144068 -152362 -75940.5 -1399.48 -26306.3 5604.14 -7.41487 
2012 1 39.0497 3.04035 7.5 6.03194 -151229 -153542 3943.89 1520.79 33026.2 5583.41 -7.4192 
2013 1 38.3206 1.82421 7.5 6.03192 -147069 -153267 -49889.4 -1228.91 -29805.1 6232.39 -7.41628 
2014 1 39.0092 0.584682 7.5 6.03192 -149578 -153723 -23424.5 1873.91 31943.2 5221.54 -7.41771 
2112 1 41.2776 9.14443 7.5 6.03194 -151528 -152104 60020.7 1123.23 30600 16537.1 -7.42228 
2113 1 40.5485 7.92829 7.5 6.03194 -139434 -150981 -110110 -4590.13 -18503.3 10692.3 -7.41304 
2114 1 41.2371 6.68877 7.5 6.03194 -151871 -153162 38067.7 1903.64 32267.8 16015.3 -7.42107 
2115 1 40.508 5.47263 7.5 6.03194 -142398 -152570 -88828.2 -4391.66 -23462.7 12322 -7.41417 
2116 1 41.1966 4.2331 7.5 6.03194 -151500 -153951 13379.6 2779.46 32752.5 15363.4 -7.41971 
2117 1 40.4675 3.01696 7.5 6.03194 -145449 -153660 -64334.7 -4011.27 -27573.2 13814 -7.41549 
2118 1 41.1561 1.77743 7.5 6.03192 -150279 -154347 -13065.4 3657.78 32062.5 14571.9 -7.41827 
2119 1 40.427 0.561295 7.5 6.03192 -148194 -154271 -37758.8 -3437.75 -30556.6 15094.4 -7.41693 
2217 1 42.6954 9.12104 7.5 6.03194 -138182 -151598 -120006 -7575.45 -14220.9 15354 -7.4125 
2218 1 43.384 7.88152 7.5 6.03194 -151572 -153540 42241.8 2224.48 31568.4 25835.8 -7.42129 
2219 1 42.6549 6.66538 7.5 6.03194 -140809 -153319 -101422 -7402.01 -19536.1 17987.1 -7.41349 
2220 1 43.3435 5.42585 7.5 6.03194 -151430 -154534 19323 3487.46 32253.7 25136.8 -7.42003 
2221 1 42.6144 4.20971 7.5 6.03194 -143721 -154553 -79194.9 -6923.04 -24250.9 20411.7 -7.41468 
2222 1 43.303 2.97019 7.5 6.03194 -150576 -155210 -5703.5 4834.16 31774.7 24119.2 -7.41866 
2223 1 42.5739 1.75405 7.5 6.03192 -146536 -155252 -54270.8 -6154.33 -27999.8 22544.3 -7.41602 
2224 1 43.2625 0.51452 7.5 6.03192 -148967 -155513 -31755.3 6090.75 30118.8 22770.7 -7.41724 
2322 1 45.531 9.07427 7.5 6.03194 -151289 -153855 42361.2 2139.43 31066.4 34940.8 -7.42129 
2323 1 44.8018 7.85813 7.5 6.03194 -139436 -154462 -112958 -10288.4 -14489 22392.7 -7.41285 
2324 1 45.4905 6.6186 7.5 6.03194 -151175 -155015 21434 3666.98 31814.4 34420.1 -7.42014 
2325 1 44.7613 5.40247 7.5 6.03194 -142036 -155783 -93665.5 -9813.5 -19761.3 25799 -7.41388 
2326 1 45.45 4.16294 7.5 6.03194 -150529 -155956 -1816.46 5398 31372.7 33405.1 -7.41886 
2327 1 44.7208 2.9468 7.5 6.03194 -144752 -156569 -71151.8 -8927.38 -24289.8 28840.2 -7.41509 
2328 1 45.4094 1.70727 7.5 6.03192 -149247 -156555 -26433.3 7158.28 29780.7 31883.4 -7.41752 
2329 1 44.6803 0.491133 7.5 6.03192 -147254 -156863 -46471.5 -7654.64 -27810.6 31400.7 -7.41643 
2427 1 46.9488 9.05088 7.5 6.03194 -138379 -155820 -122659 -12906 -8331.76 25323 -7.41231 
2428 1 47.6374 7.81136 7.5 6.03194 -150948 -155118 19565.8 3404.88 31671 42646.5 -7.42003 
2429 1 46.9082 6.59522 7.5 6.03194 -140525 -157151 -106916 -12523.6 -14081 29714.4 -7.41315 
2430 1 47.5969 5.35569 7.5 6.03194 -150303 -156268 -1685.93 5387.28 31131.1 41846.7 -7.41886 
2431 1 46.8677 4.13955 7.5 6.03194 -142964 -157955 -87534.3 -11623.9 -19360.8 33679.3 -7.41419 
2432 1 47.5564 2.90002 7.5 6.03194 -149204 -157183 -24513 7523.93 29431.1 40381.5 -7.41761 
2433 1 46.8272 1.68389 7.5 6.03192 -145397 -158217 -65376.3 -10252.4 -23826.6 37098.6 -7.41539 
2434 1 47.5159 0.444359 7.5 6.03192 -147627 -157805 -47894.9 9569.13 26611.5 38244.2 -7.41634 
2532 1 49.7843 9.00411 7.5 6.03194 -150978 -154627 13790.6 2838.23 31958.2 49264.6 -7.41972 
2533 1 49.0552 7.78797 7.5 6.03194 -139291 -158463 -118116 -14888.4 -7261.44 31931.3 -7.41252 
2534 1 49.7438 6.54844 7.5 6.03194 -150113 -155896 -5353.48 4909.65 31248.4 48826.9 -7.41866 
2535 1 49.0147 5.3323 7.5 6.03194 -141306 -159196 -102517 -14070.1 -13220.6 36762.1 -7.41336 
2536 1 49.7033 4.09278 7.5 6.03194 -148984 -157055 -26175.2 7275.08 29320.2 47604.9 -7.41752 
2537 1 48.9742 2.87664 7.5 6.03194 -143510 -159396 -83632.1 -12680.8 -18612 41008.1 -7.41438 
2538 1 49.6628 1.63711 7.5 6.03192 -147538 -157993 -47752.9 9710.83 26279.8 45584.7 -7.41634 
2539 1 48.9336 0.420971 7.5 6.03192 -145671 -159154 -62390.9 -10786.7 -23169.8 44538.7 -7.41554 
2637 1 51.2021 8.98072 7.5 6.03194 -138408 -159563 -126488 -16744.1 544.909 32349.3 -7.41206 
2638 1 51.8907 7.74119 7.5 6.03194 -150190 -154703 -12605.6 4124.73 31799.4 53820.6 -7.41827 
2639 1 51.1616 6.52506 7.5 6.03194 -139885 -160124 -115218 -16087.8 -5977.29 37890.6 -7.41266 
2640 1 51.8502 5.28553 7.5 6.03194 -148808 -155997 -31322.3 6545.29 29596.5 52939.2 -7.41725 
2641 1 51.1211 4.06939 7.5 6.03194 -141709 -160173 -100262 -14785.2 -12220.3 42836.5 -7.41347 
2642 1 51.8097 2.82986 7.5 6.03194 -147302 -157206 -50899.9 9176.31 26249 51190.3 -7.41617 
2643 1 51.0806 1.61372 7.5 6.03192 -143682 -159751 -82366 -12920.5 -17840.1 47073.7 -7.41445 
2644 1 51.7692 0.374197 7.5 6.03192 -145673 -158283 -70399.4 11743.1 21866.8 48579.8 -7.4151 
2742 1 54.0376 8.93395 7.5 6.03194 -150736 -152688 -22995.2 3210.15 32723.5 56506.8 -7.41771 
2743 1 53.3085 7.71781 7.5 6.03194 -138786 -160640 -124853 -17512.8 2144.38 37060.8 -7.41213 
2744 1 53.9971 6.47828 7.5 6.03194 -148908 -153995 -39586.9 5515.96 30273.9 55954.4 -7.41681 
2745 1 53.268 5.26214 7.5 6.03194 -140111 -160449 -114343 -16386.8 -4824.2 42475.3 -7.4127 
2746 1 53.9566 4.02261 7.5 6.03194 -147118 -155350 -57085.6 8157.32 26610.6 54525.3 -7.41585 
2747 1 53.2275 2.80648 7.5 6.03194 -141762 -159815 -100419 -14636.6 -11412.2 47226.6 -7.41346 
2748 1 53.9161 1.56695 7.5 6.03192 -145376 -156671 -74623.1 10906.1 21911.3 52232.2 -7.41489 
2749 1 53.187 0.350809 7.5 6.03192 -143605 -158879 -83865.2 -12362.8 -17341.1 51219.6 -7.41437 
2847 1 55.4554 8.91056 7.5 6.03194 -138068 -160710 -130828 -18217.2 10814 34504.7 -7.4118 
2849 1 55.4149 6.45489 7.5 6.03194 -138809 -160213 -125105 -17333.5 3284.38 40076.2 -7.41212 
2851 1 55.3744 3.99923 7.5 6.03194 -140015 -159301 -115606 -15794.4 -4124.29 45050.9 -7.41264 
2853 1 55.3339 1.54356 7.5 6.03192 -141582 -158073 -102957 -13713.3 -11059.7 49387.2 -7.41334 
2848 1 56.1441 7.67103 7.5 6.03194 -149475 -151177 -50382.3 4378.03 31243.1 56496.6 -7.41623 
2850 1 56.1036 5.21537 7.5 6.03194 -147215 -152546 -65802.3 6858.2 27321.3 55330.5 -7.41539 
2852 1 56.063 2.7597 7.5 6.03194 -145166 -154017 -81334.3 9565.42 22345.2 53360.1 -7.41454 
2854 1 56.0225 0.304035 7.5 6.03192 -143367 -155568 -96137.3 12241.6 16462 50628.3 -7.41373 
2952 1 58.291 8.86378 7.5 6.03194 -150630 -147775 -62977.3 3287.16 32325.6 54697.2 -7.41556 
2953 1 57.5618 7.64765 7.5 6.03194 -137871 -159520 -132027 -17528.2 11729.9 36047.5 -7.41175 
2954 1 58.2505 6.40812 7.5 6.03194 -147775 -149054 -76363.2 5476.97 28240.5 53672.5 -7.41484 
2955 1 57.5213 5.19198 7.5 6.03194 -138543 -158297 -127204 -16266.5 3677.07 40905.6 -7.41202 
2956 1 58.21 3.95245 7.5 6.03194 -145241 -150540 -89921.5 7975.03 23073.8 51938.3 -7.4141 
2957 1 57.4808 2.73631 7.5 6.03194 -139728 -156786 -118826 -14446.5 -4084.75 45256.2 -7.41249 
2958 1 58.1695 1.49679 7.5 6.03192 -143095 -152188 -102867 10587.9 17034.2 49570.8 -7.41339 
2959 1 57.4403 0.280648 7.5 6.03192 -141371 -155175 -107562 -12176.4 -11288.5 49094.9 -7.41312 
3057 1 59.7088 8.8404 7.5 6.03194 -137341 -158468 -134897 -16944.2 20120 30966.4 -7.41161 
3058 1 60.3974 7.60087 7.5 6.03194 -148906 -145193 -87994.2 4166.12 29203.5 49891.2 -7.41423 
3059 1 59.6683 6.38473 7.5 6.03194 -137421 -156948 -134797 -15991.4 11598.1 35391.9 -7.41163 
3060 1 60.3569 5.1452 7.5 6.03194 -145771 -146592 -99654.9 6336.86 23940.5 48274.6 -7.4136 
3061 1 59.6277 3.92907 7.5 6.03194 -138132 -155154 -130838 -14494.1 3198.25 39416.4 -7.41186 
3062 1 60.3164 2.68954 7.5 6.03194 -143135 -148246 -110816 8698.31 17853 46167.1 -7.41299 
3063 1 59.5872 1.4734 7.5 6.03192 -139435 -153230 -123576 -12568.6 -4743.26 43119.5 -7.41227 
3064 1 60.2759 0.233873 7.5 6.03192 -141064 -150166 -120750 11046.3 11049.3 43664.5 -7.41245 
3162 1 62.5443 8.79362 7.5 6.03194 -150626 -141283 -99907 3009.6 30100.9 44467 -7.41359 
3163 1 61.8152 7.57748 7.5 6.03194 -136700 -155414 -138314 -14982.8 19281.1 29208.8 -7.41146 
3164 1 62.5038 6.33796 7.5 6.03194 -146852 -142544 -109779 4794.8 24815.1 42888.6 -7.41307 
3165 1 61.7747 5.12182 7.5 6.03194 -136872 -153381 -138723 -13829.9 10402.2 32638.4 -7.41146 
3166 1 62.4633 3.88229 7.5 6.03194 -143620 -144111 -119271 6803.7 18757.6 40939.4 -7.41257 
3167 1 61.7342 2.66615 7.5 6.03194 -137760 -151217 -135506 -12269.7 1917.45 35884.6 -7.41165 
3168 1 62.4228 1.42662 7.5 6.03192 -141040 -145974 -127712 8901.38 12099.4 38761 -7.41211 
3169 1 61.6937 0.210486 7.5 6.03192 -139348 -149133 -129278 -10389 -5978.6 39049.2 -7.412 
3267 1 63.9621 8.77024 7.5 6.03194 -136408 -153850 -138000 -13317.1 26478.9 22978.9 -7.4115 
3268 1 64.6507 7.53071 7.5 6.03194 -148494 -138709 -119570 3423.91 25665.5 36333.7 -7.41256 
3269 1 63.9216 6.31457 7.5 6.03194 -136005 -151657 -142570 -12498.6 17231.2 25680.1 -7.41127 
3270 1 64.6102 5.07504 7.5 6.03194 -144633 -140146 -127546 5036.7 19663.5 34512.2 -7.41214 
3271 1 63.8811 3.8589 7.5 6.03194 -136408 -149317 -143261 -11313.7 8331.92 28260.2 -7.41126 
3272 1 64.5697 2.61938 7.5 6.03194 -141473 -141912 -134649 6771.38 13195.2 32577 -7.41176 
3273 1 63.8406 1.40324 7.5 6.03192 -137608 -146987 -140628 -9857.2 53.0893 30903.1 -7.41142 
3274 1 64.5292 0.163711 7.5 6.03192 -139106 -144035 -140276 8491.95 6253.1 30651.4 -7.41146 
3372 1 66.7977 8.72346 7.5 6.03194 -150632 -135323 -128345 2242.29 26578.2 29034.3 -7.41209 
3373 1 66.0685 7.50732 7.5 6.03194 -135566 -150148 -142765 -10594.9 23543.2 19104.1 -7.41128 
3374 1 66.7572 6.26779 7.5 6.03194 -146177 -136626 -135010 3462.84 20618.8 27412.2 -7.41175 
3375 1 66.028 5.05166 7.5 6.03194 -135438 -147710 -147106 -9763.82 14281.1 20967.6 -7.41107 
3376 1 66.7166 3.81213 7.5 6.03194 -142408 -138261 -140973 4806.85 14300.7 25733.4 -7.41145 
3377 1 65.9875 2.59599 7.5 6.03194 -136197 -145247 -147858 -8698.12 5702.36 22937.4 -7.41105 
3378 1 66.6761 1.35646 7.5 6.03192 -139461 -140227 -145693 6200.83 7706.84 24144 -7.4112 
3379 1 65.947 0.140324 7.5 6.03192 -137841 -142959 -145645 -7442.34 -2132.3 25172 -7.41119 
3477 1 68.2154 8.70007 7.5 6.03194 -135574 -148994 -139882 -8236.1 29352.5 13178.8 -7.41146 
3478 1 68.9041 7.46055 7.5 6.03194 -148191 -133725 -141063 2099.6 21792.2 19931.3 -7.41143 
3479 1 68.1749 6.24441 7.5 6.03194 -134892 -146539 -147554 -7719.08 19731.2 14419.2 -7.41107 
3480 1 68.8636 5.00488 7.5 6.03194 -143843 -135227 -146142 3063.3 15536.7 18623.1 -7.41118 
3481 1 68.1344 3.78874 7.5 6.03194 -135157 -144015 -151397 -7013.85 10830.6 15731 -7.41089 
3482 1 68.8231 2.54922 7.5 6.03194 -140316 -137055 -150190 4084.19 9177.99 17415.3 -7.41098 
3483 1 68.0939 1.33308 7.5 6.03192 -136367 -141565 -152014 -6176.97 2824.67 17310.1 -7.41087 
3484 1 68.7826 0.0935492 7.5 6.03192 -137708 -139243 -152707 5081.13 2573.84 16390.6 -7.41084 
3582 1 71.051 8.6533 7.5 6.03194 -150564 -131547 -145098 948.4 23391.8 12109.6 -7.4112 
3583 1 70.3219 7.43716 7.5 6.03194 -134793 -145915 -145239 -5283.35 24801.4 8681.43 -7.41121 
3584 1 71.0105 6.19763 7.5 6.03194 -145722 -132922 -149617 1561.01 17134 11334.5 -7.41099 
3585 1 70.2813 4.98149 7.5 6.03194 -134533 -143388 -151860 -4895.55 15501.9 9473.92 -7.41088 
3586 1 70.97 3.74197 7.5 6.03194 -141641 -134612 -153289 2220.26 10846.6 10642.6 -7.41082 
3587 1 70.2408 2.52583 7.5 6.03194 -135271 -140879 -154991 -4413.74 7222.67 10456.3 -7.41072 
3588 1 70.9295 1.2863 7.5 6.03192 -138464 -136611 -155670 2897.34 4534.02 10087.4 -7.4107 
3589 1 70.2003 0.0701619 7.5 6.03192 -137001 -138569 -155296 -3839.62 -117.819 11751.6 -7.41072 
3669 1 72.4688 8.62991 7.5 6.03193 -135149 -145931 -140808 -2548.47 29664.9 3573.97 -7.41145 
3670 1 73.1574 7.39039 7.5 6.03193 -148003 -131401 -150811 314.406 19320.9 3716.81 -7.41092 
3671 1 72.4283 6.17425 7.5 6.03193 -134355 -143438 -149904 -2428.42 19916.1 4014.48 -7.41099 
3672 1 73.1169 4.93472 7.5 6.03193 -143441 -132951 -154470 634.222 12982 3688.15 -7.41075 
3673 1 72.3878 3.71858 7.5 6.03193 -134586 -140910 -155244 -2259.94 11206 4552.6 -7.41072 
3674 1 73.0764 2.47905 7.5 6.03193 -139744 -134806 -157037 967.729 6734.43 3739.21 -7.41063 
3675 1 72.3473 1.26291 7.5 6.03192 -135832 -138471 -157477 -2058.37 3626.57 5286.22 -7.41061 
3676 1 73.0359 0.0233873 7.5 6.03192 -137016 -137000 -158072 1270.6 364.887 3841.44 -7.41058 
109 1 1.0127 18.4058 7.5 6.03193 -169319 -127892 -133207 -723.692 36856.8 -5048.01 -7.41169 
110 1 0.283556 17.1897 7.5 6.03193 -144169 -152191 -75931.6 518.943 61018.3 -1478.61 -7.41487 
111 1 0.972192 15.9501 7.5 6.03193 -165904 -128233 -136063 -707.048 36152.1 -5257.77 -7.41156 
112 1 0.243048 14.734 7.5 6.03193 -141030 -150755 -99441.2 510.826 53873.9 -1407.62 -7.41362 
113 1 0.931684 13.4945 7.5 6.03193 -161178 -128798 -140026 -683.708 33093.6 -5239.37 -7.41139 
114 1 0.20254 12.2783 7.5 6.03193 -138182 -148879 -119272 472.352 44648 -1289.12 -7.41258 
115 1 0.891176 11.0388 7.5 6.03193 -155795 -129614 -144550 -663.881 28189.2 -4962.23 -7.41119 
116 1 0.162032 9.82266 7.5 6.03193 -135986 -146661 -134867 407.014 34421.7 -1142.88 -7.41176 
215 1 2.43048 18.3824 7.5 6.03194 -145634 -153055 -64430.6 3258.7 63056 -3977.85 -7.41548 
216 1 3.11911 17.1429 7.5 6.03194 -167472 -128867 -130248 -815.737 36625.2 -14718.8 -7.41186 
217 1 2.38997 15.9267 7.5 6.03194 -142563 -151867 -89097.9 3495.06 57226.2 -4749.75 -7.41416 
218 1 3.07861 14.6872 7.5 6.03194 -163372 -129290 -134048 -917.631 34918.1 -14699.1 -7.41169 
219 1 2.34946 13.4711 7.5 6.03194 -139574 -150196 -110539 3570.12 48884.4 -5269.47 -7.41303 
220 1 3.0381 12.2316 7.5 6.03194 -158299 -129949 -138758 -1078.2 31031.5 -14186.1 -7.41148 
221 1 2.30895 11.0154 7.5 6.03194 -137060 -148127 -127982 3491.17 38996.1 -5575.71 -7.41211 
222 1 2.99759 9.77589 7.5 6.03194 -152905 -130875 -143794 -1304.46 25596.3 -13216 -7.41125 
320 1 5.26604 18.3356 7.5 6.03194 -168291 -130374 -120183 -788.805 36095.8 -23528.1 -7.4124 
321 1 4.53689 17.1195 7.5 6.03194 -144037 -153486 -79529.1 6216.64 59279.6 -7145.77 -7.41466 
322 1 5.22553 15.88 7.5 6.03194 -165005 -130656 -123781 -950.217 36040 -23840.8 -7.41223 
323 1 4.49639 14.6638 7.5 6.03194 -141088 -152091 -101947 6544.15 52221.7 -8564.14 -7.41347 
324 1 5.18502 13.4243 7.5 6.03194 -160473 -131152 -128730 -1219.9 33583.7 -23453 -7.412 
325 1 4.45588 12.2082 7.5 6.03194 -138418 -150237 -120721 6585.09 43105 -9585.87 -7.41248 
326 1 5.14451 10.9686 7.5 6.03194 -155317 -131898 -134433 -1621.1 29151.6 -22380.3 -7.41173 
327 1 4.41537 9.7525 7.5 6.03194 -136366 -148022 -135316 6365.22 32969.4 -10276 -7.41172 
425 1 6.68382 18.3123 7.5 6.03194 -145229 -155337 -71469.2 8492.63 59699 -8227.1 -7.41508 
426 1 7.37245 17.0727 7.5 6.03194 -165920 -132797 -109360 -829.706 35976.9 -32032.6 -7.413 
427 1 6.64331 15.8566 7.5 6.03194 -142482 -154310 -94186.5 9205.75 54234.7 -10774.5 -7.41386 
428 1 7.33194 14.6171 7.5 6.03194 -162127 -133147 -114412 -1125.61 35278.6 -32150.4 -7.41275 
429 1 6.6028 13.4009 7.5 6.03194 -139830 -152772 -113696 9513.52 46314.2 -12805.5 -7.41282 
430 1 7.29144 12.1614 7.5 6.03194 -157439 -133721 -120749 -1618.14 32290 -31401.3 -7.41245 
431 1 6.56229 10.9453 7.5 6.03194 -137615 -150795 -129278 9425.16 36807 -14347 -7.412 
432 1 7.25093 9.70573 7.5 6.03194 -152447 -134565 -127712 -2317.6 27518.4 -29859 -7.41211 
531 1 8.79023 17.0493 7.5 6.03194 -143584 -156472 -87952.2 11348.1 54563.5 -11517.4 -7.41417 
533 1 8.74972 14.5937 7.5 6.03194 -141104 -155371 -107561 12059.3 48161.7 -14771.3 -7.41312 
535 1 8.70922 12.138 7.5 6.03194 -138894 -153770 -123576 12255.6 39714.3 -17452 -7.41227 
537 1 8.66871 9.68234 7.5 6.03194 -137227 -151750 -135506 11962.5 30118.2 -19602.9 -7.41165 
530 1 9.51938 18.2655 7.5 6.03194 -166019 -135529 -91288.6 -634.506 34384.8 -38650.2 -7.41397 
532 1 9.47887 15.8098 7.5 6.03194 -163100 -135763 -96136.8 -873.326 35614.4 -39570.7 -7.41373 
534 1 9.43836 13.3541 7.5 6.03194 -159082 -136199 -102867 -1358.92 34412.5 -39537.5 -7.41339 
536 1 9.39785 10.8985 7.5 6.03194 -154502 -136880 -110816 -2135.36 31055.4 -38544.7 -7.41299 
635 1 10.9372 18.2421 7.5 6.03194 -144280 -158134 -83864.7 12789.3 53028 -10591.9 -7.41437 
636 1 11.6258 17.0026 7.5 6.03194 -163290 -138755 -74623.1 -565.01 34278.8 -45091.8 -7.41489 
637 1 10.8966 15.7864 7.5 6.03194 -142071 -157582 -102958 13994.7 48300.5 -15115.6 -7.41334 
638 1 11.5853 14.5469 7.5 6.03194 -160089 -139095 -81334.3 -950.292 35038.6 -46031.6 -7.41454 
639 1 10.8561 13.3308 7.5 6.03194 -140010 -156504 -118826 14609.1 41235.4 -19090.6 -7.41249 
640 1 11.5448 12.0912 7.5 6.03194 -156121 -139659 -89921.5 -1693.18 33443 -45951.6 -7.4141 
641 1 10.8156 10.8751 7.5 6.03194 -138347 -154940 -130838 14618.2 32536.5 -22478 -7.41186 
642 1 11.5043 9.63557 7.5 6.03194 -151875 -140489 -99654.9 -2812.56 29836.8 -44870.4 -7.4136 
740 1 13.7727 18.1953 7.5 6.03194 -162677 -141831 -50899.9 -299.418 31207.6 -48327.5 -7.41617 
741 1 13.0436 16.9792 7.5 6.03194 -142625 -158950 -100419 15135.3 46605.5 -13730.1 -7.41346 
742 1 13.7322 15.7396 7.5 6.03194 -160356 -142111 -57085.6 -514.486 33915 -50308.1 -7.41585 
743 1 13.0031 14.5235 7.5 6.03194 -140801 -158514 -115606 16248.1 41077.4 -18953.7 -7.41264 
744 1 13.6917 13.284 7.5 6.03194 -157153 -142608 -65802.3 -1120.56 34256.9 -51326.2 -7.41539 
745 1 12.9626 12.0678 7.5 6.03194 -139272 -157569 -127204 16687 33586.7 -23637.2 -7.41202 
746 1 13.6512 10.8283 7.5 6.03194 -153478 -143351 -76363.2 -2184.66 32361.5 -51293.2 -7.41484 