ITEM: TIMESTEP
88
ITEM: NUMBER OF ATOMS
7352
ITEM: BOX BOUNDS pp pp pp
0.0000000000000000e+00 7.4453670299999999e+01
0.0000000000000000e+00 1.2895753999999999e+02
0.0000000000000000e+00 1.8399999999999999e+01
ITEM: ATOMS id type x y z c_csym c_2[1] c_2[2] c_2[3] c_2[4] c_2[5] c_2[6] c_3 
117 1 0.899096 8.57756 7.38931 6.01685 -165685 -143792 -4667.51 -19405.4 13645.8 -3538.81 -7.41384 
118 1 0.164046 7.36526 7.3854 6.02374 -150306 -159320 3202.5 -13447.6 16057.5 -1657.38 -7.41409 
119 1 0.845893 6.12211 7.3822 6.0221 -161702 -147261 -1514.52 -9349 9383.58 -2974.29 -7.41374 
120 1 0.110117 4.91019 7.3795 6.02653 -151205 -157689 1166.39 -5519.17 9335.78 -1101.03 -7.41377 
121 1 0.791471 3.6668 7.37758 6.02588 -158322 -150311 -13.704 -3375.64 5337.55 -2228.13 -7.41365 
122 1 0.0552673 2.45511 7.37609 6.02877 -152562 -155956 495.193 -1303.76 4066.05 -563.128 -7.41362 
123 1 0.736382 1.2116 7.37535 6.02905 -155490 -152931 418.126 -698.094 1669.22 -1439.04 -7.41359 
124 1 1.24948e-06 1.30373e-06 7.37498 6.03044 -154148 -154153 435.247 -5.29387 -0.00926831 -0.016005 -7.41357 
223 1 2.31661 8.54577 7.39019 6.01877 -159432 -150566 3743.77 -16095.6 19421.9 -4600.42 -7.4143 
224 1 2.99851 7.30256 7.38696 6.0191 -171483 -137919 -1365.36 -13474.7 11578.7 -8698.88 -7.41391 
225 1 2.26338 6.09027 7.38301 6.02258 -156946 -152417 1143.11 -6171.56 12060.3 -4180.7 -7.4139 
226 1 2.94476 4.84685 7.38104 6.0233 -164846 -144132 317.404 -5555.16 7382.37 -7219.74 -7.41379 
227 1 2.20894 3.63493 7.37834 6.02561 -155319 -153385 230.84 -302.224 5974.52 -3750.87 -7.41369 
228 1 2.89007 2.39141 7.37758 6.02699 -159176 -149485 679.573 -1448.54 3445.65 -5731.32 -7.41368 
229 1 2.15384 1.17971 7.37608 6.02767 -154472 -154014 264.12 2238.27 1291.74 -3411.55 -7.41361 
328 1 5.15015 8.48394 7.39416 6.0158 -184778 -125121 622.79 -16230.3 14132.5 -15315 -7.41427 
329 1 4.41596 7.27109 7.38897 6.0159 -166014 -143804 -347.247 -5517.07 15146.1 -7272.97 -7.41406 
330 1 5.0974 6.02762 7.38699 6.0202 -174665 -134787 2081.79 -6264.97 10095.9 -13328.8 -7.41408 
331 1 4.36221 4.81531 7.38299 6.02092 -161024 -148100 -1162.89 2240.9 8290.98 -7115.7 -7.41379 
332 1 5.04337 3.57176 7.38223 6.02437 -165785 -143368 1946.68 -471.209 5954.68 -11211.1 -7.41391 
333 1 4.30752 2.35982 7.37948 6.02417 -157207 -151518 -681.83 6196.87 2738.41 -6993.18 -7.41368 
334 1 4.98864 1.1163 7.37988 6.02535 -157847 -151005 854.887 1915.17 1914.12 -9287.9 -7.41377 
433 1 6.56756 8.45313 7.39727 6.00758 -178741 -131571 -3851.58 -3330.04 18210.7 -10047.2 -7.41419 
434 1 7.24906 7.20962 7.39538 6.01583 -188067 -121963 5942.49 -5085.43 13083.2 -20257.8 -7.41459 
435 1 6.51481 5.99671 7.39013 6.01415 -170185 -139409 -4262.14 6634.52 10905.5 -10518.6 -7.4139 
436 1 7.19602 4.75313 7.3894 6.02128 -175857 -133985 4951.81 2656.76 9063.78 -17826.2 -7.41432 
437 1 6.4608 3.54077 7.38534 6.01921 -163038 -146122 -3011.21 12299.7 4515.45 -10836 -7.41378 
438 1 7.14195 2.29724 7.38579 6.02229 -164688 -144923 2700.06 6477.36 4871.23 -15391 -7.41408 
439 1 6.40608 1.08525 7.38299 6.02156 -156909 -152072 -855.128 14504.5 -754.261 -11254.1 -7.4138 
539 1 8.66642 7.17969 7.39952 6.00608 -182962 -127128 -9544.12 12919.8 13387.2 -13422.6 -7.41396 
541 1 8.6134 4.7231 7.39366 6.0134 -172393 -137266 -7264.84 20803.5 6455.5 -14509.6 -7.41386 
542 1 9.29461 3.47956 7.39417 6.01884 -174777 -135532 6571.17 13810.5 8343.32 -22313.6 -7.4146 
543 1 8.55937 2.26711 7.39013 6.01728 -162945 -146604 -3673.96 24575.4 383.194 -15471.5 -7.41391 
544 1 9.24075 1.02375 7.39177 6.01508 -160959 -149152 1953.56 15781.6 4020.28 -19744.8 -7.41428 
538 1 9.39944 8.39338 7.40576 6.00815 -204101 -105915 12318.1 -1938.4 15813 -27207.1 -7.41532 
540 1 9.3477 5.93608 7.3989 6.01543 -189096 -121143 10272.3 8183.42 12361.4 -24908.7 -7.41496 
643 1 10.8167 8.36473 7.41052 5.99759 -198327 -111843 -17270.4 20675.9 15215.2 -15255.1 -7.41392 
644 1 11.4981 7.12112 7.41008 6.00811 -204337 -105606 18149.5 15763.1 15354.2 -31445.7 -7.41584 
645 1 10.765 5.90733 7.404 6.00613 -184972 -125235 -13839.2 31327.3 8160.94 -17350.5 -7.41387 
646 1 11.4463 4.6638 7.4046 6.01462 -187603 -122994 12919.5 23830 11924.4 -29108.3 -7.41535 
647 1 10.712 3.45072 7.39951 6.01234 -172307 -137838 -8630.74 37311.5 1552.72 -19102.6 -7.41398 
648 1 11.3934 2.20738 7.40119 6.01007 -170996 -139870 6314.36 27536.2 7916.25 -26465.7 -7.41487 
649 1 10.6582 0.994835 7.39727 6.01409 -160146 -149937 -2452.7 39266 -4300.01 -20711.6 -7.41421 
748 1 13.6472 8.30867 7.42198 6.00029 -219803 -88464.7 28370.1 24634 17649.7 -36482.6 -7.4169 
749 1 12.9154 7.09394 7.41553 5.9987 -199358 -110646 -22835.6 42986.5 9240.72 -18848.8 -7.41376 
750 1 13.5969 5.85046 7.41622 6.00794 -201943 -108107 21793.1 35691.3 15172.9 -34728.2 -7.41631 
751 1 12.8636 4.63658 7.41049 6.00716 -184322 -126149 -16030.3 51861.4 2455.7 -21491.9 -7.41395 
752 1 13.5452 3.3933 7.41216 6.00534 -183366 -127648 13264.2 41835.8 11827.8 -32382 -7.41569 
753 1 12.8108 2.1801 7.40741 6.01026 -169408 -141225 -7720.75 55990.1 -3829.55 -23787.1 -7.41428 
754 1 13.4928 0.937139 7.41005 6.0001 -164317 -146966 3648.13 43596.3 7871.2 -29647.4 -7.41508 
853 1 15.0644 8.28321 7.4272 5.99227 -213952 -95184.6 -33923.3 54393.1 9500.57 -18882.7 -7.41352 
854 1 15.7461 7.03984 7.42802 6.00082 -215569 -92423.3 32773.2 48167.3 17758.1 -38407.2 -7.41744 
855 1 15.0141 5.82506 7.42209 6.00179 -197754 -112682 -25802.9 66861 2864.47 -22296.9 -7.41379 
856 1 15.696 4.58188 7.42371 6.00049 -196527 -113599 22668.4 57498.8 15363.7 -36608.8 -7.41669 
857 1 14.9626 3.36791 7.41854 6.00705 -180920 -129969 -15554.3 73963.6 -3577.18 -25261.6 -7.41422 
858 1 15.6447 2.12504 7.42099 5.99459 -176389 -134894 10829 61674.6 12160.9 -34174.1 -7.41592 
859 1 14.9102 0.911731 7.41679 6.00338 -163639 -147136 -4098.35 76040.3 -9424.24 -27853.1 -7.41479 
958 1 17.894 8.23204 7.43909 5.99437 -226806 -77546.9 45086.3 59766.2 19504.5 -39855.1 -7.41866 
959 1 17.1633 7.01633 7.43333 5.99683 -210265 -98858 -37423.5 80650.7 2738.01 -21586.1 -7.4135 
960 1 17.8455 5.77333 7.43488 5.9948 -208664 -99207.6 33959.5 72829.9 18240.6 -38681.6 -7.41782 
961 1 17.1132 4.55851 7.42967 6.00501 -193026 -117437 -25709.5 91428.7 -3619.82 -25028.9 -7.41403 
962 1 17.7956 3.31579 7.43189 5.9901 -188766 -121448 20406.9 80201.1 15986 -36745.5 -7.41691 
963 1 17.062 2.10173 7.42746 5.99881 -174841 -136127 -12092.2 96470.9 -9567.47 -28040.9 -7.41471 
964 1 17.745 0.859425 7.43032 5.98413 -167330 -143909 5402.97 82219.3 12922.1 -34144.7 -7.41597 
1063 1 19.3112 8.21034 7.44348 5.99363 -220353 -86409.2 -50040.2 91847 2196.58 -19717.7 -7.41311 
1064 1 19.9938 6.96761 7.44497 5.99014 -217954 -86233.2 46303.3 86307.1 20310.8 -38599.4 -7.41901 
1065 1 19.2627 5.75194 7.43998 6.00218 -203958 -105274 -37508.8 106690 -3903.57 -23352.8 -7.4137 
1066 1 19.9455 4.50944 7.44196 5.98595 -199794 -108227 31720 97486 19108.5 -37212 -7.41799 
1067 1 19.2129 3.29459 7.4376 5.99527 -186080 -124287 -22367.9 115344 -9808.13 -26576.9 -7.41448 
1068 1 19.8961 2.05245 7.44006 5.9797 -179534 -130620 14950.8 102647 16970.8 -35091.2 -7.41691 
1069 1 19.1624 0.8383 7.4365 5.98793 -166802 -143381 -5653.02 117896 -15059.1 -29397.9 -7.4154 
1168 1 22.1411 8.16449 7.45363 5.98675 -222954 -75995.5 58849.3 96704.8 21542.3 -36684 -7.42018 
1169 1 21.411 6.94804 7.44897 5.99813 -211891 -94843.4 -50056.5 118377 -4293.61 -20684.9 -7.41328 
1170 1 22.0943 5.70583 7.45074 5.98134 -207657 -96670.2 43932.3 111945 21414.7 -35786.9 -7.41911 
1171 1 21.3627 4.49023 7.4466 5.99286 -195730 -113271 -34149 131105 -10052.2 -23879 -7.41411 
1172 1 22.0463 3.24831 7.4487 5.9766 -189880 -118151 26171.4 120820 20240.8 -34182.5 -7.41793 
1173 1 21.3134 2.03343 7.44525 5.98405 -177863 -131977 -15915.5 137198 -15308.5 -26716.2 -7.41512 
1174 1 21.9975 0.791919 7.44763 5.9709 -169705 -139934 6618.25 123471 18101.7 -31924.1 -7.4167 
1273 1 23.5583 8.14651 7.45649 5.99575 -215547 -87306.2 -62514.4 125785 -4646.97 -17479.8 -7.41282 
1274 1 24.2422 6.90466 7.45809 5.97817 -211278 -88086.6 56257.6 122555 22891.1 -32865.9 -7.4202 
1275 1 23.5115 5.68837 7.45421 5.9906 -202113 -104471 -46549.8 142606 -10184 -20439.2 -7.41366 
1276 1 24.1955 4.44674 7.456 5.97382 -197056 -107694 38250.1 135527 22665.4 -31735.6 -7.41896 
1277 1 23.4635 3.23119 7.45273 5.98141 -186676 -121698 -27612.6 152651 -15410 -23106.7 -7.4147 
1278 1 24.1479 1.98987 7.45469 5.96822 -180117 -127689 17753.4 141787 21404.9 -29995.2 -7.41763 
1279 1 23.4148 0.774959 7.45215 5.9738 -169202 -139052 -6804.09 155790 -19852.6 -25479 -7.41591 
1378 1 26.3893 8.1055 7.46408 5.97649 -210152 -83221.7 68089.7 128869 23590.7 -28858.8 -7.42123 
1379 1 25.6594 6.88866 7.46043 5.98814 -204256 -98678.1 -58812.6 149348 -10111.4 -16680.2 -7.41317 
1380 1 26.344 5.64736 7.46198 5.97098 -200015 -100322 50458.2 145835 24267.2 -28131 -7.41998 
1381 1 25.6128 4.43124 7.45887 5.97991 -192257 -113996 -39903.5 163450 -15274.3 -19038.7 -7.41421 
1382 1 26.2976 3.19016 7.4605 5.96651 -187085 -118016 29773.4 156057 23846.1 -26874.1 -7.41859 
1383 1 25.5652 1.97466 7.45807 5.97128 -178135 -129412 -18427.1 170476 -19809.7 -21167.5 -7.41544 
1384 1 26.2504 0.733905 7.45975 5.96211 -171254 -135943 7130.62 159497 22340.9 -25130.1 -7.41716 
1483 1 27.8066 8.09065 7.46541 5.987 -201764 -96519.8 -70402.2 151227 -9778.19 -12903.9 -7.41269 
1485 1 27.7613 5.63315 7.46379 5.97935 -193570 -109460 -52102.3 169257 -14836.7 -14867.1 -7.41368 
1487 1 27.7148 3.17638 7.46281 5.96992 -183318 -122391 -30684.5 180308 -19467.4 -16658.9 -7.41489 
1489 1 27.6677 0.720324 7.46252 5.96301 -170651 -135224 -7277.32 184048 -23213.2 -18283.4 -7.41627 
1484 1 28.4919 6.84973 7.46678 5.96966 -197972 -96603.4 62243.7 151447 25117.9 -23702.9 -7.42094 
1486 1 28.4465 4.39237 7.46516 5.96437 -189600 -111460 41998.3 165737 25484.5 -22875.8 -7.41954 
1488 1 28.4003 1.93581 7.46416 5.95993 -178459 -126656 19160.1 173046 24739.5 -21625.3 -7.41805 
1588 1 30.6393 8.05337 7.47058 5.96985 -191370 -96915 73222.6 152288 25302.8 -18698.1 -7.42182 
1589 1 29.9091 6.83648 7.46767 5.97893 -190094 -108638 -63721.8 169998 -14062.3 -10823.5 -7.41315 
1590 1 30.595 5.59602 7.46884 5.963 -187727 -108641 53905 170461 26408.8 -18247.2 -7.42044 
1591 1 29.8638 4.37968 7.46651 5.96954 -184125 -118765 -42948.9 185013 -18769.7 -12224.4 -7.41431 
1592 1 30.5497 3.13933 7.46761 5.95817 -181347 -120812 31489.2 181766 26370.4 -17444.9 -7.41894 
1593 1 29.8176 1.92345 7.46596 5.96193 -176121 -128985 -19551.8 192791 -22755.1 -13504.7 -7.41567 
1594 1 30.5037 0.683288 7.46697 5.95546 -171661 -132996 7091.91 186071 25177.3 -16326.2 -7.41739 
1693 1 32.0566 8.04072 7.47068 5.97913 -182187 -111518 -74429.3 165883 -12940.7 -7045.19 -7.41265 
1694 1 32.7432 6.80064 7.47168 5.96262 -180575 -109672 65110.5 170198 26711 -13157.4 -7.42129 
1695 1 32.0123 5.58407 7.46934 5.9695 -180623 -118885 -54753.2 184642 -17681.8 -8026.1 -7.41373 
1696 1 32.6987 4.34398 7.47024 5.95709 -179273 -118683 43617.5 185534 27332.7 -12758.8 -7.41981 
1697 1 31.9669 3.12783 7.46855 5.96185 -177138 -126087 -31951.5 196459 -21908.6 -8924.62 -7.41504 
1698 1 32.6533 1.88782 7.46933 5.95438 -174852 -127736 19535.6 193830 26793.2 -12090.3 -7.41823 
1699 1 31.921 0.671991 7.46836 5.95632 -170915 -132932 -7165.38 200862 -25184.1 -9750.5 -7.41651 
1798 1 34.8912 8.00571 7.47381 5.96309 -169049 -114642 75322.5 165186 26465.8 -7715.94 -7.42206 
1799 1 34.1606 6.78906 7.47145 5.96956 -172070 -122741 -65752.1 179332 -16186 -4156.06 -7.41318 
1800 1 34.8475 5.54927 7.47218 5.95695 -172611 -120443 55154.6 184204 27717.4 -7676.83 -7.42062 
1801 1 34.116 4.33299 7.47041 5.96203 -173315 -127002 -44020.2 194927 -20627.8 -4649.99 -7.4144 
1802 1 34.8026 3.09316 7.471 5.95358 -173329 -126219 31901.1 196526 27784.8 -7419.99 -7.41906 
1803 1 34.0706 1.87716 7.46993 5.95656 -172151 -130713 -19691.7 203413 -24280.1 -5097.06 -7.41582 
1804 1 34.7572 0.637367 7.47037 5.95296 -170801 -131841 6701.33 201624 26660.3 -6971.37 -7.41745 
1903 1 36.3087 7.99416 7.4729 5.97018 -159463 -130533 -75655 169292 -14281.9 -671.571 -7.41267 
1904 1 36.9963 6.7547 7.47348 5.95774 -161051 -126078 65766.5 177997 27600.4 -2271.56 -7.42137 
1905 1 36.2648 5.53843 7.47164 5.96225 -165092 -131728 -55385.9 188490 -18881.3 -740.718 -7.41379 
1906 1 36.9519 4.29882 7.47206 5.95375 -166887 -128675 43783.4 194132 28242.1 -2385.51 -7.41985 
1907 1 36.22 3.08277 7.47087 5.95681 -168819 -132479 -32016.3 200862 -22903.9 -786.232 -7.41513 
1908 1 36.9068 1.84309 7.47113 5.95249 -169871 -131154 19241.1 203280 27684.8 -2340.82 -7.41825 
1909 1 36.1745 0.627176 7.47068 5.95376 -169945 -132871 -6703.58 206062 -25924.4 -825.528 -7.41663 
2007 1 38.457 9.19887 7.47373 5.97154 -142806 -142297 -84183.3 154846 -11978 2374.22 -7.41223 
2008 1 39.1452 7.95978 7.47415 5.95944 -145413 -135695 75127.2 167112 27038.2 3394.92 -7.42202 
2009 1 38.4137 6.74365 7.47228 5.96327 -152258 -140400 -65712.4 177239 -16650.5 2757.44 -7.41323 
2010 1 39.1013 5.50429 7.47252 5.95484 -155800 -134984 54810.8 186787 28237.6 2961.2 -7.42057 
2011 1 38.3693 4.28834 7.47123 5.95738 -160625 -137967 -43743.3 193273 -21005.3 3137.95 -7.41446 
2012 1 39.0564 3.04879 7.47131 5.95273 -163869 -134216 31412.1 199793 28210.3 2639.88 -7.41901 
2013 1 38.3241 1.83293 7.47072 5.9541 -167028 -135312 -19205.4 202425 -24517.1 3509.66 -7.41589 
2014 1 39.0109 0.593265 7.47063 5.95282 -168917 -133320 6103.9 205798 26965 2414.3 -7.41741 
2112 1 41.2945 9.16403 7.47415 5.96207 -126618 -149286 82870.3 151911 26085 9241.28 -7.42255 
2113 1 40.5629 7.94816 7.4723 5.96511 -135742 -153023 -74644.3 161505 -13929.8 5787.02 -7.41273 
2114 1 41.251 6.7091 7.47235 5.95642 -140789 -145177 64588.1 174711 27831.6 8557.99 -7.42121 
2115 1 40.5188 5.49337 7.47101 5.95881 -148163 -147491 -54481.5 180948 -18544.8 6629.42 -7.41383 
2116 1 41.2063 4.25399 7.47088 5.95322 -153588 -141274 42798.3 191369 28309 7922.73 -7.41971 
2117 1 40.4738 3.03832 7.47019 5.95495 -159255 -141630 -31217.8 193761 -22534.4 7441.55 -7.41517 
2118 1 41.1608 1.79871 7.4699 5.95273 -163831 -137124 18457.5 201242 27550.2 7344.65 -7.41814 
2119 1 40.4282 0.582977 7.46994 5.95305 -167900 -135248 -6043.76 199573 -25479.5 8198.46 -7.41667 
2217 1 42.7123 9.1515 7.47167 5.96782 -116452 -169394 -81786.7 141894 -10722.5 8261.59 -7.41231 
2218 1 43.4011 7.91276 7.47149 5.95856 -122598 -159283 72665.7 158277 27081.6 14301.3 -7.42171 
2219 1 42.6686 6.69737 7.47015 5.9611 -132175 -160875 -63803.9 164076 -15495.6 9616.5 -7.41328 
2220 1 43.3565 5.45821 7.46979 5.95474 -139191 -151950 52937 178215 28045 13429.5 -7.42032 
2221 1 42.6238 4.24284 7.46904 5.95652 -147391 -151674 -42296.7 180342 -19913.8 10910.7 -7.41449 
2222 1 43.3109 3.00331 7.46851 5.95362 -153986 -144637 30103.4 191697 27736 12553.8 -7.4188 
2223 1 42.5781 1.78786 7.46847 5.95396 -160941 -142242 -18227.1 189903 -23447.6 12131.9 -7.41589 
2224 1 43.2648 0.548056 7.46779 5.95529 -166011 -137069 5378.61 198309 26181.7 11669 -7.41724 
2322 1 45.5518 9.11487 7.46987 5.96189 -102509 -176493 78539.7 138191 26062.5 20013.1 -7.42205 
2323 1 44.8189 7.8999 7.46859 5.96435 -113337 -177544 -71226.5 143359 -11848.7 11990.3 -7.41281 
2324 1 45.5073 6.66098 7.46793 5.95744 -122012 -166132 61297.1 160650 27485.1 19018.8 -7.42079 
2325 1 44.7741 5.44602 7.46719 5.95928 -131896 -165497 -51938.4 162484 -16607.6 13820.8 -7.41387 
2326 1 45.4616 4.20663 7.46637 5.95563 -140618 -155671 40513.6 177482 27591.9 17929.4 -7.41937 
2327 1 44.7284 2.99155 7.46628 5.956 -149467 -152829 -29539 175480 -20708.5 15550 -7.41516 
2328 1 45.4151 1.75176 7.46533 5.95658 -157219 -145068 17177.1 187715 26424 16767.8 -7.41787 
2329 1 44.6821 0.536468 7.46598 5.95547 -164904 -139846 -5246.08 181759 -23741 17138.4 -7.4166 
2427 1 46.9697 9.10056 7.46629 5.96861 -93074.8 -197006 -76219.8 119465 -7613.09 13600.3 -7.41244 
2428 1 47.6587 7.86192 7.46527 5.96144 -103335 -182955 67290.8 139453 26714.7 24451.6 -7.42108 
2429 1 46.925 6.64744 7.46456 5.96319 -113992 -182196 -59573.7 140848 -12592.5 16031.8 -7.41335 
2430 1 47.6128 5.40821 7.46337 5.95889 -124733 -169735 49073 158870 27194.5 23273 -7.4198 
2431 1 46.8791 4.19361 7.4633 5.95926 -134878 -166756 -39399.2 156661 -17196.1 18319.3 -7.41448 
2432 1 47.566 2.95386 7.46199 5.95907 -144773 -156240 27759.8 172359 26361.3 21927.1 -7.41839 
2433 1 46.8325 1.73903 7.46263 5.95792 -154467 -150833 -16678.3 166359 -20900.5 20439.7 -7.41581 
2434 1 47.5186 0.498852 7.46125 5.96202 -162618 -142653 4572.85 179271 24261.5 20426.7 -7.41694 
2532 1 49.8106 9.06069 7.46181 5.96689 -84715.9 -201640 70335.2 115487 25847.5 29381.4 -7.42116 
2533 1 49.0765 7.84672 7.46115 5.9666 -95035.4 -200968 -64600.1 116206 -7880.17 17366.6 -7.41294 
2534 1 49.7647 6.60768 7.45949 5.96358 -107448 -185727 55124.1 136707 26637.7 28270.6 -7.42003 
2535 1 49.0305 5.39362 7.45944 5.96248 -118128 -183022 -47158.9 134259 -12880.3 20260.2 -7.4139 
2536 1 49.7175 4.15395 7.45768 5.96291 -129989 -169791 36438.5 152780 26076.7 26872.2 -7.41876 
2537 1 48.9835 2.93965 7.45835 5.96087 -140679 -164625 -26658 146777 -17219.5 22948.6 -7.41508 
2538 1 49.6696 1.69944 7.45654 5.96497 -151192 -153829 15256.5 162870 24221.8 25221.6 -7.4174 
2539 1 48.9359 0.484792 7.45799 5.96179 -161568 -145907 -4306.02 153198 -20514 25375.3 -7.4164 
2637 1 51.2287 9.04358 7.45703 5.97134 -76502.6 -220515 -66462.5 89770.9 -2526.21 17646.1 -7.41268 
2638 1 51.9173 7.80477 7.4548 5.96979 -91113.8 -202624 58055.8 111972 26037.2 32503.8 -7.42004 
2639 1 51.1825 6.59124 7.45474 5.96664 -100508 -200660 -52162.9 109171 -7786.31 21168.9 -7.41345 
2640 1 51.8698 5.35168 7.4524 5.96825 -114767 -184705 42498.6 129781 25670.4 31205.8 -7.41893 
2641 1 51.1352 4.13795 7.45308 5.96434 -125017 -180197 -34469.2 123751 -12675.3 24439.6 -7.41444 
2642 1 51.8213 2.89774 7.45074 5.96933 -137782 -166742 23998.9 142338 23982.5 29542.4 -7.41771 
2643 1 51.087 1.68369 7.45223 5.96459 -148797 -159465 -14341.4 132954 -16703.2 27421.4 -7.41561 
2644 1 51.7722 0.442909 7.44995 5.9731 -159092 -148777 3711.31 149077 21051.5 27544.3 -7.41645 
2742 1 54.0703 8.99928 7.44954 5.97751 -77191.2 -218681 57424.5 85934.1 25504.2 35525.6 -7.41981 
2743 1 53.3352 7.78625 7.44936 5.97221 -84181 -218080 -53865.1 82665.5 -2008.94 20874.6 -7.41316 
2744 1 54.0227 6.54682 7.44634 5.97512 -100569 -199406 45334.4 104596 25250.8 34454.8 -7.41887 
2745 1 53.2876 5.33365 7.44694 5.96925 -109317 -196212 -39435.5 98580.2 -7322.99 24693 -7.41394 
2746 1 53.9738 4.09346 7.44395 5.97521 -124141 -180158 30055.3 118810 23643.9 32917.9 -7.41781 
2747 1 53.2389 2.88002 7.44542 5.96878 -134435 -174099 -22180.6 109792 -12021.7 28191.8 -7.4149 
2748 1 53.924 1.63917 7.44256 5.97782 -146901 -161054 12498.5 127925 20793 30957.7 -7.41669 
2749 1 53.1896 0.425305 7.44493 5.97082 -158241 -151774 -3221.91 115798 -15780.2 31308.8 -7.41601 
2847 1 55.4884 8.97858 7.44366 5.97923 -70502.2 -233547 -51942.4 56199.7 4276.56 19319.1 -7.41306 
2849 1 55.4406 6.5266 7.44023 5.97565 -95066.7 -211178 -41065.1 72638.9 -1316.39 23577.1 -7.4136 
2851 1 55.3914 4.07357 7.43778 5.97442 -120262 -188331 -27161 85037.4 -6578.1 27482.4 -7.41434 
2853 1 55.3415 1.61946 7.43654 5.97564 -145071 -165480 -11118.7 92990.1 -11087 31010.3 -7.41524 
2848 1 56.1762 7.73928 7.43989 5.98342 -89478.8 -212311 44599.6 78617.3 24902.8 36195.6 -7.41859 
2850 1 56.1269 5.28645 7.4365 5.98254 -112328 -192588 32870.8 93667.2 23303.8 34869.7 -7.4177 
2852 1 56.0766 2.83268 7.43426 5.98398 -134810 -172994 18578.9 104285 20459.7 33066.6 -7.41674 
2854 1 56.0256 0.377933 7.43335 5.98775 -156178 -153669 2726.6 110089 16506.1 30832.5 -7.41577 
2952 1 58.33 8.92913 7.43358 5.99283 -83071.7 -221872 40295.9 53271.6 24639.6 36211.3 -7.4181 
2953 1 57.5941 7.71683 7.43344 5.98341 -84084.3 -223327 -39172.7 47394 5096.34 21142.1 -7.41346 
2954 1 58.2806 6.47672 7.42895 5.99103 -103903 -202331 32241.7 68465 23018.1 35078.2 -7.41738 
2955 1 57.5447 5.26431 7.42981 5.9815 -108236 -200685 -28885.9 60398.1 -594.239 25260.7 -7.41395 
2956 1 58.2298 4.02339 7.4256 5.99138 -124981 -183180 21497.8 79895.7 20133.6 33468.2 -7.41659 
2957 1 57.4941 2.81073 7.42754 5.9819 -132393 -178105 -16211.8 69545.8 -5754.35 29005.1 -7.41461 
2958 1 58.1781 1.56912 7.42377 5.99379 -145529 -164513 8871.71 87162.1 16194.3 31445.9 -7.41578 
2959 1 57.443 0.356074 7.4268 5.98451 -155693 -155638 -2105.6 74457.6 -10142.3 32366.7 -7.4154 
3057 1 59.748 8.90453 7.4272 5.99226 -77696.3 -231322 -33923.3 24134 11602.4 17669.3 -7.41352 
3058 1 60.4346 7.66446 7.42198 6.00028 -100018 -208192 28370 44598.7 22769.9 33526.6 -7.4169 
3059 1 59.6984 6.45238 7.42216 5.98973 -99705.4 -209703 -27329.8 37332.3 5614.73 21751.3 -7.41376 
3060 1 60.3835 5.21143 7.41728 5.99959 -118698 -190222 21227.2 56366.7 19841.6 32041.1 -7.41627 
3061 1 59.6474 3.99923 7.4186 5.98935 -122174 -188132 -18220.2 47080.4 -71.9085 25447.7 -7.41417 
3062 1 60.3314 2.75754 7.41429 6.00076 -137076 -172841 12020.1 64437.7 15913.4 30219.4 -7.41561 
3063 1 59.5956 1.54506 7.4168 5.99101 -144300 -166876 -7378.15 53200.4 -5121.22 28827.3 -7.41472 
3064 1 60.2786 0.302773 7.41319 6.00372 -154581 -155946 1573.18 68672.4 11162.2 28135.5 -7.41498 
3162 1 62.5886 8.85002 7.41622 6.00794 -100687 -209349 21793 22811.7 22488.9 30504.4 -7.41632 
3163 1 61.8524 7.63811 7.41553 5.9987 -95605.6 -214495 -22835.6 16854.1 11703.4 17427 -7.41376 
3164 1 62.5375 6.39712 7.41008 6.00811 -116639 -193271 18149.6 34956 19555.6 29019.9 -7.41584 
3165 1 61.8012 5.18521 7.41052 5.99759 -115535 -194602 -17270.3 27054.4 5603.66 20804.4 -7.41392 
3166 1 62.4851 3.94346 7.40576 6.00815 -132159 -177843 12318.1 43514.4 15655.5 27298 -7.41532 
3167 1 61.7489 2.7314 7.40743 5.99839 -135351 -175319 -9772.3 33932.4 24.4808 23896.5 -7.41424 
3168 1 62.4318 1.48903 7.4035 6.00975 -147129 -163252 5003.74 48667.2 11077.8 25463.6 -7.41483 
3169 1 61.696 0.276682 7.40642 6.0009 -154455 -156616 -1135.02 37492.8 -4893.42 26837.9 -7.41468 
3267 1 64.0065 8.82196 7.41049 6.00716 -95744.4 -214710 -16030.3 -773.073 17384.8 12872.6 -7.41395 
3268 1 64.6915 7.58092 7.4046 6.01462 -118565 -192069 12919.4 16110.4 19246.5 24880.9 -7.41535 
3269 1 63.9553 6.36912 7.404 6.00613 -112968 -197182 -13839.2 10139.7 10945.3 15742.9 -7.41387 
3270 1 64.639 5.12731 7.3989 6.01543 -131116 -179152 10272.4 25370.5 15391.1 23159.7 -7.41496 
3271 1 63.9027 3.9155 7.39952 6.00608 -129854 -180189 -9544.04 17671.5 4930.63 18305 -7.41396 
3272 1 64.5854 2.67306 7.39538 6.01582 -142914 -167102 5942.47 31183.5 11002.1 21459.3 -7.41459 
3273 1 63.8493 1.4611 7.39727 6.00758 -146305 -164085 -3851.6 22084.5 -403.97 20794.4 -7.41419 
3274 1 64.5313 0.218191 7.39416 6.01579 -154070 -155812 622.844 33966.5 6196.85 19896.5 -7.41426 
3372 1 66.8453 8.76332 7.40119 6.01007 -123743 -186978 6314.48 -284.285 18961.7 20088.9 -7.41487 
3373 1 66.1093 7.55149 7.39951 6.01235 -114134 -195976 -8630.79 -3757.45 15767 10896.1 -7.41398 
3374 1 66.793 6.30959 7.39417 6.01884 -133348 -176916 6571.08 10093.5 15152.3 18382.4 -7.4146 
3375 1 66.0566 5.09788 7.39366 6.0134 -128080 -181681 -7264.94 4784.56 9338.16 12845.4 -7.41386 
3376 1 66.7393 3.85537 7.3894 6.02126 -142094 -167701 4951.8 16834.2 10905.8 16762.5 -7.41432 
3377 1 66.003 2.64363 7.39013 6.01415 -141373 -168300 -4262.2 10026.1 3656.76 14703.6 -7.4139 
3378 1 66.6849 1.40067 7.38699 6.02018 -150204 -159321 2081.76 20442.6 6495.18 15407.6 -7.41409 
3379 1 65.9487 0.188794 7.38897 6.01588 -154101 -155655 -347.128 12357.2 -1274.62 16753.5 -7.41406 
3477 1 68.263 8.73283 7.39727 6.0141 -118422 -191590 -2452.6 -15223.5 20086.7 6631.97 -7.41421 
3478 1 68.9467 7.49085 7.39177 6.01507 -138475 -171671 1953.52 -2773.29 15089.5 13354.1 -7.41428 
3479 1 68.2106 6.27907 7.39013 6.01728 -129347 -180164 -3673.9 -5225 13207.1 8067.54 -7.41391 
3480 1 68.8932 5.03649 7.38579 6.02228 -144276 -165346 2700.1 5345.74 10893.5 11914.1 -7.41408 
3481 1 68.1569 3.82483 7.38534 6.01921 -139602 -169461 -3011.13 1164.96 7126.25 9328.48 -7.41378 
3482 1 68.8388 2.58181 7.38223 6.02438 -149407 -159768 1946.62 9956.54 6731.86 10762.4 -7.41391 
3483 1 68.1024 1.37013 7.38299 6.0209 -149369 -159705 -1162.93 4459.38 2016.78 10738.1 -7.41379 
3484 1 68.7838 0.126817 7.38104 6.0233 -154078 -154789 317.397 11749.7 2561.18 10003.2 -7.41379 
3582 1 71.1 8.67157 7.39174 6.01257 -146081 -163785 -2838.18 -14011 15412.4 8119.11 -7.41403 
3583 1 70.3643 7.45959 7.38897 6.01838 -133451 -176149 444.9 -13139.3 16732.4 4100.78 -7.41407 
3584 1 71.0469 6.21694 7.38458 6.01987 -148823 -160610 -124.1 -4061.03 11209.1 7089.17 -7.4139 
3585 1 70.3108 5.00521 7.38299 6.02155 -140744 -168287 -855.189 -5170.25 10123.5 4973.83 -7.4138 
3586 1 70.9926 3.76214 7.37988 6.02534 -151087 -157805 854.908 2004.4 7086.48 6301.64 -7.41377 
3587 1 70.2562 2.55051 7.37948 6.02416 -147614 -161175 -681.871 -631.425 4687.19 5868.08 -7.41368 
3588 1 70.9376 1.30717 7.37758 6.02698 -153162 -155504 679.567 4931.27 3240.69 5849.71 -7.41368 
3589 1 70.2013 0.0955306 7.37834 6.02561 -154107 -154550 230.831 976.041 261.043 7049.59 -7.41369 
3669 1 72.5176 8.63987 7.3902 6.01929 -140115 -169664 4334.64 -19767.7 20198.3 742.188 -7.41432 
3670 1 73.2002 7.39715 7.38575 6.01848 -155812 -153530 -2820.65 -12181.1 12105.3 2066.29 -7.41381 
3671 1 72.4645 6.18522 7.38301 6.02267 -144252 -165025 1451.3 -9828.43 12987.5 1449.82 -7.41391 
3672 1 73.1463 4.9421 7.37987 6.02366 -155114 -153746 -530.987 -4229.08 7883.18 1881.96 -7.41371 
3673 1 72.4101 3.7304 7.37834 6.02545 -148232 -160494 336.151 -3763.24 6985.54 2084.23 -7.41369 
3674 1 73.0915 2.48703 7.37646 6.0276 -154584 -153976 346.485 69.9857 4039.23 1928.06 -7.41362 
3675 1 72.3551 1.27543 7.37608 6.02766 -152187 -156282 264.09 -955.747 2308.6 2824.47 -7.41361 
3676 1 73.0362 0.0319285 7.37535 6.02905 -154142 -154183 418.137 1451.86 411.632 2165.16 -7.41359 
109 1 1.08846 18.4011 7.43285 5.99197 -180695 -127889 -39544.4 -88074 20464.9 -3572.38 -7.41338 
110 1 0.358866 17.1859 7.42778 5.9985 -149604 -157595 34073.2 -78139.4 42351.7 -3373.31 -7.41749 
111 1 1.04547 15.945 7.42148 5.99737 -178189 -131720 -27722 -69978.8 21073.6 -3776.9 -7.41368 
112 1 0.314301 14.7306 7.41591 6.00596 -149724 -159773 22925.1 -59585.2 37888.3 -3231.8 -7.41635 
113 1 0.999399 13.489 7.40977 6.00412 -174463 -135783 -17679.7 -51038.1 20082.6 -3895.62 -7.41385 
114 1 0.266718 12.2754 7.40424 6.01332 -149643 -160659 13849.8 -41336.9 31409 -2816.79 -7.41537 
115 1 0.950461 11.0332 7.39872 6.011 -170107 -139882 -9963.02 -33575.6 17461.9 -3841.88 -7.41389 
116 1 0.216455 9.82034 7.39378 6.01976 -149759 -160396 7284.77 -25507.2 23754.8 -2249.57 -7.41461 
215 1 2.50609 18.3701 7.43397 5.99784 -173936 -132965 37568.3 -85681.3 43282.7 -3523.22 -7.41799 
216 1 3.19257 17.1289 7.42829 6.00155 -201631 -108467 -29873.8 -79590.2 20364.6 -10981.6 -7.41376 
217 1 2.46307 15.9136 7.42253 6.00455 -170620 -138933 25934.5 -67091.7 39982 -4412.8 -7.41682 
218 1 3.14816 14.6718 7.41687 6.00591 -194960 -115727 -19260.6 -60410.8 20362.8 -11069.8 -7.41397 
219 1 2.41697 13.4574 7.41076 6.01017 -166709 -143915 16086.9 -47885.9 34447.4 -4854.32 -7.41578 
220 1 3.10076 12.215 7.40553 6.01047 -187113 -123273 -10855.6 -41713.9 18716.2 -10729.8 -7.41406 
221 1 2.368 11.0015 7.39966 6.01476 -162816 -147784 8632.43 -30273.6 27259.3 -4876.25 -7.41493 
222 1 3.05071 9.75861 7.39527 6.01483 -179018 -130833 -4941.91 -25611.4 15595.6 -9923.34 -7.41402 
320 1 5.33773 18.3145 7.43574 6.00213 -226336 -83896.7 -28759.4 -86856.4 18871.5 -17617.8 -7.41405 
321 1 4.61007 17.0981 7.43011 5.99552 -194063 -115519 25883.5 -72925.8 40869.4 -4432.91 -7.41715 
322 1 5.29511 15.8561 7.42514 6.00431 -217571 -93329.4 -17917.1 -67843.8 19959.7 -18016.4 -7.41431 
323 1 4.56565 14.6407 7.4188 6.00028 -186974 -123917 15695.8 -53007 36567.3 -5915.92 -7.4161 
324 1 5.24948 13.3982 7.41405 6.00711 -207027 -103725 -9179.9 -48299.5 19528.6 -17782.5 -7.41442 
325 1 4.51824 12.1837 7.40754 6.00509 -179446 -131659 7778.27 -33858.3 30297.8 -6844.55 -7.41521 
326 1 5.20103 10.9408 7.40341 6.01111 -195795 -114576 -3003.86 -30481.5 17481.4 -16863.6 -7.41439 
327 1 4.46818 9.72721 7.39731 6.01046 -172223 -138309 2469.37 -17622.7 22808.1 -7249.96 -7.41452 
425 1 6.75512 18.2846 7.43798 5.98529 -218741 -90888.4 22548.4 -77114.6 40407.9 -3201.4 -7.41728 
426 1 7.44011 17.0423 7.43384 5.99381 -240637 -70056.8 -13474.8 -73250.1 18636.6 -24109.6 -7.41485 
427 1 6.71251 15.8258 7.42767 5.98938 -209410 -101692 12309.6 -56675.4 37421.4 -5734.15 -7.41627 
428 1 7.39638 14.5831 7.4236 5.99827 -228576 -82242.8 -4636.56 -53065.4 19501.3 -24331.5 -7.415 
429 1 6.66689 13.3677 7.41686 5.99466 -199011 -112423 4262.12 -36159.3 32367.9 -7757.57 -7.41538 
430 1 7.34975 12.1246 7.41319 6.00372 -215122 -95485.7 1573.09 -33727.6 18784.9 -23734.6 -7.41498 
431 1 6.61843 10.9101 7.40642 6.0009 -188524 -122505 -1135.06 -17839.6 25689 -9181.15 -7.41468 
432 1 7.30049 9.66676 7.4035 6.00974 -201282 -108953 5003.83 -17314.3 16513.5 -22325.2 -7.41483 
531 1 8.85741 17.0131 7.4366 5.97926 -232289 -78641 5886.39 -59130.7 36867.8 -4317.29 -7.41624 
533 1 8.8137 14.5536 7.4268 5.98451 -220188 -91222.2 -2105.78 -37324 33101.3 -7400.11 -7.4154 
535 1 8.76709 12.0949 7.4168 5.99102 -207357 -103820 -7378.29 -16818 27525.8 -9978.32 -7.41472 
537 1 8.71784 9.63695 7.40743 5.99838 -194678 -115911 -9772.17 304.049 20682.9 -11969.3 -7.41424 
530 1 9.58314 18.2307 7.44229 5.98295 -262232 -47587.7 -6101.88 -76812.6 16374.3 -28851.6 -7.41558 
532 1 9.54135 15.7702 7.43335 5.98775 -249734 -60338.7 2726.31 -56122.1 18448.4 -29711.4 -7.41577 
534 1 9.49668 13.3105 7.42377 5.99378 -235186 -74739.6 8871.74 -35319.2 19135.9 -29747.4 -7.41577 
536 1 9.44926 10.8515 7.41429 6.00076 -219693 -90237.2 12020 -16676 18214.1 -28891 -7.41561 
635 1 11.0004 18.2026 7.44493 5.97082 -253756 -56367.2 -3222.05 -60725.2 35004.2 -1988.54 -7.41601 
636 1 11.6844 16.9596 7.44256 5.97781 -268269 -39681.1 12498.4 -57793.4 16413.7 -33486.2 -7.41669 
637 1 10.9586 15.7419 7.43654 5.97564 -241015 -69633 -11118.9 -37680.2 32399 -5903.56 -7.41524 