(written by TR)

7352	atoms
2	atom types
0	74.4536703	xlo xhi
0	128.95754	ylo yhi
0	18.4	zlo zhi


Masses

1	12
2	12

Atoms

1 1 1 0 0.68863573 127.71801506 7.50000000 0 0 0
2 1 1 0 0.64812775 125.26234914 7.50000000 0 0 0
3 1 1 0 0.60761976 122.80668322 7.50000000 0 0 0
4 1 1 0 0.56711178 120.35101730 7.50000000 0 0 0
5 1 1 0 0.52660380 117.89535138 7.50000000 0 0 0
6 1 1 0 0.48609581 115.43968546 7.50000000 0 0 0
7 1 1 0 0.44558783 112.98401955 7.50000000 0 0 0
8 1 1 0 0.40507985 110.52835363 7.50000000 0 0 0
9 1 1 0 0.36457187 108.07268771 7.50000000 0 0 0
10 1 1 0 0.32406388 105.61702179 7.50000000 0 0 0
11 1 1 0 0.28355590 103.16135587 7.50000000 0 0 0
12 1 1 0 0.24304792 100.70568995 7.50000000 0 0 0
13 1 1 0 0.20253993 98.25002404 7.50000000 0 0 0
14 1 1 0 0.16203195 95.79435812 7.50000000 0 0 0
15 1 1 0 0.12152397 93.33869220 7.50000000 0 0 0
16 1 1 0 0.08101599 90.88302628 7.50000000 0 0 0
17 1 1 0 0.04050800 88.42736036 7.50000000 0 0 0
18 1 1 0 0.00000002 85.97169444 7.50000000 0 0 0
19 1 1 0 2.83555879 128.91076707 7.50000000 0 0 0
20 1 1 0 2.10641511 127.69462776 7.50000000 0 0 0
21 1 1 0 2.79505081 126.45510116 7.50000000 0 0 0
22 1 1 0 2.06590712 125.23896184 7.50000000 0 0 0
23 1 1 0 2.75454282 123.99943524 7.50000000 0 0 0
24 1 1 0 2.02539914 122.78329593 7.50000000 0 0 0
25 1 1 0 2.71403484 121.54376932 7.50000000 0 0 0
26 1 1 0 1.98489116 120.32763001 7.50000000 0 0 0
27 1 1 0 2.67352686 119.08810340 7.50000000 0 0 0
28 1 1 0 1.94438318 117.87196409 7.50000000 0 0 0
29 1 1 0 2.63301887 116.63243748 7.50000000 0 0 0
30 1 1 0 1.90387519 115.41629817 7.50000000 0 0 0
31 1 1 0 2.59251089 114.17677156 7.50000000 0 0 0
32 1 1 0 1.86336721 112.96063225 7.50000000 0 0 0
33 1 1 0 2.55200291 111.72110564 7.50000000 0 0 0
34 1 1 0 1.82285923 110.50496633 7.50000000 0 0 0
35 1 1 0 2.51149493 109.26543973 7.50000000 0 0 0
36 1 1 0 1.78235124 108.04930041 7.50000000 0 0 0
37 1 1 0 2.47098694 106.80977381 7.50000000 0 0 0
38 1 1 0 1.74184326 105.59363450 7.50000000 0 0 0
39 1 1 0 2.43047896 104.35410789 7.50000000 0 0 0
40 1 1 0 1.70133528 103.13796858 7.50000000 0 0 0
41 1 1 0 2.38997098 101.89844197 7.50000000 0 0 0
42 1 1 0 1.66082730 100.68230266 7.50000000 0 0 0
43 1 1 0 2.34946299 99.44277605 7.50000000 0 0 0
44 1 1 0 1.62031931 98.22663674 7.50000000 0 0 0
45 1 1 0 2.30895501 96.98711013 7.50000000 0 0 0
46 1 1 0 1.57981133 95.77097082 7.50000000 0 0 0
47 1 1 0 2.26844703 94.53144422 7.50000000 0 0 0
48 1 1 0 1.53930335 93.31530490 7.50000000 0 0 0
49 1 1 0 2.22793905 92.07577830 7.50000000 0 0 0
50 1 1 0 1.49879536 90.85963898 7.50000000 0 0 0
51 1 1 0 2.18743106 89.62011238 7.50000000 0 0 0
52 1 1 0 1.45828738 88.40397307 7.50000000 0 0 0
53 1 1 0 2.14692308 87.16444646 7.50000000 0 0 0
54 1 1 0 1.41777940 85.94830715 7.50000000 0 0 0
55 1 1 0 2.10641510 84.70878054 7.50000000 0 0 0
56 1 1 0 1.37727142 83.49264123 7.50000000 0 0 0
57 1 1 0 2.06590711 82.25311462 7.50000000 0 0 0
58 1 1 0 1.33676343 81.03697531 7.50000000 0 0 0
59 1 1 0 2.02539913 79.79744870 7.50000000 0 0 0
60 1 1 0 1.29625545 78.58130939 7.50000000 0 0 0
61 1 1 0 1.98489115 77.34178279 7.50000000 0 0 0
62 1 1 0 1.25574747 76.12564347 7.50000000 0 0 0
63 1 1 0 1.94438317 74.88611687 7.50000000 0 0 0
64 1 1 0 1.21523948 73.66997756 7.50000000 0 0 0
65 1 1 0 1.90387518 72.43045095 7.50000000 0 0 0
66 1 1 0 1.17473150 71.21431164 7.50000000 0 0 0
67 1 1 0 1.86336720 69.97478503 7.50000000 0 0 0
68 1 1 0 1.13422352 68.75864572 7.50000000 0 0 0
69 1 1 0 1.82285922 67.51911911 7.50000000 0 0 0
70 1 1 0 1.09371554 66.30297980 7.50000000 0 0 0
71 1 1 0 1.78235123 65.06345319 7.50000000 0 0 0
72 1 1 0 1.05320755 63.84731388 7.50000000 0 0 0
73 1 1 0 1.74184325 62.60778727 7.50000000 0 0 0
74 1 1 0 1.01269957 61.39164796 7.50000000 0 0 0
75 1 1 0 1.70133527 60.15212136 7.50000000 0 0 0
76 1 1 0 0.97219159 58.93598204 7.50000000 0 0 0
77 1 1 0 1.66082729 57.69645544 7.50000000 0 0 0
78 1 1 0 0.93168361 56.48031613 7.50000000 0 0 0
79 1 1 0 1.62031930 55.24078952 7.50000000 0 0 0
80 1 1 0 0.89117562 54.02465021 7.50000000 0 0 0
81 1 1 0 1.57981132 52.78512360 7.50000000 0 0 0
82 1 1 0 0.85066764 51.56898429 7.50000000 0 0 0
83 1 1 0 1.53930334 50.32945768 7.50000000 0 0 0
84 1 1 0 0.81015966 49.11331837 7.50000000 0 0 0
85 1 1 0 1.49879535 47.87379176 7.50000000 0 0 0
86 1 1 0 0.76965167 46.65765245 7.50000000 0 0 0
87 1 1 0 1.45828737 45.41812585 7.50000000 0 0 0
88 1 1 0 0.72914369 44.20198653 7.50000000 0 0 0
89 1 1 0 1.41777939 42.96245993 7.50000000 0 0 0
90 1 1 0 0.68863571 41.74632061 7.50000000 0 0 0
91 1 1 0 1.37727141 40.50679401 7.50000000 0 0 0
92 1 1 0 0.64812773 39.29065470 7.50000000 0 0 0
93 1 1 0 1.33676342 38.05112809 7.50000000 0 0 0
94 1 1 0 0.60761974 36.83498878 7.50000000 0 0 0
95 1 1 0 1.29625544 35.59546217 7.50000000 0 0 0
96 1 1 0 0.56711176 34.37932286 7.50000000 0 0 0
97 1 1 0 1.25574746 33.13979625 7.50000000 0 0 0
98 1 1 0 0.52660378 31.92365694 7.50000000 0 0 0
99 1 1 0 1.21523947 30.68413033 7.50000000 0 0 0
100 1 1 0 0.48609579 29.46799102 7.50000000 0 0 0
101 1 1 0 1.17473149 28.22846442 7.50000000 0 0 0
102 1 1 0 0.44558781 27.01232510 7.50000000 0 0 0
103 1 1 0 1.13422351 25.77279850 7.50000000 0 0 0
104 1 1 0 0.40507983 24.55665919 7.50000000 0 0 0
105 1 1 0 1.09371553 23.31713258 7.50000000 0 0 0
106 1 1 0 0.36457185 22.10099327 7.50000000 0 0 0
107 1 1 0 1.05320754 20.86146666 7.50000000 0 0 0
108 1 1 0 0.32406386 19.64532735 7.50000000 0 0 0
109 1 1 0 1.01269956 18.40580074 7.50000000 0 0 0
110 1 1 0 0.28355588 17.18966143 7.50000000 0 0 0
111 1 1 0 0.97219158 15.95013482 7.50000000 0 0 0
112 1 1 0 0.24304790 14.73399551 7.50000000 0 0 0
113 1 1 0 0.93168360 13.49446890 7.50000000 0 0 0
114 1 1 0 0.20253991 12.27832959 7.50000000 0 0 0
115 1 1 0 0.89117561 11.03880299 7.50000000 0 0 0
116 1 1 0 0.16203193 9.82266367 7.50000000 0 0 0
117 1 1 0 0.85066763 8.58313707 7.50000000 0 0 0
118 1 1 0 0.12152395 7.36699776 7.50000000 0 0 0
119 1 1 0 0.81015965 6.12747115 7.50000000 0 0 0
120 1 1 0 0.08101597 4.91133184 7.50000000 0 0 0
121 1 1 0 0.76965166 3.67180523 7.50000000 0 0 0
122 1 1 0 0.04050798 2.45566592 7.50000000 0 0 0
123 1 1 0 0.72914368 1.21613931 7.50000000 0 0 0
124 1 1 0 0.00000000 0.00000000 7.50000000 0 0 0
125 1 1 0 4.25333817 128.88737978 7.50000000 0 0 0
126 1 1 0 4.94197387 127.64785317 7.50000000 0 0 0
127 1 1 0 4.21283018 126.43171386 7.50000000 0 0 0
128 1 1 0 4.90146588 125.19218725 7.50000000 0 0 0
129 1 1 0 4.17232220 123.97604794 7.50000000 0 0 0
130 1 1 0 4.86095790 122.73652134 7.50000000 0 0 0
131 1 1 0 4.13181422 121.52038202 7.50000000 0 0 0
132 1 1 0 4.82044992 120.28085542 7.50000000 0 0 0
133 1 1 0 4.09130624 119.06471611 7.50000000 0 0 0
134 1 1 0 4.77994193 117.82518950 7.50000000 0 0 0
135 1 1 0 4.05079825 116.60905019 7.50000000 0 0 0
136 1 1 0 4.73943395 115.36952358 7.50000000 0 0 0
137 1 1 0 4.01029027 114.15338427 7.50000000 0 0 0
138 1 1 0 4.69892597 112.91385766 7.50000000 0 0 0
139 1 1 0 3.96978229 111.69771835 7.50000000 0 0 0
140 1 1 0 4.65841799 110.45819174 7.50000000 0 0 0
141 1 1 0 3.92927430 109.24205243 7.50000000 0 0 0
142 1 1 0 4.61791000 108.00252582 7.50000000 0 0 0
143 1 1 0 3.88876632 106.78638651 7.50000000 0 0 0
144 1 1 0 4.57740202 105.54685991 7.50000000 0 0 0
145 1 1 0 3.84825834 104.33072059 7.50000000 0 0 0
146 1 1 0 4.53689404 103.09119399 7.50000000 0 0 0
147 1 1 0 3.80775036 101.87505468 7.50000000 0 0 0
148 1 1 0 4.49638605 100.63552807 7.50000000 0 0 0
149 1 1 0 3.76724237 99.41938876 7.50000000 0 0 0
150 1 1 0 4.45587807 98.17986215 7.50000000 0 0 0
151 1 1 0 3.72673439 96.96372284 7.50000000 0 0 0
152 1 1 0 4.41537009 95.72419623 7.50000000 0 0 0
153 1 1 0 3.68622641 94.50805692 7.50000000 0 0 0
154 1 1 0 4.37486211 93.26853031 7.50000000 0 0 0
155 1 1 0 3.64571842 92.05239100 7.50000000 0 0 0
156 1 1 0 4.33435412 90.81286440 7.50000000 0 0 0
157 1 1 0 3.60521044 89.59672508 7.50000000 0 0 0
158 1 1 0 4.29384614 88.35719848 7.50000000 0 0 0
159 1 1 0 3.56470246 87.14105916 7.50000000 0 0 0
160 1 1 0 4.25333816 85.90153256 7.50000000 0 0 0
161 1 1 0 3.52419448 84.68539325 7.50000000 0 0 0
162 1 1 0 4.21283017 83.44586664 7.50000000 0 0 0
163 1 1 0 3.48368649 82.22972733 7.50000000 0 0 0
164 1 1 0 4.17232219 80.99020072 7.50000000 0 0 0
165 1 1 0 3.44317851 79.77406141 7.50000000 0 0 0
166 1 1 0 4.13181421 78.53453480 7.50000000 0 0 0
167 1 1 0 3.40267053 77.31839549 7.50000000 0 0 0
168 1 1 0 4.09130623 76.07886888 7.50000000 0 0 0
169 1 1 0 3.36216254 74.86272957 7.50000000 0 0 0
170 1 1 0 4.05079824 73.62320297 7.50000000 0 0 0
171 1 1 0 3.32165456 72.40706365 7.50000000 0 0 0
172 1 1 0 4.01029026 71.16753705 7.50000000 0 0 0
173 1 1 0 3.28114658 69.95139774 7.50000000 0 0 0
174 1 1 0 3.96978228 68.71187113 7.50000000 0 0 0
175 1 1 0 3.24063860 67.49573182 7.50000000 0 0 0
176 1 1 0 3.92927429 66.25620521 7.50000000 0 0 0
177 1 1 0 3.20013061 65.04006590 7.50000000 0 0 0
178 1 1 0 3.88876631 63.80053929 7.50000000 0 0 0
179 1 1 0 3.15962263 62.58439998 7.50000000 0 0 0
180 1 1 0 3.84825833 61.34487337 7.50000000 0 0 0
181 1 1 0 3.11911465 60.12873406 7.50000000 0 0 0
182 1 1 0 3.80775035 58.88920745 7.50000000 0 0 0
183 1 1 0 3.07860667 57.67306814 7.50000000 0 0 0
184 1 1 0 3.76724236 56.43354154 7.50000000 0 0 0
185 1 1 0 3.03809868 55.21740222 7.50000000 0 0 0
186 1 1 0 3.72673438 53.97787562 7.50000000 0 0 0
187 1 1 0 2.99759070 52.76173631 7.50000000 0 0 0
188 1 1 0 3.68622640 51.52220970 7.50000000 0 0 0
189 1 1 0 2.95708272 50.30607039 7.50000000 0 0 0
190 1 1 0 3.64571841 49.06654378 7.50000000 0 0 0
191 1 1 0 2.91657473 47.85040447 7.50000000 0 0 0
192 1 1 0 3.60521043 46.61087786 7.50000000 0 0 0
193 1 1 0 2.87606675 45.39473855 7.50000000 0 0 0
194 1 1 0 3.56470245 44.15521194 7.50000000 0 0 0
195 1 1 0 2.83555877 42.93907263 7.50000000 0 0 0
196 1 1 0 3.52419447 41.69954603 7.50000000 0 0 0
197 1 1 0 2.79505079 40.48340671 7.50000000 0 0 0
198 1 1 0 3.48368648 39.24388011 7.50000000 0 0 0
199 1 1 0 2.75454280 38.02774079 7.50000000 0 0 0
200 1 1 0 3.44317850 36.78821419 7.50000000 0 0 0
201 1 1 0 2.71403482 35.57207488 7.50000000 0 0 0
202 1 1 0 3.40267052 34.33254827 7.50000000 0 0 0
203 1 1 0 2.67352684 33.11640896 7.50000000 0 0 0
204 1 1 0 3.36216253 31.87688235 7.50000000 0 0 0
205 1 1 0 2.63301885 30.66074304 7.50000000 0 0 0
206 1 1 0 3.32165455 29.42121643 7.50000000 0 0 0
207 1 1 0 2.59251087 28.20507712 7.50000000 0 0 0
208 1 1 0 3.28114657 26.96555051 7.50000000 0 0 0
209 1 1 0 2.55200289 25.74941120 7.50000000 0 0 0
210 1 1 0 3.24063859 24.50988460 7.50000000 0 0 0
211 1 1 0 2.51149491 23.29374528 7.50000000 0 0 0
212 1 1 0 3.20013060 22.05421868 7.50000000 0 0 0
213 1 1 0 2.47098692 20.83807937 7.50000000 0 0 0
214 1 1 0 3.15962262 19.59855276 7.50000000 0 0 0
215 1 1 0 2.43047894 18.38241345 7.50000000 0 0 0
216 1 1 0 3.11911464 17.14288684 7.50000000 0 0 0
217 1 1 0 2.38997096 15.92674753 7.50000000 0 0 0
218 1 1 0 3.07860666 14.68722092 7.50000000 0 0 0
219 1 1 0 2.34946297 13.47108161 7.50000000 0 0 0
220 1 1 0 3.03809867 12.23155500 7.50000000 0 0 0
221 1 1 0 2.30895499 11.01541569 7.50000000 0 0 0
222 1 1 0 2.99759069 9.77588908 7.50000000 0 0 0
223 1 1 0 2.26844701 8.55974977 7.50000000 0 0 0
224 1 1 0 2.95708271 7.32022317 7.50000000 0 0 0
225 1 1 0 2.22793903 6.10408385 7.50000000 0 0 0
226 1 1 0 2.91657472 4.86455725 7.50000000 0 0 0
227 1 1 0 2.18743104 3.64841794 7.50000000 0 0 0
228 1 1 0 2.87606674 2.40889133 7.50000000 0 0 0
229 1 1 0 2.14692306 1.19275202 7.50000000 0 0 0
230 1 1 0 7.08889693 128.84060519 7.50000000 0 0 0
231 1 1 0 6.35975324 127.62446588 7.50000000 0 0 0
232 1 1 0 7.04838894 126.38493927 7.50000000 0 0 0
233 1 1 0 6.31924526 125.16879996 7.50000000 0 0 0
234 1 1 0 7.00788096 123.92927335 7.50000000 0 0 0
235 1 1 0 6.27873728 122.71313404 7.50000000 0 0 0
236 1 1 0 6.96737298 121.47360743 7.50000000 0 0 0
237 1 1 0 6.23822930 120.25746812 7.50000000 0 0 0
238 1 1 0 6.92686499 119.01794152 7.50000000 0 0 0
239 1 1 0 6.19772131 117.80180220 7.50000000 0 0 0
240 1 1 0 6.88635701 116.56227560 7.50000000 0 0 0
241 1 1 0 6.15721333 115.34613629 7.50000000 0 0 0
242 1 1 0 6.84584903 114.10660968 7.50000000 0 0 0
243 1 1 0 6.11670535 112.89047037 7.50000000 0 0 0
244 1 1 0 6.80534105 111.65094376 7.50000000 0 0 0
245 1 1 0 6.07619736 110.43480445 7.50000000 0 0 0
246 1 1 0 6.76483306 109.19527784 7.50000000 0 0 0
247 1 1 0 6.03568938 107.97913853 7.50000000 0 0 0
248 1 1 0 6.72432508 106.73961192 7.50000000 0 0 0
249 1 1 0 5.99518140 105.52347261 7.50000000 0 0 0
250 1 1 0 6.68381710 104.28394600 7.50000000 0 0 0
251 1 1 0 5.95467342 103.06780669 7.50000000 0 0 0
252 1 1 0 6.64330911 101.82828009 7.50000000 0 0 0
253 1 1 0 5.91416543 100.61214077 7.50000000 0 0 0
254 1 1 0 6.60280113 99.37261417 7.50000000 0 0 0
255 1 1 0 5.87365745 98.15647486 7.50000000 0 0 0
256 1 1 0 6.56229315 96.91694825 7.50000000 0 0 0
257 1 1 0 5.83314947 95.70080894 7.50000000 0 0 0
258 1 1 0 6.52178517 94.46128233 7.50000000 0 0 0
259 1 1 0 5.79264148 93.24514302 7.50000000 0 0 0
260 1 1 0 6.48127718 92.00561641 7.50000000 0 0 0
261 1 1 0 5.75213350 90.78947710 7.50000000 0 0 0
262 1 1 0 6.44076920 89.54995049 7.50000000 0 0 0
263 1 1 0 5.71162552 88.33381118 7.50000000 0 0 0
264 1 1 0 6.40026122 87.09428458 7.50000000 0 0 0
265 1 1 0 5.67111754 85.87814526 7.50000000 0 0 0
266 1 1 0 6.35975323 84.63861866 7.50000000 0 0 0
267 1 1 0 5.63060955 83.42247934 7.50000000 0 0 0
268 1 1 0 6.31924525 82.18295274 7.50000000 0 0 0
269 1 1 0 5.59010157 80.96681343 7.50000000 0 0 0
270 1 1 0 6.27873727 79.72728682 7.50000000 0 0 0
271 1 1 0 5.54959359 78.51114751 7.50000000 0 0 0
272 1 1 0 6.23822929 77.27162090 7.50000000 0 0 0
273 1 1 0 5.50908560 76.05548159 7.50000000 0 0 0
274 1 1 0 6.19772130 74.81595498 7.50000000 0 0 0
275 1 1 0 5.46857762 73.59981567 7.50000000 0 0 0
276 1 1 0 6.15721332 72.36028906 7.50000000 0 0 0
277 1 1 0 5.42806964 71.14414975 7.50000000 0 0 0
278 1 1 0 6.11670534 69.90462315 7.50000000 0 0 0
279 1 1 0 5.38756166 68.68848383 7.50000000 0 0 0
280 1 1 0 6.07619735 67.44895723 7.50000000 0 0 0
281 1 1 0 5.34705367 66.23281792 7.50000000 0 0 0
282 1 1 0 6.03568937 64.99329131 7.50000000 0 0 0
283 1 1 0 5.30654569 63.77715200 7.50000000 0 0 0
284 1 1 0 5.99518139 62.53762539 7.50000000 0 0 0
285 1 1 0 5.26603771 61.32148608 7.50000000 0 0 0
286 1 1 0 5.95467341 60.08195947 7.50000000 0 0 0
287 1 1 0 5.22552973 58.86582016 7.50000000 0 0 0
288 1 1 0 5.91416542 57.62629355 7.50000000 0 0 0
289 1 1 0 5.18502174 56.41015424 7.50000000 0 0 0
290 1 1 0 5.87365744 55.17062763 7.50000000 0 0 0
291 1 1 0 5.14451376 53.95448832 7.50000000 0 0 0
292 1 1 0 5.83314946 52.71496172 7.50000000 0 0 0
293 1 1 0 5.10400578 51.49882240 7.50000000 0 0 0
294 1 1 0 5.79264147 50.25929580 7.50000000 0 0 0
295 1 1 0 5.06349779 49.04315649 7.50000000 0 0 0
296 1 1 0 5.75213349 47.80362988 7.50000000 0 0 0
297 1 1 0 5.02298981 46.58749057 7.50000000 0 0 0
298 1 1 0 5.71162551 45.34796396 7.50000000 0 0 0
299 1 1 0 4.98248183 44.13182465 7.50000000 0 0 0
300 1 1 0 5.67111753 42.89229804 7.50000000 0 0 0
301 1 1 0 4.94197385 41.67615873 7.50000000 0 0 0
302 1 1 0 5.63060954 40.43663212 7.50000000 0 0 0
303 1 1 0 4.90146586 39.22049281 7.50000000 0 0 0
304 1 1 0 5.59010156 37.98096621 7.50000000 0 0 0
305 1 1 0 4.86095788 36.76482689 7.50000000 0 0 0
306 1 1 0 5.54959358 35.52530029 7.50000000 0 0 0
307 1 1 0 4.82044990 34.30916097 7.50000000 0 0 0
308 1 1 0 5.50908560 33.06963437 7.50000000 0 0 0
309 1 1 0 4.77994191 31.85349506 7.50000000 0 0 0
310 1 1 0 5.46857761 30.61396845 7.50000000 0 0 0
311 1 1 0 4.73943393 29.39782914 7.50000000 0 0 0
312 1 1 0 5.42806963 28.15830253 7.50000000 0 0 0
313 1 1 0 4.69892595 26.94216322 7.50000000 0 0 0
314 1 1 0 5.38756165 25.70263661 7.50000000 0 0 0
315 1 1 0 4.65841797 24.48649730 7.50000000 0 0 0
316 1 1 0 5.34705366 23.24697069 7.50000000 0 0 0
317 1 1 0 4.61790998 22.03083138 7.50000000 0 0 0
318 1 1 0 5.30654568 20.79130478 7.50000000 0 0 0
319 1 1 0 4.57740200 19.57516546 7.50000000 0 0 0
320 1 1 0 5.26603770 18.33563886 7.50000000 0 0 0
321 1 1 0 4.53689402 17.11949955 7.50000000 0 0 0
322 1 1 0 5.22552972 15.87997294 7.50000000 0 0 0
323 1 1 0 4.49638603 14.66383363 7.50000000 0 0 0
324 1 1 0 5.18502173 13.42430702 7.50000000 0 0 0
325 1 1 0 4.45587805 12.20816771 7.50000000 0 0 0
326 1 1 0 5.14451375 10.96864110 7.50000000 0 0 0
327 1 1 0 4.41537007 9.75250179 7.50000000 0 0 0
328 1 1 0 5.10400577 8.51297518 7.50000000 0 0 0
329 1 1 0 4.37486209 7.29683587 7.50000000 0 0 0
330 1 1 0 5.06349778 6.05730926 7.50000000 0 0 0
331 1 1 0 4.33435410 4.84116995 7.50000000 0 0 0
332 1 1 0 5.02298980 3.60164335 7.50000000 0 0 0
333 1 1 0 4.29384612 2.38550403 7.50000000 0 0 0
334 1 1 0 4.98248182 1.14597743 7.50000000 0 0 0
335 1 1 0 8.50667630 128.81721790 7.50000000 0 0 0
336 1 1 0 9.19531200 127.57769129 7.50000000 0 0 0
337 1 1 0 8.46616832 126.36155198 7.50000000 0 0 0
338 1 1 0 9.15480402 125.12202537 7.50000000 0 0 0
339 1 1 0 8.42566034 123.90588606 7.50000000 0 0 0
340 1 1 0 9.11429604 122.66635945 7.50000000 0 0 0
341 1 1 0 8.38515236 121.45022014 7.50000000 0 0 0
342 1 1 0 9.07378805 120.21069353 7.50000000 0 0 0
343 1 1 0 8.34464437 118.99455422 7.50000000 0 0 0
344 1 1 0 9.03328007 117.75502761 7.50000000 0 0 0
345 1 1 0 8.30413639 116.53888830 7.50000000 0 0 0
346 1 1 0 8.99277209 115.29936170 7.50000000 0 0 0
347 1 1 0 8.26362841 114.08322238 7.50000000 0 0 0
348 1 1 0 8.95226411 112.84369578 7.50000000 0 0 0
349 1 1 0 8.22312042 111.62755647 7.50000000 0 0 0
350 1 1 0 8.91175612 110.38802986 7.50000000 0 0 0
351 1 1 0 8.18261244 109.17189055 7.50000000 0 0 0
352 1 1 0 8.87124814 107.93236394 7.50000000 0 0 0
353 1 1 0 8.14210446 106.71622463 7.50000000 0 0 0
354 1 1 0 8.83074016 105.47669802 7.50000000 0 0 0
355 1 1 0 8.10159648 104.26055871 7.50000000 0 0 0
356 1 1 0 8.79023217 103.02103210 7.50000000 0 0 0
357 1 1 0 8.06108849 101.80489279 7.50000000 0 0 0
358 1 1 0 8.74972419 100.56536618 7.50000000 0 0 0
359 1 1 0 8.02058051 99.34922687 7.50000000 0 0 0
360 1 1 0 8.70921621 98.10970027 7.50000000 0 0 0
361 1 1 0 7.98007253 96.89356095 7.50000000 0 0 0
362 1 1 0 8.66870823 95.65403435 7.50000000 0 0 0
363 1 1 0 7.93956454 94.43789504 7.50000000 0 0 0
364 1 1 0 8.62820024 93.19836843 7.50000000 0 0 0
365 1 1 0 7.89905656 91.98222912 7.50000000 0 0 0
366 1 1 0 8.58769226 90.74270251 7.50000000 0 0 0
367 1 1 0 7.85854858 89.52656320 7.50000000 0 0 0
368 1 1 0 8.54718428 88.28703659 7.50000000 0 0 0
369 1 1 0 7.81804060 87.07089728 7.50000000 0 0 0
370 1 1 0 8.50667629 85.83137067 7.50000000 0 0 0
371 1 1 0 7.77753261 84.61523136 7.50000000 0 0 0
372 1 1 0 8.46616831 83.37570476 7.50000000 0 0 0
373 1 1 0 7.73702463 82.15956544 7.50000000 0 0 0
374 1 1 0 8.42566033 80.92003884 7.50000000 0 0 0
375 1 1 0 7.69651665 79.70389952 7.50000000 0 0 0
376 1 1 0 8.38515235 78.46437292 7.50000000 0 0 0
377 1 1 0 7.65600867 77.24823361 7.50000000 0 0 0
378 1 1 0 8.34464436 76.00870700 7.50000000 0 0 0
379 1 1 0 7.61550068 74.79256769 7.50000000 0 0 0
380 1 1 0 8.30413638 73.55304108 7.50000000 0 0 0
381 1 1 0 7.57499270 72.33690177 7.50000000 0 0 0
382 1 1 0 8.26362840 71.09737516 7.50000000 0 0 0
383 1 1 0 7.53448472 69.88123585 7.50000000 0 0 0
384 1 1 0 8.22312041 68.64170924 7.50000000 0 0 0
385 1 1 0 7.49397673 67.42556993 7.50000000 0 0 0
386 1 1 0 8.18261243 66.18604333 7.50000000 0 0 0
387 1 1 0 7.45346875 64.96990401 7.50000000 0 0 0
388 1 1 0 8.14210445 63.73037741 7.50000000 0 0 0
389 1 1 0 7.41296077 62.51423810 7.50000000 0 0 0
390 1 1 0 8.10159647 61.27471149 7.50000000 0 0 0
391 1 1 0 7.37245279 60.05857218 7.50000000 0 0 0
392 1 1 0 8.06108848 58.81904557 7.50000000 0 0 0
393 1 1 0 7.33194480 57.60290626 7.50000000 0 0 0
394 1 1 0 8.02058050 56.36337965 7.50000000 0 0 0
395 1 1 0 7.29143682 55.14724034 7.50000000 0 0 0
396 1 1 0 7.98007252 53.90771373 7.50000000 0 0 0
397 1 1 0 7.25092884 52.69157442 7.50000000 0 0 0
398 1 1 0 7.93956453 51.45204781 7.50000000 0 0 0
399 1 1 0 7.21042085 50.23590850 7.50000000 0 0 0
400 1 1 0 7.89905655 48.99638190 7.50000000 0 0 0
401 1 1 0 7.16991287 47.78024258 7.50000000 0 0 0
402 1 1 0 7.85854857 46.54071598 7.50000000 0 0 0
403 1 1 0 7.12940489 45.32457667 7.50000000 0 0 0
404 1 1 0 7.81804059 44.08505006 7.50000000 0 0 0
405 1 1 0 7.08889691 42.86891075 7.50000000 0 0 0
406 1 1 0 7.77753260 41.62938414 7.50000000 0 0 0
407 1 1 0 7.04838892 40.41324483 7.50000000 0 0 0
408 1 1 0 7.73702462 39.17371822 7.50000000 0 0 0
409 1 1 0 7.00788094 37.95757891 7.50000000 0 0 0
410 1 1 0 7.69651664 36.71805230 7.50000000 0 0 0
411 1 1 0 6.96737296 35.50191299 7.50000000 0 0 0
412 1 1 0 7.65600866 34.26238639 7.50000000 0 0 0
413 1 1 0 6.92686497 33.04624707 7.50000000 0 0 0
414 1 1 0 7.61550067 31.80672047 7.50000000 0 0 0
415 1 1 0 6.88635699 30.59058115 7.50000000 0 0 0
416 1 1 0 7.57499269 29.35105455 7.50000000 0 0 0
417 1 1 0 6.84584901 28.13491524 7.50000000 0 0 0
418 1 1 0 7.53448471 26.89538863 7.50000000 0 0 0
419 1 1 0 6.80534103 25.67924932 7.50000000 0 0 0
420 1 1 0 7.49397672 24.43972271 7.50000000 0 0 0
421 1 1 0 6.76483304 23.22358340 7.50000000 0 0 0
422 1 1 0 7.45346874 21.98405679 7.50000000 0 0 0
423 1 1 0 6.72432506 20.76791748 7.50000000 0 0 0
424 1 1 0 7.41296076 19.52839087 7.50000000 0 0 0
425 1 1 0 6.68381708 18.31225156 7.50000000 0 0 0
426 1 1 0 7.37245278 17.07272496 7.50000000 0 0 0
427 1 1 0 6.64330909 15.85658564 7.50000000 0 0 0
428 1 1 0 7.33194479 14.61705904 7.50000000 0 0 0
429 1 1 0 6.60280111 13.40091973 7.50000000 0 0 0
430 1 1 0 7.29143681 12.16139312 7.50000000 0 0 0
431 1 1 0 6.56229313 10.94525381 7.50000000 0 0 0
432 1 1 0 7.25092883 9.70572720 7.50000000 0 0 0
433 1 1 0 6.52178515 8.48958789 7.50000000 0 0 0
434 1 1 0 7.21042084 7.25006128 7.50000000 0 0 0
435 1 1 0 6.48127716 6.03392197 7.50000000 0 0 0
436 1 1 0 7.16991286 4.79439536 7.50000000 0 0 0
437 1 1 0 6.44076918 3.57825605 7.50000000 0 0 0
438 1 1 0 7.12940488 2.33872944 7.50000000 0 0 0
439 1 1 0 6.40026120 1.12259013 7.50000000 0 0 0
440 1 1 0 11.34223506 128.77044331 7.50000000 0 0 0
441 1 1 0 10.61309138 127.55430399 7.50000000 0 0 0
442 1 1 0 11.30172708 126.31477739 7.50000000 0 0 0
443 1 1 0 10.57258340 125.09863808 7.50000000 0 0 0
444 1 1 0 11.26121910 123.85911147 7.50000000 0 0 0
445 1 1 0 10.53207542 122.64297216 7.50000000 0 0 0
446 1 1 0 11.22071111 121.40344555 7.50000000 0 0 0
447 1 1 0 10.49156743 120.18730624 7.50000000 0 0 0
448 1 1 0 11.18020313 118.94777963 7.50000000 0 0 0
449 1 1 0 10.45105945 117.73164032 7.50000000 0 0 0
450 1 1 0 11.13969515 116.49211371 7.50000000 0 0 0
451 1 1 0 10.41055147 115.27597440 7.50000000 0 0 0
452 1 1 0 11.09918717 114.03644779 7.50000000 0 0 0
453 1 1 0 10.37004348 112.82030848 7.50000000 0 0 0
454 1 1 0 11.05867918 111.58078188 7.50000000 0 0 0
455 1 1 0 10.32953550 110.36464256 7.50000000 0 0 0
456 1 1 0 11.01817120 109.12511596 7.50000000 0 0 0
457 1 1 0 10.28902752 107.90897665 7.50000000 0 0 0
458 1 1 0 10.97766322 106.66945004 7.50000000 0 0 0
459 1 1 0 10.24851954 105.45331073 7.50000000 0 0 0
460 1 1 0 10.93715523 104.21378412 7.50000000 0 0 0
461 1 1 0 10.20801155 102.99764481 7.50000000 0 0 0
462 1 1 0 10.89664725 101.75811820 7.50000000 0 0 0
463 1 1 0 10.16750357 100.54197889 7.50000000 0 0 0
464 1 1 0 10.85613927 99.30245228 7.50000000 0 0 0
465 1 1 0 10.12699559 98.08631297 7.50000000 0 0 0
466 1 1 0 10.81563129 96.84678636 7.50000000 0 0 0
467 1 1 0 10.08648760 95.63064705 7.50000000 0 0 0
468 1 1 0 10.77512330 94.39112045 7.50000000 0 0 0
469 1 1 0 10.04597962 93.17498113 7.50000000 0 0 0
470 1 1 0 10.73461532 91.93545453 7.50000000 0 0 0
471 1 1 0 10.00547164 90.71931522 7.50000000 0 0 0
472 1 1 0 10.69410734 89.47978861 7.50000000 0 0 0
473 1 1 0 9.96496366 88.26364930 7.50000000 0 0 0
474 1 1 0 10.65359935 87.02412269 7.50000000 0 0 0
475 1 1 0 9.92445567 85.80798338 7.50000000 0 0 0
476 1 1 0 10.61309137 84.56845677 7.50000000 0 0 0
477 1 1 0 9.88394769 83.35231746 7.50000000 0 0 0
478 1 1 0 10.57258339 82.11279085 7.50000000 0 0 0
479 1 1 0 9.84343971 80.89665154 7.50000000 0 0 0
480 1 1 0 10.53207541 79.65712494 7.50000000 0 0 0
481 1 1 0 9.80293173 78.44098562 7.50000000 0 0 0
482 1 1 0 10.49156742 77.20145902 7.50000000 0 0 0
483 1 1 0 9.76242374 75.98531971 7.50000000 0 0 0
484 1 1 0 10.45105944 74.74579310 7.50000000 0 0 0
485 1 1 0 9.72191576 73.52965379 7.50000000 0 0 0
486 1 1 0 10.41055146 72.29012718 7.50000000 0 0 0
487 1 1 0 9.68140778 71.07398787 7.50000000 0 0 0
488 1 1 0 10.37004347 69.83446126 7.50000000 0 0 0
489 1 1 0 9.64089979 68.61832195 7.50000000 0 0 0
490 1 1 0 10.32953549 67.37879534 7.50000000 0 0 0
491 1 1 0 9.60039181 66.16265603 7.50000000 0 0 0
492 1 1 0 10.28902751 64.92312942 7.50000000 0 0 0
493 1 1 0 9.55988383 63.70699011 7.50000000 0 0 0
494 1 1 0 10.24851953 62.46746351 7.50000000 0 0 0
495 1 1 0 9.51937585 61.25132419 7.50000000 0 0 0
496 1 1 0 10.20801154 60.01179759 7.50000000 0 0 0
497 1 1 0 9.47886786 58.79565828 7.50000000 0 0 0
498 1 1 0 10.16750356 57.55613167 7.50000000 0 0 0
499 1 1 0 9.43835988 56.33999236 7.50000000 0 0 0
500 1 1 0 10.12699558 55.10046575 7.50000000 0 0 0
501 1 1 0 9.39785190 53.88432644 7.50000000 0 0 0
502 1 1 0 10.08648759 52.64479983 7.50000000 0 0 0
503 1 1 0 9.35734391 51.42866052 7.50000000 0 0 0
504 1 1 0 10.04597961 50.18913391 7.50000000 0 0 0
505 1 1 0 9.31683593 48.97299460 7.50000000 0 0 0
506 1 1 0 10.00547163 47.73346799 7.50000000 0 0 0
507 1 1 0 9.27632795 46.51732868 7.50000000 0 0 0
508 1 1 0 9.96496365 45.27780208 7.50000000 0 0 0
509 1 1 0 9.23581997 44.06166276 7.50000000 0 0 0
510 1 1 0 9.92445566 42.82213616 7.50000000 0 0 0
511 1 1 0 9.19531198 41.60599685 7.50000000 0 0 0
512 1 1 0 9.88394768 40.36647024 7.50000000 0 0 0
513 1 1 0 9.15480400 39.15033093 7.50000000 0 0 0
514 1 1 0 9.84343970 37.91080432 7.50000000 0 0 0
515 1 1 0 9.11429602 36.69466501 7.50000000 0 0 0
516 1 1 0 9.80293172 35.45513840 7.50000000 0 0 0
517 1 1 0 9.07378803 34.23899909 7.50000000 0 0 0
518 1 1 0 9.76242373 32.99947248 7.50000000 0 0 0
519 1 1 0 9.03328005 31.78333317 7.50000000 0 0 0
520 1 1 0 9.72191575 30.54380657 7.50000000 0 0 0
521 1 1 0 8.99277207 29.32766725 7.50000000 0 0 0
522 1 1 0 9.68140777 28.08814065 7.50000000 0 0 0
523 1 1 0 8.95226409 26.87200133 7.50000000 0 0 0
524 1 1 0 9.64089978 25.63247473 7.50000000 0 0 0
525 1 1 0 8.91175610 24.41633542 7.50000000 0 0 0
526 1 1 0 9.60039180 23.17680881 7.50000000 0 0 0
527 1 1 0 8.87124812 21.96066950 7.50000000 0 0 0
528 1 1 0 9.55988382 20.72114289 7.50000000 0 0 0
529 1 1 0 8.83074014 19.50500358 7.50000000 0 0 0
530 1 1 0 9.51937584 18.26547697 7.50000000 0 0 0
531 1 1 0 8.79023215 17.04933766 7.50000000 0 0 0
532 1 1 0 9.47886785 15.80981105 7.50000000 0 0 0
533 1 1 0 8.74972417 14.59367174 7.50000000 0 0 0
534 1 1 0 9.43835987 13.35414514 7.50000000 0 0 0
535 1 1 0 8.70921619 12.13800582 7.50000000 0 0 0
536 1 1 0 9.39785189 10.89847922 7.50000000 0 0 0
537 1 1 0 8.66870821 9.68233991 7.50000000 0 0 0
538 1 1 0 9.35734390 8.44281330 7.50000000 0 0 0
539 1 1 0 8.62820022 7.22667399 7.50000000 0 0 0
540 1 1 0 9.31683592 5.98714738 7.50000000 0 0 0
541 1 1 0 8.58769224 4.77100807 7.50000000 0 0 0
542 1 1 0 9.27632794 3.53148146 7.50000000 0 0 0
543 1 1 0 8.54718426 2.31534215 7.50000000 0 0 0
544 1 1 0 9.23581996 1.07581554 7.50000000 0 0 0
545 1 1 0 12.76001444 128.74705601 7.50000000 0 0 0
546 1 1 0 13.44865014 127.50752940 7.50000000 0 0 0
547 1 1 0 12.71950646 126.29139009 7.50000000 0 0 0
548 1 1 0 13.40814216 125.05186349 7.50000000 0 0 0
549 1 1 0 12.67899848 123.83572417 7.50000000 0 0 0
550 1 1 0 13.36763417 122.59619757 7.50000000 0 0 0
551 1 1 0 12.63849049 121.38005826 7.50000000 0 0 0
552 1 1 0 13.32712619 120.14053165 7.50000000 0 0 0
553 1 1 0 12.59798251 118.92439234 7.50000000 0 0 0
554 1 1 0 13.28661821 117.68486573 7.50000000 0 0 0
555 1 1 0 12.55747453 116.46872642 7.50000000 0 0 0
556 1 1 0 13.24611023 115.22919981 7.50000000 0 0 0
557 1 1 0 12.51696654 114.01306050 7.50000000 0 0 0
558 1 1 0 13.20560224 112.77353389 7.50000000 0 0 0
559 1 1 0 12.47645856 111.55739458 7.50000000 0 0 0
560 1 1 0 13.16509426 110.31786797 7.50000000 0 0 0
561 1 1 0 12.43595058 109.10172866 7.50000000 0 0 0
562 1 1 0 13.12458628 107.86220206 7.50000000 0 0 0
563 1 1 0 12.39544260 106.64606274 7.50000000 0 0 0
564 1 1 0 13.08407829 105.40653614 7.50000000 0 0 0
565 1 1 0 12.35493461 104.19039683 7.50000000 0 0 0
566 1 1 0 13.04357031 102.95087022 7.50000000 0 0 0
567 1 1 0 12.31442663 101.73473091 7.50000000 0 0 0
568 1 1 0 13.00306233 100.49520430 7.50000000 0 0 0
569 1 1 0 12.27391865 99.27906499 7.50000000 0 0 0
570 1 1 0 12.96255435 98.03953838 7.50000000 0 0 0
571 1 1 0 12.23341066 96.82339907 7.50000000 0 0 0
572 1 1 0 12.92204636 95.58387246 7.50000000 0 0 0
573 1 1 0 12.19290268 94.36773315 7.50000000 0 0 0
574 1 1 0 12.88153838 93.12820655 7.50000000 0 0 0
575 1 1 0 12.15239470 91.91206723 7.50000000 0 0 0
576 1 1 0 12.84103040 90.67254063 7.50000000 0 0 0
577 1 1 0 12.11188672 89.45640131 7.50000000 0 0 0
578 1 1 0 12.80052241 88.21687471 7.50000000 0 0 0
579 1 1 0 12.07137873 87.00073540 7.50000000 0 0 0
580 1 1 0 12.76001443 85.76120879 7.50000000 0 0 0
581 1 1 0 12.03087075 84.54506948 7.50000000 0 0 0
582 1 1 0 12.71950645 83.30554287 7.50000000 0 0 0
583 1 1 0 11.99036277 82.08940356 7.50000000 0 0 0
584 1 1 0 12.67899847 80.84987695 7.50000000 0 0 0
585 1 1 0 11.94985479 79.63373764 7.50000000 0 0 0
586 1 1 0 12.63849048 78.39421103 7.50000000 0 0 0
587 1 1 0 11.90934680 77.17807172 7.50000000 0 0 0
588 1 1 0 12.59798250 75.93854512 7.50000000 0 0 0
589 1 1 0 11.86883882 74.72240580 7.50000000 0 0 0
590 1 1 0 12.55747452 73.48287920 7.50000000 0 0 0
591 1 1 0 11.82833084 72.26673989 7.50000000 0 0 0
592 1 1 0 12.51696653 71.02721328 7.50000000 0 0 0
593 1 1 0 11.78782285 69.81107397 7.50000000 0 0 0
594 1 1 0 12.47645855 68.57154736 7.50000000 0 0 0
595 1 1 0 11.74731487 67.35540805 7.50000000 0 0 0