ITEM: TIMESTEP
394
ITEM: NUMBER OF ATOMS
26936
ITEM: BOX BOUNDS pp pp pp
0.0000000000000000e+00 1.4251150300000000e+02
0.0000000000000000e+00 2.4683716400000000e+02
0.0000000000000000e+00 1.5000000000000000e+01
ITEM: ATOMS id type x y z c_csym c_2[1] c_2[2] c_2[3] c_2[4] c_2[5] c_2[6] c_3 
229 1 0.893546 8.57708 2.98245 6.00579 -203744 -152011 -8515.36 -52634.4 19369.4 -2429.44 -7.41323 
230 1 0.161328 7.36358 2.97539 6.00531 -163093 -179631 8849.21 -47658.6 42729.3 -5820.9 -7.4148 
231 1 0.845026 6.12152 2.96712 5.99986 -199987 -153093 -2975.76 -39698.1 31000.1 -4163.59 -7.41325 
232 1 0.110999 4.90903 2.95767 6.009 -166173 -180011 2372.89 -29359.2 42159.8 -3957.01 -7.41367 
233 1 0.792804 3.66605 2.9491 6.0034 -190116 -158332 -2303.2 -18156.5 29522.4 -6505.31 -7.41299 
234 1 0.0568167 2.45458 2.94097 6.01708 -168748 -177390 -3201.02 -8865.94 25884.5 -1291.35 -7.41286 
235 1 0.737143 1.21088 2.9364 6.01857 -178177 -167390 -4781.02 -2620.22 12457.9 -7924.38 -7.41266 
236 1 2.17858e-06 3.96766e-06 2.93397 6.0277 -172587 -172569 -5555.16 50.1324 1.81282 1.5702 -7.41258 
431 1 2.31076 8.54566 2.98359 6.00023 -192827 -149466 9569.1 -44815.6 36049.6 -6618.8 -7.41518 
432 1 2.99404 7.30318 2.97838 6.00523 -228284 -124082 -1515.13 -42678.1 20696.3 -16027.4 -7.41372 
433 1 2.26218 6.08935 2.96942 5.99851 -194332 -153086 3514.74 -29642.2 42161.9 -12700 -7.41413 
434 1 2.94395 4.84618 2.96337 6.00171 -217144 -131934 1329.87 -22000 27110.5 -23564.4 -7.41358 
435 1 2.20996 3.6335 2.95272 6.00207 -188372 -159869 -1213.75 -6755.45 33945.9 -16988.3 -7.41324 
436 1 2.89039 2.38977 2.94911 6.00945 -196655 -149771 -498.273 -1501.41 19947 -28851 -7.41321 
437 1 2.15433 1.17821 2.94097 6.01021 -177770 -168900 -3796.92 9265.85 12032.1 -20037.1 -7.41278 
632 1 5.14136 8.48722 2.98792 6.00077 -241452 -105424 2303.64 -39252.4 7506.69 -19283.3 -7.41451 
633 1 4.41108 7.27237 2.98179 5.99347 -217877 -131450 712.434 -23215.4 31575.1 -10428.3 -7.41424 
634 1 5.09296 6.02914 2.97854 6.00044 -235360 -110350 6193.33 -19553.4 17920.9 -29427.3 -7.41454 
635 1 4.36098 4.81517 2.9694 5.99447 -211861 -140500 -2225.61 1439.4 31233.3 -20207.6 -7.41351 
636 1 5.04172 3.57153 2.96719 6.00549 -216677 -128559 5622.46 4991.9 19841 -38629.6 -7.4142 
637 1 4.30748 2.35878 2.95763 5.99945 -194714 -156177 -2405.38 24282.6 17808.4 -28284.2 -7.41312 
638 1 4.98782 1.11513 2.95918 6.00325 -188490 -158716 1606.09 20445.1 10560 -41941.5 -7.41366 
833 1 6.55837 8.45775 2.99068 5.9986 -226303 -122744 -5543.8 -17512.7 16720.3 -2141.13 -7.41397 
834 1 7.24069 7.2147 2.98961 5.99693 -235892 -102470 12161.6 -17668.2 7026.75 -25562.5 -7.41558 
835 1 6.50994 5.99992 2.98371 5.99644 -225096 -129019 -7625.45 8255.26 20105.1 -12645.3 -7.41346 
836 1 7.19133 4.75657 2.98273 6.00088 -225033 -114659 12116.5 9287.55 14099.8 -34848.2 -7.41536 
837 1 6.45874 3.54272 2.97526 6.00002 -211530 -143590 -5745.62 36712.6 15021.2 -23033.5 -7.41325 
838 1 7.13961 2.29934 2.97617 6.00228 -202991 -141234 7626.31 32197.1 13407.4 -40877.8 -7.41474 
839 1 6.40494 1.08663 2.96936 6.00176 -186835 -165066 -940.694 54017.3 728.513 -31377.8 -7.41349 
1034 1 9.3882 8.40156 2.99625 6.00035 -221719 -109382 19192.3 -20982.9 376.944 -20027.1 -7.41644 
1035 1 8.65771 7.18664 2.99279 6.00425 -220906 -130273 -15309.4 7831.19 7274.33 -2394.26 -7.41315 
1036 1 9.3401 5.94379 2.99248 6.00181 -217069 -115385 18979.3 6188.38 8162.64 -24402.2 -7.41639 
1037 1 8.60835 4.72941 2.98788 6.00668 -215443 -139696 -12831.7 38894.6 6753.91 -10538.7 -7.41309 
1038 1 9.29013 3.48647 2.98821 6.00368 -205353 -131972 14325 33909.6 12345.6 -29104.1 -7.41581 
1039 1 8.5567 2.27294 2.98342 6.00965 -198679 -155684 -6228.52 64407.9 -53.9574 -18726.2 -7.41347 
1040 1 9.23847 1.03023 2.98544 5.99612 -185364 -159533 5663.11 50857 10409.9 -29991.9 -7.41486 
13499 2 0.523636 8.60615 6.41726 6.00088 -150218 -189417 12115.7 52365.2 37228 5217.79 -7.41536 
13500 2 0.572173 6.15202 6.43279 6.00554 -154901 -190192 5622.98 40563.7 43375.4 2133.61 -7.4142 
13501 2 0.62441 3.69802 6.45087 6.00957 -160338 -186300 -497.363 19469.7 34962.5 -2846.78 -7.41321 
13502 2 0.680078 1.24382 6.46359 6.01857 -167829 -177813 -4779.76 3325.43 13094.5 -6821.03 -7.41266 
13503 2 -5.94691e-07 -3.70212e-07 6.46601 6.02772 -172644 -172549 -5552.78 -13.4086 2.53977 2.00391 -7.41258 
13697 2 1.94111 8.63773 6.41629 5.99638 -160191 -194017 -7624.45 45773.1 21005.1 -11097.6 -7.41346 
13698 2 2.6749 7.4252 6.42146 6.00044 -124663 -221017 6194.37 44350.8 34445.5 -805.783 -7.41454 
13699 2 1.98957 6.1843 6.43058 5.99453 -159687 -192565 -2225.49 31688.6 33115.7 -16949.6 -7.41351 
13700 2 2.72493 4.97261 6.43661 6.00175 -134273 -214889 1334.37 25771.3 33967 -11693.6 -7.41358 
13701 2 2.04173 3.73062 6.44726 6.00211 -161383 -187171 -1214.1 8970.9 31685.6 -20902.4 -7.41324 
13702 2 2.77849 2.5196 6.45088 6.0035 -150667 -197976 -2301.62 4717.27 20398.6 -22310.9 -7.41299 
13703 2 2.09732 1.27649 6.45901 6.01713 -167565 -178652 -3200.23 -8181.43 14061.3 -21767.4 -7.41286 
13704 2 2.83444 0.0655602 6.45686 6.00979 -172713 -174104 -3079.91 -5605.02 -1056.46 -28718.9 -7.4129 
13898 2 4.77947 8.69616 6.4121 6.00073 -105359 -241509 2300.72 39216.6 20452.1 3142.56 -7.41451 
13899 2 4.09251 7.45629 6.41821 5.99341 -133004 -216366 717.368 25875.1 24815.2 -22139.7 -7.41424 
13900 2 4.82771 6.2445 6.42162 6.00515 -113159 -239133 -1511.78 23788.6 24229.2 -9908.65 -7.41372 
13901 2 4.14243 5.00378 6.43056 5.9985 -137811 -209566 3517.58 3090.45 32075.9 -30167.1 -7.41412 
13902 2 4.87888 3.79257 6.43287 5.99986 -130605 -222643 -2973.97 450.025 19109.9 -24762.9 -7.41326 
13903 2 4.19584 2.55064 6.44231 6.00901 -151239 -195161 2375.68 -20646.4 24505.7 -34533.8 -7.41367 
13904 2 4.9328 1.33956 6.44082 5.99752 -157302 -193393 -1987.55 -17919.9 5296.17 -36813.6 -7.41326 
13905 2 4.25164 0.0965139 6.44726 6.00354 -172077 -175827 -469.36 -32062.9 4364.99 -33616.1 -7.41322 
14099 2 6.19721 8.72602 6.40983 5.99801 -118457 -224233 6145.74 18101.2 11892.5 -20012.7 -7.41507 
14100 2 6.93199 7.51392 6.41126 6.01237 -106656 -246047 -8124.27 19645.2 11940.4 -1328.62 -7.41355 
14101 2 6.24536 6.274 6.41641 6.00013 -121452 -220822 9571.78 -3580.55 23749.6 -27915.2 -7.41518 
14102 2 6.98119 5.06238 6.41754 6.00574 -119351 -236525 -8516.13 -3945.63 11793.9 -15557.9 -7.41324 
14103 2 6.29638 3.82151 6.42459 6.0053 -134414 -208698 8850.65 -31014.4 26402.7 -34095.2 -7.4148 
14104 2 7.03287 2.61009 6.42384 5.99561 -142556 -211999 -5364.45 -27719.3 5300.47 -29763.5 -7.41338 
14105 2 6.3501 1.36808 6.43054 6.00246 -158071 -188606 4666.46 -51421.1 16358.9 -35561 -7.4141 
14106 2 7.08625 0.156298 6.42655 5.99385 -173157 -177054 686.019 -39507.6 -5161.19 -39321.6 -7.41396 
14300 2 9.03673 8.7821 6.40636 6.01341 -114367 -234232 -16029.5 19153.6 3688.72 6309.94 -7.41322 
14301 2 8.3497 7.54236 6.40807 6.00282 -120385 -214854 16344.1 -5821.69 11804.7 -21302.2 -7.41612 
14302 2 9.0846 6.33011 6.40823 6.01278 -122612 -230719 -16358.2 -3681.09 4084.09 -2781.61 -7.41299 
14303 2 8.39878 5.08978 6.41185 6.00277 -128156 -208145 15624.5 -33929.6 20339 -25090.1 -7.41593 
14304 2 9.13445 3.8778 6.41156 6.00195 -137837 -216649 -12343 -29951.5 1681.51 -14308.2 -7.41319 
14305 2 8.45029 2.63659 6.41614 5.99806 -146625 -194578 10506 -60132.5 20172.1 -26934 -7.4152 
14306 2 9.18611 1.42452 6.41436 5.99492 -160738 -191022 -4336.68 -48998.3 -4211.63 -24626.4 -7.41388 
14307 2 8.50347 0.182431 6.41821 6.00235 -173159 -175661 2444.41 -72672.5 11288.4 -24798.5 -7.41426 
1235 1 10.8054 8.37383 2.99818 6.01314 -203385 -139558 -23313.3 1360.56 -758.828 2000.09 -7.41284 
1236 1 11.4889 7.1316 2.99795 6.0085 -199908 -128041 25946.9 -2823.83 6836.94 -17966 -7.41709 
1237 1 10.7572 5.91727 2.99481 6.0148 -203172 -146367 -20919 31145.6 -1171.36 -487.796 -7.4128 
1238 1 11.4402 4.67492 2.99449 6.00638 -195245 -136213 21181.3 25905 11978.9 -17141.8 -7.41664 
1239 1 10.7072 3.46111 2.99164 6.01426 -197373 -154832 -13901.3 60461.3 -3971.04 -4822 -7.41321 
1240 1 11.3898 2.21875 2.99217 6.00087 -186594 -151152 12089.7 49263.7 13207.6 -16684.9 -7.4157 
1241 1 10.6556 1.00554 2.99006 6.00523 -183112 -165840 -3500.15 78163.3 -10159.5 -9729.27 -7.41406 
1436 1 13.638 8.31916 3.00288 6.01315 -186672 -142374 32711 -11596.1 11377 -22181 -7.41755 
1437 1 12.9062 7.10503 2.99906 6.0206 -182950 -157302 -28743.5 20427.9 -3772.66 66.4421 -7.41262 
1438 1 13.5903 5.86331 2.99801 6.00907 -181356 -148962 27574.7 15030.4 15523.2 -14438.2 -7.41717 
1439 1 12.8574 4.64962 2.99534 6.01742 -183422 -162237 -21941.5 48747.5 -6471.9 1511.23 -7.41291 
1440 1 13.5409 3.40774 2.99474 6.002 -178753 -154576 18553.5 40557.2 17062.3 -9221.17 -7.41634 
1441 1 12.807 2.19442 2.9935 6.00745 -180965 -164880 -11065.6 71567.1 -10611.9 629.217 -7.41367 
1442 1 13.4901 0.952465 2.99404 6.00058 -175361 -162367 6173.3 56216.5 14598.6 -5569.18 -7.4152 
1637 1 15.0554 8.29266 3.00472 6.01875 -168237 -162274 -36262 15844.6 203.201 -9030.52 -7.41269 
1638 1 15.7405 7.05148 3.00317 6.00621 -176174 -159124 34072.2 9799.53 22806.4 -23340.2 -7.4176 
1639 1 15.0076 5.83784 2.99854 6.01717 -166692 -170733 -29734.4 40031.8 -4216.78 -3239.67 -7.41279 
1640 1 15.692 4.59644 2.99707 5.99936 -171420 -163559 24534.6 34398.7 23943.6 -12909.5 -7.41681 
1641 1 14.9581 3.38322 2.99469 6.00795 -169673 -170667 -19078.6 63233 -9194.78 671.941 -7.41333 
1642 1 15.6418 2.14154 2.99441 5.99769 -171337 -163878 12268.8 53694.8 20805 -5683.72 -7.41575 
1643 1 14.9073 0.928491 2.99434 6.0025 -172745 -165730 -5341.93 77424.1 -14664 1390.97 -7.41429 
1838 1 17.89 8.24067 3.01304 6.0014 -186915 -155918 42736 15139.9 30582.9 -38474.6 -7.41824 
1839 1 17.1579 7.02655 3.00549 6.01043 -159878 -170477 -37540.3 42340.9 2430.75 -15353.8 -7.41294 
1840 1 17.843 5.78554 3.00363 5.99314 -174479 -166887 31618.2 37898.9 32865.5 -25788.1 -7.41736 
1841 1 17.1093 4.57216 2.99812 6.00548 -159594 -175148 -27055.4 63453.5 -4097.82 -9025.92 -7.41322 
1842 1 17.7936 3.3308 2.99719 5.99022 -169941 -168267 18433.7 58668.8 29709.3 -15224.6 -7.41628 
1843 1 17.0591 2.11777 2.99489 5.99903 -165295 -169800 -13488.4 79987.1 -11682.4 -4850.42 -7.4139 
1844 1 17.7426 0.87604 2.99593 5.99307 -170083 -163699 4271.86 70924.1 21235.2 -8583.43 -7.41517 
14501 2 10.4544 8.81033 6.40424 6.00631 -132282 -198903 22937.7 -2604.9 3563.58 -19174.1 -7.41678 
14502 2 11.1882 7.59737 6.40351 6.01947 -135211 -210497 -24395.3 2050.99 1120.45 4313.25 -7.41272 
14503 2 10.5022 6.35702 6.40478 6.00681 -136439 -193566 22575.6 -28978.1 12495 -17243 -7.41679 
14504 2 11.2367 5.14432 6.4045 6.01059 -144431 -204153 -20384.2 -24301.2 -874.59 -1006.8 -7.41287 
14505 2 10.5519 3.90339 6.40692 5.99867 -146359 -187289 17193.2 -56931.9 17928.7 -15844.9 -7.41621 
14506 2 11.287 2.69085 6.40658 6.00194 -157737 -191186 -11780.2 -47551 -4829.44 -8039.52 -7.41351 
14507 2 10.6034 1.44928 6.40923 5.99771 -163862 -177704 7782.33 -76534 16518.1 -13622.6 -7.41518 
14508 2 11.3384 0.236551 6.40814 5.99897 -173240 -171512 60.777 -57590.9 -9976.86 -13909.8 -7.41455 
14702 2 13.2916 8.86498 6.39938 6.02118 -145207 -191011 -32054 9678.69 4525.2 840.364 -7.41264 
14703 2 12.6057 7.62446 6.40037 6.01181 -152543 -175994 29252.3 -20779.9 9559.36 -18192.7 -7.41733 
14704 2 13.339 6.41103 6.39974 6.01834 -154793 -183931 -28190.4 -15221.9 1044.83 2282.25 -7.41267 
14705 2 12.6541 5.17 6.40138 6.00452 -157114 -171004 24385.3 -47320.7 15575.8 -11387.6 -7.41692 
14706 2 13.3883 3.95685 6.40167 6.00967 -162492 -178699 -19818.3 -39921.8 -3405.37 956.641 -7.41314 
14707 2 12.7043 2.71538 6.40373 5.99957 -164600 -168936 14749.8 -70050.9 17912.7 -6102.03 -7.416 
14708 2 13.4389 1.50239 6.40431 6.00348 -169638 -171451 -7609.95 -55821.4 -9186.29 -2143.26 -7.41404 
14709 2 12.7556 0.260589 6.40596 6.001 -173946 -167118 2059.26 -79721.3 15462.7 -2100.48 -7.4148 
14903 2 14.709 8.89208 6.39456 6.0115 -164084 -168917 36039.6 -16378.1 14168.1 -28684.5 -7.41776 
14904 2 15.4414 7.67806 6.39364 6.01837 -157514 -170728 -35663.2 -9420.56 7215.78 -5304.33 -7.41275 
14905 2 14.7564 6.43699 6.39606 6.01087 -170211 -157609 31555.5 -39755.1 18148.3 -17565.6 -7.41741 
14906 2 15.4896 5.22325 6.39648 6.01288 -166311 -164140 -27545.8 -33689.2 1705.12 -1513.45 -7.41299 
14907 2 14.8055 3.98168 6.39916 6.00298 -172631 -155593 22374.4 -62433.4 20320.4 -8071.32 -7.41661 
14908 2 15.5395 2.76831 6.40059 6.00553 -170708 -162600 -15793.4 -53171.6 -5651.71 -273.287 -7.41362 
14909 2 14.8561 1.52648 6.40301 6.00055 -173556 -159492 9355.58 -76983.4 19045.4 -1548.09 -7.41548 
14910 2 15.5906 0.313371 6.40436 6.00098 -172047 -163080 -1784.26 -60906.7 -13943.6 -1644.9 -7.4146 
15104 2 17.5447 8.94411 6.38422 6.00413 -145314 -174751 -43915.1 -11811.3 14063.6 -17742.8 -7.41303 
15105 2 16.8588 7.70352 6.38819 6.01065 -174202 -157686 39339.6 -40775.6 26377.7 -31097.2 -7.41792 
15106 2 17.5913 6.48933 6.38876 6.00601 -160466 -159788 -35203.7 -34893.4 8896.74 -12303.1 -7.41313 
15107 2 16.9068 5.24792 6.39274 6.00471 -178800 -148269 30175.7 -62120.6 26931.5 -19407 -7.41713 
15108 2 17.6403 4.03414 6.39453 6.00243 -168398 -155166 -23645.6 -56669.5 789.935 -7993.93 -7.4135 
15109 2 16.9568 2.79229 6.39846 5.99956 -177578 -150245 17293.7 -79287.3 24504.3 -9994.03 -7.41608 
15110 2 17.691 1.57894 6.40051 5.99705 -170728 -157804 -10100.3 -70263.3 -9991.23 -6367.02 -7.4142 
15111 2 17.0078 0.337011 6.40345 5.99734 -172498 -159440 1991.45 -86102.4 19046.9 -4901.21 -7.41492 
2039 1 19.3073 8.21749 3.01795 5.99762 -169696 -155709 -46691.1 56486.9 9683.29 -27134.3 -7.41318 
2040 1 19.9928 6.9767 3.01656 5.98592 -191604 -156074 41916.1 51969.5 40715 -40810.2 -7.41822 
2041 1 19.2603 5.76258 3.00751 5.99877 -160678 -169802 -35284.1 76077.1 3191.21 -22367.1 -7.41331 
2042 1 19.945 4.52149 3.00621 5.97984 -178292 -165253 26657 74148.8 39903.5 -29831 -7.41702 
2043 1 19.2108 3.30812 2.99999 5.99194 -160939 -171018 -21704.3 93873.2 -5987.85 -17312.5 -7.41374 
2044 1 19.8946 2.06661 3.00047 5.98019 -171941 -164931 11093 90566 31515.4 -21203.1 -7.41582 
2045 1 19.1598 0.853514 2.99821 5.98878 -167042 -162991 -6246.31 104136 -16453.9 -14874.6 -7.41451 
2240 1 22.1407 8.17167 3.03437 5.98087 -219624 -130750 55567.9 72794.5 44817.1 -51424.7 -7.41944 
2241 1 21.4101 6.95616 3.02328 5.98982 -176377 -151296 -45129.8 97878.2 9158.22 -32417.3 -7.41342 
2242 1 22.0951 5.71528 3.02221 5.96986 -197964 -149592 38191.3 97072 48428.8 -43003.7 -7.41809 
2243 1 21.3622 4.50099 3.01218 5.98374 -167141 -163131 -30259.3 117857 570.766 -29630.5 -7.41372 
2244 1 22.0462 3.25974 3.0119 5.96561 -182330 -158603 20227.8 118464 43062.6 -34866.6 -7.41671 
2245 1 21.3118 2.04619 3.00543 5.97749 -165894 -163064 -14568.6 132443 -11537 -26925.6 -7.41428 
2246 1 21.9952 0.804586 3.00748 5.96514 -171716 -159767 3592.31 129868 29288.8 -29089.2 -7.41553 
2441 1 23.5577 8.15419 3.0426 5.98578 -203136 -122593 -57753.1 122595 11342.1 -36092.2 -7.41333 
2442 1 24.2432 6.91349 3.04249 5.96367 -224766 -122641 52265.2 122083 52864.3 -50289.1 -7.41942 
2443 1 23.5122 5.69774 3.03048 5.97818 -184990 -144212 -40495.4 146241 5382.08 -36911.3 -7.41367 
2444 1 24.1967 4.45677 3.0296 5.95327 -201287 -141451 32012.6 149101 52908.2 -44714.8 -7.41787 
2445 1 23.4634 3.24224 3.01942 5.96729 -173867 -155007 -23331.6 166607 -5867.23 -36051.6 -7.41413 
2446 1 24.147 2.00096 3.01989 5.95023 -182050 -152617 12882.7 168339 42119.5 -39540.3 -7.41643 
2447 1 23.4124 0.787121 3.01386 5.96159 -168604 -156640 -6318.87 177024 -20687.6 -35803.9 -7.41485 
2642 1 26.3888 8.11666 3.06327 5.96202 -252898 -90886.8 67303.1 143858 52713.3 -51050.7 -7.42083 
2643 1 25.6602 6.89917 3.05139 5.97649 -210316 -118106 -53238.4 172093 7027.72 -38197.6 -7.41346 
2644 1 26.3452 5.65852 3.05041 5.94598 -224973 -116422 45490.5 176089 58612.4 -48329.9 -7.4192 
2645 1 25.6138 4.44258 3.03829 5.96117 -190966 -138673 -33701.7 199185 -1150.84 -39761.2 -7.41394 
2646 1 26.2979 3.20169 3.03707 5.93708 -199170 -136585 23994.6 204117 53470.9 -45192.6 -7.41753 
2647 1 25.5642 1.98691 3.02763 5.94991 -176533 -149610 -15281.1 218066 -15220.5 -40333.9 -7.41457 
2648 1 26.2479 0.74587 3.02808 5.93287 -175835 -151701 4704.55 218174 37408.3 -42405 -7.4161 
2843 1 27.8056 8.10538 3.07148 5.9781 -236986 -89811.9 -67587.3 191229 5684.72 -35353.1 -7.41307 
2844 1 28.4914 6.8651 3.07099 5.94403 -248592 -88778.5 59576 195504 59595.1 -46428.1 -7.42056 
2845 1 27.7621 5.64753 3.05871 5.95973 -213023 -116984 -46117.8 224125 1559.33 -38608.8 -7.41363 
2846 1 28.447 4.40708 3.05623 5.92899 -219634 -114835 36303.5 231166 60972 -45294.6 -7.41875 
2847 1 27.7149 3.19102 3.04481 5.94343 -191760 -136574 -25588.7 252196 -9479.92 -40245.7 -7.41425 
2848 1 28.3991 1.95043 3.04272 5.92266 -191600 -137446 14754.6 256347 49900.8 -43949.3 -7.41703 
2849 1 27.665 0.735427 3.03464 5.93258 -173433 -148967 -6541.07 265811 -26099.7 -41743.2 -7.41512 
15305 2 18.9621 8.96782 6.37737 6.00626 -162461 -174832 49262.5 -51698.9 36652 -44662.5 -7.41874 
15306 2 19.6943 7.75335 6.3786 5.99001 -141167 -172102 -44344 -44878.7 14611.7 -24260.3 -7.41336 
15307 2 19.0086 6.5127 6.38356 6.00033 -174470 -154825 38883.4 -71971.5 37011.4 -34453.5 -7.41783 
15308 2 19.7416 5.29858 6.38562 5.98838 -156360 -158437 -31701.5 -68405.8 7867.16 -20155.8 -7.41361 
15309 2 19.0575 4.05709 6.39081 5.99489 -177570 -147926 25668.2 -91040.6 33405 -24408.2 -7.41672 
15310 2 19.7915 2.84344 6.39317 5.98532 -164993 -155335 -18034.4 -87403.9 -3508.84 -16946.4 -7.41407 
15311 2 19.1082 1.60156 6.39787 5.99012 -173989 -152563 10123.3 -103131 26168.7 -17208.1 -7.41555 
15312 2 19.843 0.388318 6.39887 5.98222 -169087 -159528 -3793.57 -95741.7 -17923.6 -16814.7 -7.41481 
15506 2 21.7996 9.01354 6.36819 5.97237 -111463 -199132 -56419.4 -61091 16349.6 -31683.5 -7.4134 
15507 2 21.1117 7.77424 6.37303 5.98961 -156450 -176167 49612.5 -89393.1 46809.8 -46584.7 -7.41886 
15508 2 21.8446 6.55989 6.37562 5.97064 -134005 -175865 -41573 -86210.3 12539 -30583.3 -7.41371 
15509 2 21.159 5.31934 6.3809 5.98451 -167539 -157739 35100.1 -110952 44138 -38875.6 -7.41759 
15510 2 21.8928 4.10538 6.38344 5.96823 -150579 -162585 -26354.5 -110704 3211.62 -28349.8 -7.41409 
15511 2 21.2088 2.86401 6.38894 5.97922 -170823 -152172 18974.3 -128580 36290.8 -31505.4 -7.4163 
15512 2 21.9434 1.65046 6.39017 5.9659 -162311 -158707 -11565.1 -127116 -11936.1 -27107.7 -7.41466 
15513 2 21.2602 0.408752 6.39458 5.97622 -168914 -156591 2031.32 -136586 24701.3 -27120.6 -7.41515 
15707 2 23.2173 9.03123 6.36374 5.97543 -128055 -206817 62563 -109180 52682 -52480.7 -7.42015 
15708 2 23.95 7.81669 6.36723 5.95432 -105019 -203642 -54165.9 -105627 13119.1 -35738.3 -7.41358 
15709 2 23.2621 6.57756 6.37129 5.97031 -147070 -178930 46239.6 -133613 53208.1 -48610.7 -7.41877 
15710 2 23.9957 5.36334 6.37406 5.95109 -128589 -180825 -36469.6 -135132 7649.26 -36245.6 -7.41404 
15711 2 23.3101 4.12298 6.37883 5.96539 -158866 -161765 28854.8 -157354 47296 -43163.5 -7.41728 
15712 2 24.0447 2.90911 6.38028 5.94834 -148391 -166541 -19921.5 -160243 -5242.64 -35715.4 -7.41456 
15713 2 23.3607 1.66796 6.38487 5.96146 -165013 -156043 11121.2 -173616 35614.7 -38201 -7.41592 
15714 2 24.0957 0.454291 6.3833 5.94743 -165494 -158995 -4089.82 -172732 -23884.9 -36354.1 -7.41532 
15908 2 26.0582 9.06848 6.36231 5.94197 -74807.9 -234526 -68486.2 -123114 10109.1 -35529.8 -7.41317 
15909 2 25.3677 7.83098 6.36446 5.95547 -120139 -206444 58962.9 -153609 57778.7 -52199.5 -7.42014 
15910 2 26.1011 6.61649 6.36759 5.93727 -103219 -206064 -48820 -155966 8415.15 -38924.4 -7.41377 
15911 2 25.4133 5.37752 6.37044 5.95036 -139472 -179911 40012.6 -183110 56043 -49551.3 -7.41851 
15912 2 26.1476 4.16331 6.37207 5.93312 -129122 -182809 -29860.3 -189051 -11.4065 -40196.5 -7.41436 
15913 2 25.4621 2.92317 6.37543 5.94566 -153984 -163147 21036.9 -208548 46879.2 -45445 -7.4169 
15914 2 26.197 1.70913 6.37448 5.93097 -153001 -165479 -12586.7 -212609 -16818.8 -40827.2 -7.41507 
15915 2 25.513 0.468292 6.37698 5.94481 -165422 -155159 2642.49 -221737 31981.9 -41950.2 -7.41554 
16109 2 27.4761 9.07957 6.36149 5.94293 -91965.5 -233673 72241.7 -168215 57360.3 -50904.4 -7.42149 
16110 2 28.2091 7.86475 6.3651 5.92824 -78262 -231773 -62389.2 -170720 5871.28 -37168.2 -7.41329 
16111 2 27.5188 6.62731 6.36568 5.93647 -116465 -201818 52251.7 -201534 60307.8 -50691.8 -7.41988 
16112 2 28.2527 5.41272 6.36744 5.92253 -107811 -203534 -41462.6 -209484 2260.6 -40219 -7.41399 
16113 2 27.5651 4.17387 6.36872 5.93101 -137512 -176600 31888.2 -235196 55835.9 -48092.7 -7.41808 
16114 2 28.2998 2.95944 6.36831 5.91843 -136282 -178868 -22282.4 -243493 -10076 -41622.9 -7.41471 
16115 2 27.6144 1.71954 6.3695 5.92874 -156029 -160102 12276.7 -259447 43368.9 -44493.4 -7.41641 
16116 2 28.3493 0.50505 6.36566 5.91813 -164074 -157805 -4323.74 -261281 -30001.2 -42656.3 -7.41566 
3044 1 30.6352 8.07609 3.08938 5.94629 -268482 -63738.4 73345.2 206213 56950.1 -41446.4 -7.4218 
3045 1 29.9082 6.8569 3.078 5.96177 -235202 -94476.4 -59702.3 238740 1947.62 -34615.3 -7.41323 
3046 1 30.5941 5.61695 3.07497 5.92673 -239363 -91990.8 49209.8 246979 63931.9 -41343.2 -7.41999 
3047 1 29.864 4.39943 3.0629 5.94224 -210566 -119897 -37331.1 274732 -4677.59 -36913.2 -7.41387 
3048 1 30.549 3.15934 3.05875 5.91428 -209621 -118956 25835.4 282269 59272.3 -41343.5 -7.41807 
3049 1 29.8162 1.94322 3.04859 5.92611 -187232 -138533 -16648 299568 -18952.2 -38404.1 -7.41467 
3050 1 30.5009 0.703164 3.04549 5.91065 -179767 -144477 4903.47 299778 42847.6 -41083.3 -7.41639 
3245 1 32.0519 8.07014 3.09493 5.96277 -253557 -73961.7 -73112.3 243803 325.203 -29658 -7.41279 
3246 1 32.7389 6.83071 3.092 5.92905 -255771 -71666.5 62100.1 252144 63114.1 -35635.5 -7.42116 
3247 1 32.0109 5.61175 3.08013 5.94474 -228673 -102626 -49830.4 284584 -1802.66 -32089.5 -7.41347 
3248 1 32.6969 4.37221 3.07469 5.91166 -226752 -99954.7 37629 294559 64676 -36214.1 -7.41918 
3249 1 31.9659 3.15482 3.06337 5.92519 -203426 -125715 -27574.1 319384 -11955.1 -33500.3 -7.41421 
3250 1 32.6513 1.91523 3.05793 5.90323 -196742 -127862 15068.2 324396 53667 -36928.7 -7.41725 
3251 1 31.9181 0.699064 3.04933 5.9108 -178319 -143612 -7033.94 336059 -29162.1 -35052.1 -7.41524 
3446 1 34.8816 8.04768 3.1069 5.93435 -267943 -55696.2 74372 249193 59805.4 -29911.8 -7.42221 
3447 1 34.1556 6.82739 3.0957 5.94957 -243550 -86850.3 -62262.3 283815 -1170.12 -27056.7 -7.41308 
3448 1 34.8429 5.58841 3.08972 5.91379 -241237 -83043.1 49656.9 295050 66381.5 -30344.4 -7.42027 
3449 1 34.1138 4.36975 3.07795 5.92821 -218897 -112483 -38929.6 325521 -6519.83 -28295.3 -7.41379 
3450 1 34.8001 3.13066 3.07085 5.90015 -212854 -111123 25962.9 334566 61460 -31485.1 -7.41821 
3451 1 34.0683 1.91342 3.06075 5.91014 -193385 -132983 -17301.7 354238 -20597.8 -29289.4 -7.41468 
3452 1 34.7544 0.674419 3.05472 5.8962 -182847 -139827 4658.01 354208 45233.2 -32439.6 -7.41639 
3647 1 36.2982 8.04573 3.1094 5.952 -254131 -73544.5 -74048.4 275520 -2383.75 -22505.9 -7.41271 
3648 1 36.9867 6.80732 3.10348 5.91919 -251866 -69574.5 61424.8 286850 65211.1 -24912.8 -7.42131 
3649 1 36.2596 5.58745 3.09175 5.93388 -231642 -100202 -50319.6 320484 -3397.5 -23485.5 -7.41342 
3650 1 36.9471 4.3489 3.08371 5.90166 -226322 -96160 37203 332331 65962.1 -25908.3 -7.41923 
3651 1 36.217 3.13055 3.07265 5.91348 -207635 -122317 -27748.4 358697 -13026.7 -24080.9 -7.4142 
3652 1 36.9038 1.89194 3.06493 5.89292 -198715 -123996 14881.9 364219 54794.3 -27327.8 -7.41723 
3653 1 36.1715 0.674805 3.05632 5.89827 -182069 -140626 -6831.6 376960 -30294.6 -25201.7 -7.41529 
16310 2 30.3197 9.10866 6.36613 5.92365 -56562 -253202 -75668.5 -179132 1517.48 -32857.1 -7.41273 
16311 2 29.6269 7.87266 6.36481 5.92594 -93752.9 -222864 64853.5 -211512 59952.8 -48187.3 -7.4212 
16312 2 30.3602 6.65764 6.36664 5.91692 -87654.5 -223734 -53941.3 -220274 1470.41 -37028.2 -7.4135 
16313 2 29.6703 5.42016 6.36578 5.91949 -118761 -192836 43542.7 -250505 60766.5 -47008.6 -7.41937 
16314 2 30.4046 4.20531 6.36565 5.91094 -118361 -195525 -33000.5 -262051 -5411.64 -39254.8 -7.41425 
16315 2 29.7173 2.96655 6.36515 5.91527 -142202 -169721 22704.8 -284944 52874.8 -43895.8 -7.41747 
16316 2 30.452 1.7517 6.36237 5.90794 -149251 -169422 -13983.3 -292230 -21736.4 -40408.9 -7.41514 
16317 2 29.7666 0.512056 6.36101 5.91684 -164785 -153230 2878.47 -303642 37205.6 -40576.9 -7.41584 
16511 2 31.7376 9.11425 6.36695 5.91988 -74062.1 -240190 77001.3 -214270 56418.9 -43894.3 -7.42236 
16512 2 32.4702 7.89875 6.36885 5.91508 -70472 -240105 -66326.3 -222815 -1373.54 -32283.7 -7.41298 
16513 2 31.778 6.66257 6.36625 5.91139 -100933 -208419 55524.9 -255106 61549.5 -43679.3 -7.42063 
16514 2 32.5115 5.44723 6.36616 5.90796 -101910 -211554 -44296.6 -268643 -3510.67 -34996.5 -7.41377 
16515 2 31.8221 4.20967 6.36403 5.9058 -126906 -181364 33807.8 -296806 59136.7 -41258.6 -7.41864 
16516 2 32.5564 2.99442 6.36194 5.90258 -133705 -183381 -24007.5 -308885 -14555.6 -36422.7 -7.41459 
16517 2 31.8694 1.75575 6.35956 5.90443 -152810 -160575 13022.3 -327453 47254.7 -37817.4 -7.41675 
16518 2 32.6037 0.540283 6.35453 5.90187 -165660 -155677 -5006.65 -330127 -33858.6 -37071.4 -7.41569 
16712 2 34.5822 9.13684 6.37295 5.91592 -56851 -251774 -77932.4 -219558 -5084.33 -27241.7 -7.41249 
16713 2 33.888 7.9018 6.36917 5.90756 -85903.3 -221616 67257.8 -251837 59238.9 -39439.6 -7.42178 
16714 2 34.6206 6.68593 6.36895 5.90765 -87875 -224663 -55715.9 -265867 -3979.2 -30091.1 -7.41329 
16715 2 33.9291 5.44952 6.36549 5.90002 -112763 -192890 45209.4 -296957 61797.7 -37650 -7.41984 
16716 2 34.6626 4.23379 6.36368 5.90037 -119152 -196873 -34280.8 -312440 -9657.67 -31657.5 -7.41409 
16717 2 33.9738 2.99614 6.36041 5.89629 -139773 -169311 23704.4 -336902 55072.3 -34418.8 -7.41778 
16718 2 34.7078 1.78037 6.35649 5.89693 -151176 -168604 -14719.4 -345891 -24848.7 -32470.9 -7.41504 
16719 2 34.0209 0.541822 6.35226 5.89889 -166947 -150549 3125.98 -358756 39383.4 -31230.7 -7.41599 
16913 2 36.0002 9.13854 6.37351 5.90747 -74089.1 -231355 78285 -243429 55182.1 -35154.7 -7.42277 
16914 2 36.7317 7.92211 6.37316 5.90875 -76491.3 -233730 -66846.3 -256707 -5975.92 -25360.2 -7.41286 
16915 2 36.0383 6.68673 6.36869 5.89751 -100731 -202721 56488.7 -288543 61392.9 -33814 -7.42096 
16916 2 36.7708 5.47048 6.36684 5.90004 -106616 -208069 -44753 -305856 -7274.51 -26893.8 -7.41363 
16917 2 36.0801 4.23382 6.36282 5.89241 -127499 -178161 34581.6 -334157 59962 -30982.9 -7.41889 
16918 2 36.8135 3.01766 6.35956 5.89416 -137583 -181272 -24325.6 -348340 -17345 -27794.9 -7.41448 
16919 2 36.1251 1.77996 6.35519 5.89116 -154927 -158106 13576.5 -367594 48515.3 -27658.7 -7.41689 
16920 2 36.8585 0.563555 6.34961 5.89146 -168875 -152938 -5172 -370530 -35611.8 -28070.2 -7.41561 
3848 1 39.1287 8.02832 3.11582 5.92647 -259013 -59904.1 72564.6 273053 62095.9 -20411.4 -7.42225 
3849 1 38.4035 6.80738 3.10448 5.94038 -240553 -89583.1 -61441.2 307585 -2535.01 -19346.3 -7.41309 
3850 1 39.0921 5.56937 3.09612 5.90654 -236449 -83901.9 48407.7 320927 67452.1 -20907.8 -7.42025 
3851 1 38.3639 4.34995 3.08457 5.9195 -219250 -112396 -38234.6 351789 -7490.19 -19667.7 -7.4138 
3852 1 39.0516 3.11177 3.0757 5.89337 -211958 -109779 25431.5 361783 61833.4 -22349.1 -7.41816 
3853 1 38.3208 1.8937 3.06583 5.90154 -195928 -131271 -16746.8 382077 -21391.9 -20182.7 -7.41471 
3854 1 39.0082 0.655581 3.05839 5.88963 -185062 -137390 4622.82 382203 45885.4 -23646.8 -7.41632 
4048 1 41.2689 9.25093 3.12668 5.93462 -263208 -53241 82867.5 256385 57839.1 -16904.6 -7.42308 
4049 1 40.5454 8.02905 3.11599 5.94547 -246122 -81052.5 -72075 290168 -3412.41 -15937.5 -7.4128 
4050 1 41.2354 6.79158 3.10778 5.91355 -243464 -75027.1 59290.8 303780 66513.4 -16788.9 -7.42123 
4051 1 40.5089 5.57116 3.09615 5.92622 -227616 -103846 -48671.6 336775 -4309.2 -16030.7 -7.41347 
4052 1 41.1977 4.33346 3.08666 5.89709 -222167 -97982.2 36055 349986 66102.2 -17883.9 -7.41914 
4053 1 40.4685 3.11445 3.07592 5.90735 -207221 -122797 -26613.5 376065 -13864.5 -16174.3 -7.41424 
4054 1 41.1565 1.87664 3.06728 5.88902 -198677 -123196 14601 382171 54712.7 -19440.1 -7.41715 
4055 1 40.4252 0.658748 3.0589 5.89282 -184436 -138914 -6147.46 394832 -30871.7 -16997.1 -7.41534 
4249 1 42.6856 9.25207 3.12614 5.95076 -248782 -74319.9 -82053.4 270610 -5393.36 -13214 -7.41253 
4250 1 43.3768 8.01512 3.11844 5.92183 -247578 -68842.7 69656.1 283515 63825.1 -13594.3 -7.42212 
4251 1 42.6521 6.7938 3.10709 5.93365 -232856 -96650.8 -58955.4 316842 -3253.91 -13078.5 -7.4132 
4252 1 43.3421 5.5566 3.09743 5.9032 -229291 -88943.9 46552.6 331805 67753.7 -14136.8 -7.42013 
4253 1 42.6146 4.33668 3.08624 5.91407 -215550 -115460 -36468.7 361650 -8395.32 -13001.3 -7.41388 
4254 1 43.3035 3.09924 3.07675 5.89117 -209202 -111248 24661.3 372449 61414 -15608.4 -7.41807 
4255 1 42.5735 1.88055 3.0673 5.89794 -196115 -131149 -15700.4 392103 -22128.6 -13312.3 -7.41477 
4256 1 43.262 0.643107 3.05955 5.88825 -186435 -135795 4652.24 392771 45789.4 -16918.3 -7.41628 
4450 1 45.5167 9.23966 3.12787 5.93068 -249557 -65037.6 79394.7 261918 60009.5 -11221.9 -7.42293 
4451 1 44.7936 8.01755 3.1171 5.94152 -235311 -90885.3 -68944.5 294245 -3844.17 -10720.3 -7.41295 
4452 1 45.4848 6.78085 3.10768 5.91096 -233747 -82601.9 56782.5 309657 67201.1 -11165.3 -7.42107 
4453 1 44.7589 5.56008 3.0964 5.92171 -220879 -109320 -46320.8 341322 -5138.11 -10474.4 -7.41359 
4454 1 45.4489 4.32306 3.08648 5.89585 -216720 -101753 34705.1 355453 65694.7 -12267.2 -7.41903 
4455 1 44.7204 3.10357 3.07627 5.9044 -204686 -124581 -25147.5 380442 -14785.6 -10478.8 -7.41434 
4456 1 45.4095 1.86637 3.06759 5.88879 -197526 -123466 14232.3 387091 54172.6 -13772 -7.4171 
4457 1 44.679 0.647895 3.05964 5.89162 -185825 -137583 -5474.82 399138 -31369.7 -11151 -7.41541 
4651 1 46.9335 9.24211 3.12589 5.94849 -235815 -86495.3 -78507.2 270822 -5547.81 -8870.82 -7.41272 
4653 1 46.9016 6.78437 3.10603 5.93002 -223644 -104405 -56122.2 317513 -3878.83 -8463.61 -7.41334 
4655 1 46.8658 4.32754 3.08545 5.91167 -210400 -119302 -34585.4 362080 -9366.94 -8280 -7.414 