ITEM: TIMESTEP
0
ITEM: NUMBER OF ATOMS
26936
ITEM: BOX BOUNDS pp pp pp
0.0000000000000000e+00 1.4251150300000000e+02
0.0000000000000000e+00 2.4683716400000000e+02
0.0000000000000000e+00 1.5000000000000000e+01
ITEM: ATOMS id type x y z c_csym c_2[1] c_2[2] c_2[3] c_2[4] c_2[5] c_2[6] c_3 
229 1 0.783 8.59 3 6.02406 -143607 -134351 -52017.8 10825.3 42961.1 -3337.78 -7.41209 
230 1 0.063 7.368 3 6.01988 -152367 -124517 -54112 809.153 41018.7 -644.737 -7.4121 
231 1 0.762 6.134 3 6.02366 -133378 -119040 -57434.8 -2057.36 34270.4 -3855.02 -7.41174 
232 1 0.042 4.912 3 6.02516 -151564 -125980 -59668.2 3903.97 29501.7 -322.171 -7.41157 
233 1 0.741 3.678 3 6.0239 -131266 -120414 -61507 2965.98 22250.9 -4270.65 -7.41153 
234 1 0.021 2.456 3 6.02705 -148814 -123904 -63117.3 4961.7 15487.3 -78.8216 -7.41185 
235 1 0.72 1.222 3 6.02411 -177254 -117832 -63922.8 3917.9 7824.96 -4470.21 -7.41211 
236 1 0 0 3 6.02774 -157849 -130425 -64267 13427.2 14.536 119.449 -7.41198 
431 1 2.201 8.577 3 6.02248 -143126 -156055 -50008.4 1607.71 45245.1 -11113.1 -7.41271 
432 1 2.899 7.343 3 6.02341 -149612 -147449 -53453.4 -1349.19 38040.5 -15585.3 -7.41275 
433 1 2.18 6.121 3 6.02248 -139340 -157501 -56436.2 -102.373 35398.8 -12060.2 -7.41248 
434 1 2.878 4.887 3 6.02366 -156955 -181005 -58605.5 -17231.7 27773.7 -16795 -7.41259 
435 1 2.159 3.666 3 6.01953 -140505 -157113 -61080.7 -33151.3 22600.7 -12632.8 -7.41202 
436 1 2.857 2.431 3 6.01835 -139120 -136096 -61696 -23375.3 14670.3 -17490.8 -7.41161 
437 1 2.137 1.21 3 6.02214 -183567 -147923 -63604.7 -16449.7 7632.95 -12977.1 -7.41211 
632 1 5.037 8.553 3 6.02603 -135697 -119611 -47666.7 2244.66 39752.5 -24982.9 -7.41226 
633 1 4.317 7.331 3 6.02603 -126044 -128325 -51479.6 7436.41 39349.6 -21415.4 -7.41204 
634 1 5.016 6.097 3 6.0241 -133226 -118941 -52847.7 2328.65 31866.3 -27534.3 -7.4122 
635 1 4.296 4.875 3 6.02691 -135163 -139854 -56673.6 20644 28133.1 -23306.5 -7.41209 
636 1 4.994 3.641 3 6.02246 -145706 -152157 -56851 1422.34 20564.6 -29177.3 -7.41236 
637 1 4.275 2.419 3 6.02329 -143054 -154951 -59871.4 7800.68 14338.5 -24921.2 -7.4121 
638 1 4.973 1.185 3 6.02446 -151893 -179097 -59417.7 -15469.9 7422.21 -29755 -7.4125 
833 1 6.455 8.541 3 6.02341 -141267 -157691 -45794.4 5153.47 40905.4 -28034.3 -7.41315 
834 1 7.153 7.307 3 6.02248 -151451 -148728 -45874.4 -2786.53 33776.4 -35396.2 -7.41293 
835 1 6.434 6.085 3 6.0222 -142789 -158729 -51209.3 7002.92 31867.6 -31317.1 -7.41241 
836 1 7.132 4.851 3 6.02475 -141485 -136047 -50293.2 14154.9 25064.7 -38077.1 -7.41229 
837 1 6.412 3.629 3 6.0241 -126723 -125023 -54880.9 8786.27 19826.9 -33801.4 -7.41208 
838 1 7.111 2.395 3 6.02498 -129335 -123214 -53489.9 94.7453 13772.5 -39471.1 -7.41208 
839 1 6.391 1.173 3 6.02538 -125771 -119222 -56599.5 4474.52 6273.28 -35302.6 -7.41189 
1034 1 9.291 8.516 3 6.0241 -184003 -118574 -37268.1 -2022.34 33606.6 -40302 -7.41336 
1035 1 8.571 7.294 3 6.02279 -134539 -145164 -44927.2 18005.8 33347.4 -35895.3 -7.41245 
1036 1 9.269 6.06 3 6.02197 -155823 -185896 -42698.2 -20898.5 27184 -43916.7 -7.41341 
1037 1 8.55 4.839 3 6.02097 -142978 -157844 -49273 -27058.6 23719.1 -39590.7 -7.41263 
1038 1 9.248 3.604 3 6.02097 -145073 -154327 -46758.3 -39286.3 18079.7 -46202.7 -7.41297 
1039 1 8.529 2.383 3 6.02341 -150176 -187671 -51616.5 -12159.1 11826.9 -42061.2 -7.41319 
1040 1 9.227 1.149 3 6.02168 -143399 -150112 -49321.2 -1964.42 7089.77 -46960.5 -7.41262 
13499 2 0.635 8.602 6.4 6.02649 -137476 -142326 -50506.5 -1228.71 45434.4 -2569.22 -7.41205 
13500 2 0.656 6.146 6.4 6.02745 -133461 -140857 -57046.3 -4753.56 35567.4 -3354.11 -7.41217 
13501 2 0.677 3.69 6.4 6.02826 -131496 -139819 -61649.9 -3033.29 22728.9 -3950.04 -7.41215 
13502 2 0.698 1.234 6.4 6.02665 -137366 -146188 -63834.2 -10506.2 7918.41 -4368.74 -7.41197 
13503 2 0 0 6.4 6.02886 -159997 -131427 -64305.7 -17247.8 -21.6247 124.781 -7.41161 
13697 2 2.053 8.614 6.4 6.02795 -153275 -146158 -51284.2 -3771.26 43057.9 -12009.9 -7.41265 
13698 2 2.772 7.392 6.4 6.0234 -140274 -157592 -52906.4 -1165.02 39699.6 -13866.4 -7.41269 
13699 2 2.074 6.158 6.4 6.02794 -141057 -133232 -56667.4 -17016.6 34370 -12690 -7.41218 
13700 2 2.794 4.936 6.4 6.0239 -174360 -123299 -58164.4 -1967.34 28410.7 -15690 -7.41228 
13701 2 2.095 3.702 6.4 6.02722 -130587 -121592 -60635.5 -3816.84 22338.4 -12936.6 -7.41154 
13702 2 2.815 2.48 6.4 6.02364 -126349 -124908 -61589.5 3634.43 14688.3 -16951.8 -7.41153 
13703 2 2.116 1.246 6.4 6.02504 -126407 -124881 -62671.2 -1859.19 7741.2 -13056.1 -7.41145 
13704 2 2.836 0.024 6.4 6.02172 -132696 -152946 -63050.7 -11894.5 -139.902 -17412.1 -7.41166 
13898 2 4.889 8.638 6.4 6.02367 -124241 -129890 -47597.4 5264.46 41624.6 -21786.6 -7.41234 
13899 2 4.19 7.404 6.4 6.02354 -142159 -152464 -51715.6 16106.5 38321.3 -23266.3 -7.41236 
13900 2 4.91 6.183 6.4 6.02179 -125601 -129105 -53399.1 37533.3 32516.8 -25187 -7.41182 
13901 2 4.211 4.948 6.4 6.02021 -179390 -119552 -56494 32263.9 28017.6 -24654.8 -7.41224 
13902 2 4.931 3.727 6.4 6.0231 -144233 -171940 -57628.1 8223.92 20300.7 -27852.5 -7.41224 
13903 2 4.233 2.493 6.4 6.0197 -142967 -154823 -59547.5 -473.591 14935.6 -25583.4 -7.4121 
13904 2 4.952 1.271 6.4 6.02364 -145011 -152101 -59256.8 1818.66 6754.05 -29306 -7.41224 
13905 2 4.254 0.037 6.4 6.02208 -141006 -145645 -60913.2 -3753.35 409.659 -25413.2 -7.41247 
14099 2 6.307 8.651 6.4 6.01969 -150525 -149923 -44755.6 105.576 40074.8 -31331.1 -7.41298 
14100 2 7.026 7.429 6.4 6.02508 -144943 -157513 -47482.8 2445.17 34220.4 -31652.8 -7.4126 
14101 2 6.328 6.195 6.4 6.02302 -148390 -149406 -49984.1 -5073.16 32219.2 -33664.9 -7.41293 
14102 2 7.047 4.973 6.4 6.0258 -141262 -156206 -52179.5 1955.06 24500.2 -35511.9 -7.41282 
14103 2 6.349 3.739 6.4 6.02549 -147663 -149854 -54325 -7625.43 20994.5 -35222.7 -7.41263 
14104 2 7.068 2.517 6.4 6.02463 -141829 -156700 -54861.4 1059.96 12601.9 -38198.3 -7.41248 
14105 2 6.37 1.283 6.4 6.02795 -138785 -137121 -56575.8 -20893.8 7808.64 -35752.3 -7.41201 
14106 2 7.09 0.061 6.4 6.02412 -126398 -117153 -55211.3 3289.17 -709.684 -39588.5 -7.41219 
14300 2 9.142 8.675 6.4 6.02463 -140868 -161012 -40978.3 3632.55 33779.7 -34715.4 -7.41318 
14301 2 8.444 7.441 6.4 6.02795 -144824 -134684 -42148.2 -19070.1 34294.9 -39678.4 -7.41273 
14302 2 9.164 6.219 6.4 6.02387 -173642 -126311 -45622.5 2573 26049.1 -39971 -7.41305 
14303 2 8.465 4.985 6.4 6.02531 -134396 -123098 -46611.8 -6312.78 25623.2 -42045.3 -7.41205 
14304 2 9.185 3.763 6.4 6.02364 -126187 -128576 -48426.9 8033.72 16096.1 -43868.1 -7.4122 
14305 2 8.486 2.529 6.4 6.0241 -130296 -122621 -49717.6 -4588.97 14361.5 -43285.5 -7.41234 
14306 2 9.206 1.307 6.4 6.02376 -135517 -142746 -49897.1 -6512.25 4707.37 -46199.8 -7.41222 
14307 2 8.508 0.073 6.4 6.02288 -148441 -185279 -51690.9 9613.99 1396.43 -43373 -7.41281 
1235 1 10.708 8.504 3 6.0241 -174375 -128126 -38710 12897.4 32639 -36873.4 -7.41329 
1236 1 11.407 7.27 3 6.02603 -134902 -123270 -33692.9 774.99 27639.1 -46306 -7.41298 
1237 1 10.687 6.048 3 6.02413 -125701 -129945 -42456.7 11473.3 25063.9 -41581.1 -7.41264 
1238 1 11.386 4.814 3 6.0241 -132077 -125316 -37700.1 -983.919 20993.2 -49600.2 -7.41276 
1239 1 10.666 3.592 3 6.02392 -127475 -128590 -44746.8 11630.4 15028 -45397.1 -7.4124 
1240 1 11.365 2.358 3 6.02411 -180183 -123494 -41258.2 -2772.62 12127.2 -51315.6 -7.41293 
1241 1 10.645 1.136 3 6.02385 -135266 -137220 -45483.7 14472.7 3721.58 -47651.6 -7.41241 
1436 1 13.544 8.48 3 6.02248 -150245 -152371 -24434.6 -6731.85 26111.9 -45482.9 -7.41425 
1437 1 12.825 7.258 3 6.02341 -141405 -159671 -36329.6 8915.97 24432.4 -40176.8 -7.41364 
1438 1 13.523 6.024 3 6.02248 -150322 -153300 -28991.6 -5663.27 21856.9 -49378.8 -7.4138 
1439 1 12.804 4.802 3 6.0222 -143357 -161135 -38569.7 10550.7 16822.6 -44785.3 -7.41306 
1440 1 13.502 3.568 3 6.02335 -140702 -139699 -32646.4 10165.4 15358 -51964 -7.41332 
1441 1 12.782 2.346 3 6.02409 -176125 -126005 -39481.2 12399.6 7357.03 -48152.5 -7.41328 
1442 1 13.481 1.112 3 6.02592 -128706 -122236 -35737.4 991.098 7053.94 -52755.3 -7.41285 
1637 1 14.962 8.467 3 6.02367 -125680 -132596 -30714.9 8620.03 21862.2 -35659 -7.41312 
1638 1 15.661 7.233 3 6.0241 -134536 -124293 -19571 -5336.97 21164.3 -46316.1 -7.41391 
1639 1 14.941 6.011 3 6.02336 -134308 -147808 -32673.8 22085.4 16408.1 -40984.5 -7.41309 
1640 1 15.639 4.777 3 6.02197 -153497 -192810 -23986 -24245.5 16745.7 -49347.8 -7.41425 
1641 1 14.92 3.556 3 6.02341 -150952 -193805 -33596.8 -7054.8 9180.99 -45167.7 -7.41376 
1642 1 15.618 2.322 3 6.02248 -143891 -159046 -27858.6 -9304.72 10661.9 -50898.7 -7.41397 
1643 1 14.899 1.1 3 6.02364 -144059 -152623 -32980.9 6763.58 470.344 -47830.6 -7.41355 
1838 1 17.798 8.443 3 6.02795 -152797 -153943 -10873.7 -1412.1 19363.4 -40960 -7.41472 
1839 1 17.079 7.221 3 6.02463 -141293 -162602 -28101.9 14460.9 14331.4 -34465.8 -7.41385 
1840 1 17.777 5.987 3 6.02795 -142960 -141291 -14900.8 10355.6 16934.6 -44245.5 -7.41412 
1841 1 17.057 4.765 3 6.02387 -126489 -129764 -28380.3 14242.9 8830.19 -39180.8 -7.41358 
1842 1 17.756 3.531 3 6.0241 -133076 -129678 -19089.1 -5910.87 12953.1 -46142.6 -7.41347 
1843 1 17.036 2.309 3 6.02336 -127031 -132741 -27303.8 9085.96 2132.44 -42550.1 -7.41319 
1844 1 17.735 1.075 3 6.02256 -184503 -154002 -22400.6 -21982.7 7568.87 -46548.6 -7.41443 
14501 2 10.56 8.687 6.4 6.0241 -135924 -122377 -33380 -3261.29 34179.6 -42285.4 -7.41298 
14502 2 11.28 7.465 6.4 6.0231 -124624 -133313 -39351.6 8861.01 25835.8 -40632.6 -7.41256 
14503 2 10.581 6.231 6.4 6.02212 -187961 -155672 -38330.8 12918.4 27935.8 -45615 -7.41352 
14504 2 11.301 5.01 6.4 6.0231 -142711 -178346 -42254 12766.9 18050.3 -45843.5 -7.41292 
14505 2 10.603 3.776 6.4 6.0197 -144447 -157568 -42094.9 -3110.87 18863.5 -47826.6 -7.41301 
14506 2 11.322 2.554 6.4 6.02364 -144617 -156711 -43446.4 5828.99 8581.14 -49408.3 -7.41305 
14507 2 10.624 1.32 6.4 6.02248 -146688 -153622 -44630.3 -5202.17 7970.82 -48500.3 -7.41302 
14508 2 11.343 0.098 6.4 6.02221 -143902 -152460 -43097.2 7644.66 -1907.09 -51267.9 -7.41281 
14702 2 13.396 8.712 6.4 6.02364 -143188 -160158 -33323.6 8199.84 23462.9 -37937.9 -7.41357 
14703 2 12.698 7.478 6.4 6.02248 -149478 -152327 -28895.2 -2247.16 28463.5 -45739.1 -7.41401 
14704 2 13.417 6.256 6.4 6.02364 -142831 -160359 -35991.7 7692.65 17928.4 -43956.3 -7.4134 
14705 2 12.719 5.022 6.4 6.02302 -149258 -152943 -33269.2 -10051.1 21876.1 -48529.4 -7.4137 
14706 2 13.438 3.8 6.4 6.02463 -141790 -160831 -37604.9 4887.67 10539.8 -48651.3 -7.41337 
14707 2 12.74 2.566 6.4 6.02795 -140093 -140607 -36662.7 -23549.1 13009.1 -49958.6 -7.413 
14708 2 13.46 1.344 6.4 6.0241 -128216 -127455 -37322.9 3666.56 1778.49 -51663.5 -7.41302 
14709 2 12.761 0.11 6.4 6.02411 -129272 -123171 -38736.7 -12102.1 2957.68 -49920.8 -7.41246 
14903 2 14.814 8.724 6.4 6.02795 -145420 -138225 -19651 -22413.4 27088.7 -42974.3 -7.41388 
14904 2 15.534 7.502 6.4 6.0241 -125306 -130578 -30592.4 6259.12 16067.7 -39048.8 -7.41347 
14905 2 14.835 6.268 6.4 6.02531 -133706 -126248 -23896.7 -9432.45 22903 -46308.3 -7.41347 
14906 2 15.555 5.046 6.4 6.02392 -126482 -132192 -31601.7 6380.17 10494 -44521.3 -7.41308 
14907 2 14.856 3.812 6.4 6.0241 -133424 -126174 -28022.8 -8894.1 16547.8 -48320 -7.41323 
14908 2 15.576 2.59 6.4 6.02336 -136674 -144603 -31639.4 -2951.62 3842.55 -48500.8 -7.41326 
14909 2 14.878 1.356 6.4 6.02221 -143729 -160825 -31154.8 -7275.4 8277.6 -48893.8 -7.41359 
14910 2 15.597 0.134 6.4 6.023 -150463 -187824 -30231.7 -5632.17 -3507.05 -50570.9 -7.41391 
15104 2 17.65 8.748 6.4 6.02336 -133301 -149197 -26467.4 -1317.8 13029.8 -31809 -7.4134 
15105 2 16.952 7.514 6.4 6.02197 -157522 -189103 -14994.7 11157.3 22318.9 -41500.4 -7.41482 
15106 2 17.671 6.293 6.4 6.02097 -142713 -162107 -26993.4 43971.5 9280.26 -37578.4 -7.41376 
15107 2 16.973 5.058 6.4 6.02097 -147018 -157568 -19351.9 28090 18015.1 -43912.8 -7.41437 
15108 2 17.692 3.837 6.4 6.02341 -149846 -193006 -26418.6 27871.8 4337.19 -42167.1 -7.41445 
15109 2 16.994 2.603 6.4 6.02248 -146576 -159086 -22757.6 -7695.85 12108.9 -44948.4 -7.414 
15110 2 17.713 1.381 6.4 6.02197 -143565 -160864 -25047.2 9468.21 -1481.82 -45189.3 -7.41402 
15111 2 17.015 0.147 6.4 6.02198 -137418 -136862 -25771.9 -23090 5099.78 -44503.7 -7.41367 
2039 1 19.216 8.431 3 6.02364 -136184 -145585 -24433.2 24019.8 11098.4 -26407.6 -7.41363 
2040 1 19.914 7.197 3 6.02109 -149078 -157554 -7022.27 -9459.84 16128.4 -37430.8 -7.41492 
2041 1 19.195 5.975 3 6.02508 -145723 -160436 -24082.2 14227.8 7434.92 -31277.7 -7.4138 
2042 1 19.893 4.741 3 6.02302 -149918 -156567 -11211.8 -3654.08 13740.5 -39560.6 -7.4147 
2043 1 19.174 3.519 3 6.02246 -142646 -161838 -23240.8 14203.2 2524.87 -35142.1 -7.4141 
2044 1 19.872 2.285 3 6.02691 -140487 -142262 -15100.5 7272.67 10099.5 -40426.4 -7.41424 
2045 1 19.152 1.063 3 6.02409 -175419 -121631 -21261.9 11060.5 -3225.51 -37809.7 -7.4143 
2240 1 22.052 8.406 3 6.02387 -135946 -126720 653.158 -7169.76 14863.9 -30074.3 -7.41472 
2241 1 21.332 7.184 3 6.02367 -124420 -134738 -21614 9822.99 4925.2 -22386.1 -7.41346 
2242 1 22.031 5.95 3 6.02354 -141296 -159344 -3592.46 -25656.5 13930.8 -31928.3 -7.41503 
2243 1 21.311 4.729 3 6.02066 -135893 -147042 -20175.8 -9851.91 1555.34 -26336.7 -7.41371 
2244 1 22.009 3.494 3 6.01953 -145847 -161405 -8247.89 -44100 11754.3 -32897.2 -7.41472 
2245 1 21.29 2.273 3 6.02367 -153739 -191364 -17832 -5451.94 -2788.15 -29406.2 -7.41469 
2246 1 21.988 1.039 3 6.02168 -142192 -155439 -12398.7 -8696.34 8556.11 -32795.5 -7.41472 
2441 1 23.47 8.394 3 6.02796 -140819 -159632 -20590.1 14638.3 2083.56 -13788.7 -7.41442 
2442 1 24.168 7.16 3 6.02795 -151880 -155529 2671.39 -4200.82 13766.2 -24504.9 -7.41541 
2443 1 23.449 5.938 3 6.02217 -141045 -161083 -18998.5 14775.6 -304.967 -17284.9 -7.41442 
2444 1 24.147 4.704 3 6.02723 -142296 -142531 -1575.78 7776.25 12671.8 -25138.1 -7.41479 
2445 1 23.427 3.482 3 6.0239 -127986 -129374 -16204.5 14799.5 -3485.92 -20325.5 -7.41407 
2446 1 24.126 2.248 3 6.02531 -132863 -130118 -6284.73 -8142.6 10791.3 -25004.7 -7.41414 
2447 1 23.406 1.026 3 6.02431 -126348 -127325 -12593.5 6038.89 -7041.1 -22533.9 -7.4139 
2642 1 26.306 8.37 3 6.02364 -135124 -125268 8555.84 -11047 13699.8 -18117 -7.41533 
2643 1 25.586 7.148 3 6.02652 -137287 -144545 -18511.2 26795.1 -2313.84 -9211.76 -7.41366 
2644 1 26.284 5.914 3 6.02023 -148577 -158201 3858.44 -6750.16 13467.9 -18174.2 -7.41547 
2645 1 25.565 4.692 3 6.02723 -144682 -158131 -15502.4 16206.9 -4560.98 -11875.8 -7.41446 
2646 1 26.263 3.458 3 6.02549 -146346 -156800 -915.273 -7197.61 12304.6 -17864.7 -7.41555 
2647 1 25.544 2.236 3 6.02796 -143931 -157993 -12026.9 14272.5 -7228.43 -14134.4 -7.41488 
2648 1 26.242 1.002 3 6.02714 -146508 -151609 -5723.07 -2396.87 10458.1 -16943.7 -7.41495 
2843 1 27.724 8.357 3 6.0183 -138571 -161773 -19579.6 9130.37 -4026.06 -2761.21 -7.41411 
2844 1 28.422 7.123 3 6.02331 -151715 -173521 9041.4 -13914.9 14455.3 -12805.2 -7.41563 
2845 1 27.702 5.902 3 6.02161 -125794 -129430 -16349.2 -23299 -5804.58 -4901.26 -7.4139 
2846 1 28.401 4.667 3 6.0204 -131888 -129971 3822.08 -45121.1 13887.2 -12073 -7.41473 
2847 1 27.681 3.446 3 6.02331 -136105 -161685 -12413.7 -5302.64 -7934.67 -6855.32 -7.41434 
2848 1 28.38 2.212 3 6.02223 -177833 -127687 -1354.77 -11309.5 12485.4 -11123.4 -7.41507 
2849 1 27.66 0.99 3 6.02507 -140111 -136715 -8233.2 22367.3 -10290.4 -8663.12 -7.41417 
15305 2 19.068 8.761 6.4 6.02248 -152919 -153814 -6511.7 -6462.16 20623.7 -35317.9 -7.41495 
15306 2 19.787 7.539 6.4 6.0222 -142404 -163395 -23584.7 9231.13 6972.07 -29032.1 -7.41382 
15307 2 19.089 6.305 6.4 6.02335 -144135 -140610 -10809.5 -23541.7 18390.8 -37636.1 -7.41433 
15308 2 19.809 5.083 6.4 6.0241 -174960 -129408 -22895.7 6256.69 3454.71 -33955.7 -7.4141 
15309 2 19.11 3.849 6.4 6.02498 -131979 -128128 -14695.7 -12857 14410.7 -38977.8 -7.41407 
15310 2 19.83 2.627 6.4 6.0241 -127757 -132069 -21247 6552.66 -948.011 -37596 -7.41361 
15311 2 19.131 1.393 6.4 6.0241 -130611 -129828 -18231 -12869.2 9095.01 -39061.3 -7.41378 
15312 2 19.851 0.171 6.4 6.02429 -127935 -124359 -18468.4 8199.59 -5642.21 -39778.1 -7.41386 
15506 2 21.904 8.785 6.4 6.0241 -125285 -132586 -21802.4 7469.61 4097.73 -19841.6 -7.41357 
15507 2 21.205 7.551 6.4 6.0241 -134978 -127455 -2794.51 -11809.7 17590.5 -30522.8 -7.41455 
15508 2 21.925 6.329 6.4 6.02498 -126070 -131500 -20597.6 6556.48 1779.82 -24582.9 -7.41376 
15509 2 21.226 5.095 6.4 6.0241 -181471 -125464 -7322.87 -13197 15410.2 -31841 -7.4149 
15510 2 21.946 3.873 6.4 6.02335 -137445 -144945 -18253.7 -5157.33 -1352.77 -28562.9 -7.41394 
15511 2 21.248 2.639 6.4 6.0222 -148029 -160232 -11643.2 -11219.1 11907.4 -32119.8 -7.41444 
15512 2 21.967 1.417 6.4 6.02289 -144405 -161089 -15783.7 10670.6 -4920.23 -31320.5 -7.41436 
15513 2 21.269 0.183 6.4 6.02446 -149964 -188209 -14828.9 4833.58 7421.5 -31313.8 -7.4149 
15707 2 23.322 8.797 6.4 6.02197 -150983 -156773 3835.74 -8634.95 16336.8 -23685.9 -7.41547 
15708 2 24.041 7.575 6.4 6.02248 -141227 -161694 -19740.1 11338.7 -111.301 -15440.2 -7.41412 
15709 2 23.343 6.341 6.4 6.02341 -156962 -188890 -243.479 8665.09 15533.4 -24411.8 -7.41578 
15710 2 24.062 5.12 6.4 6.02097 -140908 -161360 -17342.7 46192.5 -2424.55 -19015.8 -7.41445 
15711 2 23.364 3.885 6.4 6.02097 -148939 -158415 -4729.65 23734.4 13485.1 -24634.5 -7.41489 
15712 2 24.083 2.664 6.4 6.02197 -150628 -193977 -13989 28282.3 -5109.4 -21896.7 -7.41485 
15713 2 23.385 1.43 6.4 6.02336 -138775 -145536 -8788.11 -22410.8 10532.5 -23940.7 -7.41432 
15714 2 24.105 0.208 6.4 6.02409 -130056 -123414 -10464.7 11304.4 -8121.29 -23969.3 -7.41411 
15908 2 26.157 8.822 6.4 6.02197 -140016 -160485 -20095.9 10807.8 -1888.67 -7394.77 -7.41421 
15909 2 25.459 7.588 6.4 6.02336 -144326 -140711 5847.41 -21518.6 15398.7 -18048.2 -7.41517 
15910 2 26.179 6.366 6.4 6.0241 -127781 -129311 -17433.1 8618.55 -3661.23 -10586.6 -7.41374 
15911 2 25.48 5.132 6.4 6.02392 -133377 -128400 1242.61 -13272.8 14517.4 -17816.2 -7.41475 
15912 2 26.2 3.91 6.4 6.02531 -127295 -130690 -14091.6 7210.15 -5804.87 -13274.7 -7.41395 
15913 2 25.501 2.676 6.4 6.0241 -131178 -126949 -3393.37 -14279.8 12656.3 -17148.4 -7.41484 
15914 2 26.221 1.454 6.4 6.02795 -138526 -143402 -10073.5 -6593.08 -8163.12 -15429.7 -7.41436 
15915 2 25.523 0.22 6.4 6.02423 -143928 -154056 -7927.65 -17530.2 10089.1 -15886 -7.41485 
16109 2 27.575 8.834 6.4 6.0241 -136121 -124692 11259 -14069.2 15211.1 -13262.5 -7.41547 
16110 2 28.295 7.612 6.4 6.02795 -134881 -143008 -18838.2 -6909.72 -4598.37 -3708.28 -7.41388 
16111 2 27.597 6.378 6.4 6.02463 -149310 -157431 6348.12 -13880.7 15207.2 -12382.9 -7.41559 
16112 2 28.316 5.156 6.4 6.02549 -143295 -156822 -14843.1 5874.86 -6415.86 -5937.64 -7.4146 
16113 2 27.618 3.922 6.4 6.0258 -147739 -156318 1249.62 -13791.1 14255.1 -11412.6 -7.41554 
16114 2 28.337 2.7 6.4 6.02302 -143028 -157646 -10847.4 7911.88 -8483.84 -8029.13 -7.4149 
16115 2 27.639 1.466 6.4 6.02508 -150240 -156492 -3379.36 -13974 12447.8 -10202.3 -7.41486 
16116 2 28.358 0.244 6.4 6.02091 -141603 -155740 -6342.41 15481.3 -10621.7 -9725.68 -7.41479 
3044 1 30.559 8.333 3 6.02463 -150258 -156688 13331.4 -6841.43 15963.5 -9791.19 -7.41594 
3045 1 29.84 7.111 3 6.02549 -142516 -155581 -18063 15288.4 -6650.31 -9.47164 -7.41443 
3046 1 30.538 5.877 3 6.02723 -151044 -154924 8161.18 -5566.93 15626.5 -8285.01 -7.41567 
3047 1 29.819 4.655 3 6.02163 -142081 -158466 -14207.5 13913.8 -8610.81 -1341.24 -7.41452 
3048 1 30.517 3.421 3 6.02508 -143756 -141221 2919.4 3898.04 14538.1 -6798.02 -7.41474 
3049 1 29.797 2.199 3 6.02248 -175296 -127322 -9529.8 10035.3 -10733.6 -2841.23 -7.41464 
3050 1 30.496 0.965 3 6.02395 -135823 -157089 -2663.23 -24047.9 13018.7 -5292.88 -7.41471 
3245 1 31.977 8.321 3 6.0241 -124990 -127250 -20221.7 9874.07 -6907.2 2255.78 -7.41359 
3246 1 32.676 7.087 3 6.02364 -134180 -124791 12419.2 -11960.5 17941.4 -6897.66 -7.4155 
3247 1 31.956 5.865 3 6.02652 -137413 -141420 -16198.1 25754.2 -8811.91 1717.67 -7.41374 
3248 1 32.654 4.631 3 6.02023 -147036 -156739 6544.83 -7153.01 16956.5 -4783.8 -7.4157 
3249 1 31.935 3.409 3 6.02795 -145106 -155154 -11554.4 15428.1 -10894 830.608 -7.41463 
3250 1 32.633 2.175 3 6.02796 -146330 -155142 650.074 -7215.1 15402.2 -2974.07 -7.4155 
3251 1 31.914 0.953 3 6.02383 -142613 -149322 -6573.27 10544.3 -13023.8 -408.889 -7.41522 
3446 1 34.813 8.296 3 6.02364 -152616 -153995 16412 -9158.24 20859.1 -7946.61 -7.41608 
3447 1 34.094 7.074 3 6.0183 -138490 -158941 -18677.1 7835.26 -8260.78 2209.17 -7.41412 
3448 1 34.792 5.84 3 6.0231 -149244 -175340 10327.2 -14338.9 19817.2 -5234.81 -7.41556 
3449 1 34.072 4.619 3 6.02352 -133040 -160037 -14111.9 -7355.51 -10627.2 1968.27 -7.41431 
3450 1 34.771 3.385 3 6.02367 -129919 -129456 4279.34 -11917.6 18145.1 -3016.48 -7.41473 
3451 1 34.051 2.163 3 6.02531 -128564 -126496 -9007.07 10135.3 -13031.1 1200.16 -7.41419 
3452 1 34.75 0.929 3 6.02325 -128617 -119350 -1690.89 -8381.83 15948.7 -1210.24 -7.41474 
3647 1 36.231 8.284 3 6.02795 -134580 -138823 -20907.3 25146.1 -6922.2 241.788 -7.41372 
3648 1 36.929 7.05 3 6.02463 -149172 -156683 14521.8 -6536.72 23190.2 -7959.5 -7.41598 
3649 1 36.21 5.828 3 6.02302 -142460 -153376 -16486.9 13967.1 -9623.39 713.743 -7.41447 
3650 1 36.908 4.594 3 6.02364 -149138 -155326 8166.56 -8615.87 21366.2 -5222.68 -7.4156 
3651 1 36.189 3.372 3 6.02248 -141976 -154344 -11592 7287.29 -12402.9 509.967 -7.41481 
3652 1 36.887 2.138 3 6.02404 -148367 -153916 1697.78 -8473.55 18914.8 -3069.82 -7.41532 
3653 1 36.168 0.916 3 6.01951 -140987 -152922 -6062.87 5030.26 -15144.6 -289.508 -7.41476 
16310 2 30.411 8.858 6.4 6.02248 -141583 -155757 -20660 10356.9 -4811.85 670.482 -7.41416 
16311 2 29.713 7.624 6.4 6.02364 -152652 -154186 11148.2 -11781.2 16072.9 -9072.91 -7.41583 
16312 2 30.432 6.402 6.4 6.01969 -138929 -160886 -17065 11845.7 -6677.42 -719.634 -7.41423 
16313 2 29.734 5.168 6.4 6.0231 -151378 -172844 6037.84 -5942.77 15612.6 -7385.92 -7.41548 
16314 2 30.454 3.947 6.4 6.02021 -174501 -127100 -12764.9 44323.3 -8881.22 -2263.22 -7.41444 
16315 2 29.755 2.712 6.4 6.02179 -131490 -129103 806.152 22871.9 14416.9 -5858.79 -7.41456 
16316 2 30.475 1.491 6.4 6.02354 -136513 -160809 -7789.72 27957.5 -11025.7 -3797.26 -7.41459 
16317 2 29.776 0.257 6.4 6.02327 -127185 -124998 -4576.34 -12385.7 12791.7 -4364.09 -7.41429 
16511 2 31.829 8.871 6.4 6.02336 -145163 -139492 15756 -22484.3 17370.1 -8189.85 -7.41566 
16512 2 32.549 7.649 6.4 6.0241 -125040 -125481 -19265 9132.17 -6338.34 1882.7 -7.41385 
16513 2 31.85 6.415 6.4 6.02364 -133981 -126594 10399 -8884.75 17284.6 -5846.31 -7.41519 
16514 2 32.57 5.193 6.4 6.02531 -128372 -127561 -15064.4 6997.16 -8637.69 1025.29 -7.41362 
16515 2 31.871 3.959 6.4 6.0239 -180910 -123884 4621.74 -14757.8 16428.9 -3757.43 -7.41547 
16516 2 32.591 2.737 6.4 6.02723 -137909 -140570 -10261.9 -6176.47 -11000.1 -66.1738 -7.41429 
16517 2 31.893 1.503 6.4 6.02217 -145490 -156566 -1139.5 -14159.9 14925.7 -1916.06 -7.41532 
16518 2 32.612 0.281 6.4 6.02578 -144972 -148904 -4999.5 8682.5 -13314.7 -1389.77 -7.41508 
16712 2 34.665 8.895 6.4 6.02795 -133560 -139988 -21689.6 -8545.63 -5084.87 1823.82 -7.41369 
16713 2 33.967 7.661 6.4 6.02463 -150122 -156171 14303.3 -14209 19323.9 -6625.56 -7.41598 
16714 2 34.686 6.439 6.4 6.02795 -142652 -154334 -17671.5 4219.1 -7704.76 1772.15 -7.4143 
16715 2 33.988 5.205 6.4 6.02796 -148522 -154583 8409.61 -13833.9 18606.4 -3986.96 -7.41588 
16716 2 34.707 3.983 6.4 6.02302 -141126 -154670 -12776 6527.1 -10493.1 1229.03 -7.41489 
16717 2 34.009 2.749 6.4 6.02508 -150721 -154774 2533.35 -13672.8 17173.6 -1781.39 -7.41511 
16718 2 34.728 1.527 6.4 6.01911 -141711 -159038 -7560.09 11576.1 -13270.9 271.774 -7.41472 
16719 2 34.03 0.293 6.4 6.02412 -146018 -167202 -3313.37 -9874.73 15276.1 -38.3268 -7.41496 
16913 2 36.083 8.907 6.4 6.02364 -153312 -153663 18929.5 -11666.8 21984.4 -9756.74 -7.41621 
16914 2 36.802 7.685 6.4 6.01969 -138957 -156105 -19910 10365.7 -6014.96 9.31958 -7.41417 
16915 2 36.104 6.451 6.4 6.02508 -143795 -139768 12614.6 -24076.4 21265 -6496.89 -7.41548 
16916 2 36.824 5.229 6.4 6.02367 -123974 -127049 -15425.6 10070.8 -9331.79 92.5393 -7.41391 
16917 2 36.125 3.995 6.4 6.02354 -138611 -161667 6154.12 7357.89 19730.5 -3837.09 -7.41515 
16918 2 36.845 2.774 6.4 6.02354 -133376 -161856 -10329.1 26832 -12675.8 -405.027 -7.41428 
16919 2 36.146 1.54 6.4 6.02367 -129196 -126687 -23.759 -8912.3 17711.1 -1795.45 -7.41474 
16920 2 36.866 0.318 6.4 6.02651 -138976 -134788 -4522.81 -2916.5 -15943 -1448.23 -7.41431 
3848 1 39.067 8.26 3 6.0231 -135083 -126496 19511.4 -10465.6 27027.7 -12605.6 -7.41564 
3849 1 38.347 7.038 3 6.0241 -126320 -126485 -18472.8 10341.7 -7854.26 -2703.2 -7.41341 
3850 1 39.046 5.804 3 6.0239 -133083 -127133 12468.3 -6347.1 25070.5 -9429.74 -7.41527 
3851 1 38.326 4.582 3 6.02531 -126706 -125651 -13888.8 13508.8 -11128.2 -2320.11 -7.4139 
3852 1 39.025 3.348 3 6.0241 -178927 -123440 5559.1 -5171.39 22261.2 -6861.55 -7.41561 
3853 1 38.305 2.126 3 6.02795 -138189 -138809 -8589.4 25443.1 -14442 -2607.12 -7.41437 
3854 1 39.003 0.892 3 6.02423 -143308 -151067 -1081.06 -2395.12 18902.3 -4930.91 -7.41514 
4048 1 41.204 9.469 3 6.02341 -150701 -155908 24782.1 -9543.06 31062.3 -18446.4 -7.41672 
4049 1 40.485 8.247 3 6.02248 -137103 -156616 -19731.5 5834.07 -5308.72 -7686.61 -7.41425 
4050 1 41.183 7.013 3 6.02367 -158884 -188054 17376.8 -25161.3 29036.1 -15029.9 -7.41643 
4051 1 40.464 5.792 3 6.01953 -139190 -157963 -15581.8 -26704.7 -9024.53 -6753.68 -7.41424 
4052 1 41.162 4.557 3 6.02066 -141234 -142064 10342.4 -30959.8 26153.4 -12191.1 -7.41521 
4053 1 40.442 3.336 3 6.02215 -182547 -155987 -10475.6 -8144.51 -13006.9 -6559.63 -7.41496 
4054 1 41.141 2.102 3 6.0231 -129077 -128922 3514.61 -9237.98 22459.7 -9925.51 -7.41468 
4055 1 40.421 0.88 3 6.02409 -128821 -121316 -4686.66 7497.53 -16888 -7108.62 -7.4141 
4249 1 42.622 9.457 3 6.02603 -123014 -126798 -20016.6 11080.5 -2398.18 -13424.3 -7.41356 
4250 1 43.321 8.223 3 6.0241 -134589 -126906 23702.4 -4308.55 33131.2 -21292.1 -7.41607 
4251 1 42.601 7.001 3 6.02691 -133028 -139976 -16265.5 24723.9 -6445.42 -12272.2 -7.41407 
4252 1 43.299 5.767 3 6.02246 -147571 -158506 15890.5 -4684 30168.4 -18312.2 -7.41603 
4253 1 42.58 4.545 3 6.02302 -142856 -154601 -11697.5 12313.2 -10744.6 -11763.2 -7.41458 
4254 1 43.278 3.311 3 6.02364 -147401 -156882 8658.25 -6709.61 26342.3 -16019.1 -7.41561 
4255 1 42.559 2.089 3 6.02289 -140608 -157330 -6422.02 5924.65 -15234.8 -11942 -7.41496 
4256 1 43.257 0.855 3 6.02446 -151256 -185063 1523.69 -21051.4 21776.4 -14326.7 -7.41545 
4450 1 45.458 9.433 3 6.02248 -152182 -157547 30672.8 -8051.65 36927.5 -27494.4 -7.4168 
4451 1 44.739 8.211 3 6.0222 -139919 -158228 -15992.5 8867.41 -3313.93 -18139.2 -7.41411 
4452 1 45.437 6.977 3 6.02475 -142794 -143289 22307.2 9423.78 34259.2 -24748 -7.41597 
4453 1 44.717 5.755 3 6.0241 -124575 -126100 -11956.1 11214.7 -8099.5 -17451.7 -7.41419 
4454 1 45.416 4.521 3 6.02498 -130626 -129237 14552.4 -3973.27 30394.1 -22349.1 -7.41549 
4455 1 44.696 3.299 3 6.02603 -125869 -128215 -7120.7 10955.4 -13085.1 -17297.4 -7.41423 
4456 1 45.395 2.065 3 6.02411 -129731 -127025 7271 -3163.69 25663.1 -20526.3 -7.41522 
4457 1 44.675 0.843 3 6.02555 -135363 -135529 -1353.82 21552.9 -18220.2 -17793.9 -7.41482 
4651 1 46.876 9.42 3 6.02279 -131097 -144346 -14774.3 17872.6 -320.868 -23613.1 -7.4139 
4653 1 46.855 6.965 3 6.02097 -140122 -158384 -11323 -26747.3 -5042.13 -22893.1 -7.41446 
4655 1 46.834 4.509 3 6.02341 -147602 -190095 -6963.29 -11136.8 -10362.3 -22596 -7.41535 
4657 1 46.813 2.053 3 6.02197 -141625 -158964 -1705.71 6694.93 -15938.1 -22759.6 -7.41512 
17114 2 38.919 8.932 6.4 6.0241 -123479 -126104 -21362.6 7854.34 -3703.02 -3867.8 -7.4135 
17115 2 38.22 7.698 6.4 6.02367 -134649 -124615 17327.9 -8589.26 24362.5 -10999.5 -7.41574 
17116 2 38.94 6.476 6.4 6.02508 -134280 -139746 -17290.6 -5547.51 -7356.5 -3184.97 -7.41389 
17117 2 38.242 5.242 6.4 6.01969 -147755 -156451 10417.8 -8033.47 22743.5 -7849.22 -7.41575 
17118 2 38.961 4.02 6.4 6.02508 -145143 -154564 -12495.1 5360.21 -11237.9 -3113.55 -7.4143 
17119 2 38.263 2.786 6.4 6.02302 -145730 -154249 3854.37 -12756 20470.4 -5405.53 -7.41574 
17120 2 38.982 1.564 6.4 6.02796 -143068 -154399 -7113.73 5629.25 -15172.4 -3704.46 -7.41506 
17121 2 38.284 0.33 6.4 6.02714 -145726 -148268 -2623.05 -17580.8 17643.6 -3641.11 -7.41505 
17315 2 40.337 8.944 6.4 6.02463 -150574 -157180 22288 -13058 27886.5 -16816.7 -7.41638 
17316 2 41.056 7.722 6.4 6.02795 -141121 -154137 -18605 2537.29 -4728.77 -8064.63 -7.41422 
17317 2 40.358 6.488 6.4 6.02795 -151235 -154666 15154.2 -14382.2 26156.6 -13385.9 -7.416 
17318 2 41.077 5.266 6.4 6.02217 -139329 -156383 -14181.8 4374.83 -9136.64 -7529.95 -7.41458 
17319 2 40.379 4.032 6.4 6.02723 -142184 -139857 8307.47 -25588.4 23604.4 -10533.3 -7.41522 
17320 2 41.099 2.81 6.4 6.0239 -174829 -123826 -8858.2 4069.34 -13759.7 -7611.54 -7.41472 
17321 2 40.4 1.576 6.4 6.02531 -132501 -126410 1620.98 -11961.1 20482 -8433.67 -7.41447 
17322 2 41.12 0.354 6.4 6.02417 -125371 -123795 -2959.79 13127.8 -18302.1 -8428.8 -7.41431 
17516 2 43.172 8.968 6.4 6.01969 -137569 -157100 -18855.3 8912.23 -1740.71 -13782.8 -7.41421 
17517 2 42.474 7.734 6.4 6.02508 -144117 -141452 21239.8 -22498.3 29941.8 -19721.4 -7.41591 
17518 2 43.194 6.512 6.4 6.02367 -122333 -127975 -14938.4 8365.3 -6540.06 -13037 -7.41391 
17519 2 42.495 5.278 6.4 6.02354 -140250 -160572 13516.7 8684.92 27292.8 -16791.3 -7.41564 
17520 2 43.215 4.057 6.4 6.02179 -125042 -128847 -10202.6 41010.7 -11568.7 -12889.5 -7.41394 
17521 2 42.516 2.822 6.4 6.02021 -178122 -126195 6327.65 25404.2 23726 -14458 -7.41538 
17522 2 43.236 1.601 6.4 6.0231 -145102 -172954 -4760.1 12333.8 -16709.8 -13283.3 -7.41488 
17523 2 42.538 0.367 6.4 6.01889 -140856 -154063 -392.711 -9723.71 19640.8 -12784 -7.41503 
17717 2 44.59 8.981 6.4 6.02367 -133467 -129841 27830.5 -6828.98 33786.9 -26270.5 -7.41616 