(written by TR)

26936	atoms
2	atom types
0	142.511503	xlo xhi
0	246.837164	ylo yhi
0	15.0	zlo zhi


Masses

1	12
2	12

Atoms

1 1 1 0 0.698 245.603 3.000 0 0 0
2 1 1 0 0.677 243.147 3.000 0 0 0
3 1 1 0 0.656 240.691 3.000 0 0 0
4 1 1 0 0.635 238.235 3.000 0 0 0
5 1 1 0 0.614 235.779 3.000 0 0 0
6 1 1 0 0.593 233.324 3.000 0 0 0
7 1 1 0 0.571 230.868 3.000 0 0 0
8 1 1 0 0.550 228.412 3.000 0 0 0
9 1 1 0 0.529 225.956 3.000 0 0 0
10 1 1 0 0.508 223.500 3.000 0 0 0
11 1 1 0 0.487 221.044 3.000 0 0 0
12 1 1 0 0.466 218.588 3.000 0 0 0
13 1 1 0 0.444 216.132 3.000 0 0 0
14 1 1 0 0.423 213.676 3.000 0 0 0
15 1 1 0 0.402 211.220 3.000 0 0 0
16 1 1 0 0.381 208.764 3.000 0 0 0
17 1 1 0 0.360 206.309 3.000 0 0 0
18 1 1 0 0.339 203.853 3.000 0 0 0
19 1 1 0 0.317 201.397 3.000 0 0 0
20 1 1 0 0.296 198.941 3.000 0 0 0
21 1 1 0 0.275 196.485 3.000 0 0 0
22 1 1 0 0.254 194.029 3.000 0 0 0
23 1 1 0 0.233 191.573 3.000 0 0 0
24 1 1 0 0.212 189.117 3.000 0 0 0
25 1 1 0 0.190 186.661 3.000 0 0 0
26 1 1 0 0.169 184.205 3.000 0 0 0
27 1 1 0 0.148 181.749 3.000 0 0 0
28 1 1 0 0.127 179.294 3.000 0 0 0
29 1 1 0 0.106 176.838 3.000 0 0 0
30 1 1 0 0.085 174.382 3.000 0 0 0
31 1 1 0 0.063 171.926 3.000 0 0 0
32 1 1 0 0.042 169.470 3.000 0 0 0
33 1 1 0 0.021 167.014 3.000 0 0 0
34 1 1 0 0.000 164.558 3.000 0 0 0
35 1 1 0 2.836 246.813 3.000 0 0 0
36 1 1 0 2.116 245.591 3.000 0 0 0
37 1 1 0 2.815 244.357 3.000 0 0 0
38 1 1 0 2.095 243.135 3.000 0 0 0
39 1 1 0 2.794 241.901 3.000 0 0 0
40 1 1 0 2.074 240.679 3.000 0 0 0
41 1 1 0 2.772 239.445 3.000 0 0 0
42 1 1 0 2.053 238.223 3.000 0 0 0
43 1 1 0 2.751 236.989 3.000 0 0 0
44 1 1 0 2.032 235.767 3.000 0 0 0
45 1 1 0 2.730 234.533 3.000 0 0 0
46 1 1 0 2.010 233.311 3.000 0 0 0
47 1 1 0 2.709 232.077 3.000 0 0 0
48 1 1 0 1.989 230.855 3.000 0 0 0
49 1 1 0 2.688 229.621 3.000 0 0 0
50 1 1 0 1.968 228.400 3.000 0 0 0
51 1 1 0 2.667 227.165 3.000 0 0 0
52 1 1 0 1.947 225.944 3.000 0 0 0
53 1 1 0 2.645 224.710 3.000 0 0 0
54 1 1 0 1.926 223.488 3.000 0 0 0
55 1 1 0 2.624 222.254 3.000 0 0 0
56 1 1 0 1.905 221.032 3.000 0 0 0
57 1 1 0 2.603 219.798 3.000 0 0 0
58 1 1 0 1.884 218.576 3.000 0 0 0
59 1 1 0 2.582 217.342 3.000 0 0 0
60 1 1 0 1.862 216.120 3.000 0 0 0
61 1 1 0 2.561 214.886 3.000 0 0 0
62 1 1 0 1.841 213.664 3.000 0 0 0
63 1 1 0 2.540 212.430 3.000 0 0 0
64 1 1 0 1.820 211.208 3.000 0 0 0
65 1 1 0 2.518 209.974 3.000 0 0 0
66 1 1 0 1.799 208.752 3.000 0 0 0
67 1 1 0 2.497 207.518 3.000 0 0 0
68 1 1 0 1.778 206.296 3.000 0 0 0
69 1 1 0 2.476 205.062 3.000 0 0 0
70 1 1 0 1.757 203.840 3.000 0 0 0
71 1 1 0 2.455 202.606 3.000 0 0 0
72 1 1 0 1.735 201.385 3.000 0 0 0
73 1 1 0 2.434 200.150 3.000 0 0 0
74 1 1 0 1.714 198.929 3.000 0 0 0
75 1 1 0 2.413 197.695 3.000 0 0 0
76 1 1 0 1.693 196.473 3.000 0 0 0
77 1 1 0 2.391 195.239 3.000 0 0 0
78 1 1 0 1.672 194.017 3.000 0 0 0
79 1 1 0 2.370 192.783 3.000 0 0 0
80 1 1 0 1.651 191.561 3.000 0 0 0
81 1 1 0 2.349 190.327 3.000 0 0 0
82 1 1 0 1.630 189.105 3.000 0 0 0
83 1 1 0 2.328 187.871 3.000 0 0 0
84 1 1 0 1.608 186.649 3.000 0 0 0
85 1 1 0 2.307 185.415 3.000 0 0 0
86 1 1 0 1.587 184.193 3.000 0 0 0
87 1 1 0 2.286 182.959 3.000 0 0 0
88 1 1 0 1.566 181.737 3.000 0 0 0
89 1 1 0 2.264 180.503 3.000 0 0 0
90 1 1 0 1.545 179.281 3.000 0 0 0
91 1 1 0 2.243 178.047 3.000 0 0 0
92 1 1 0 1.524 176.825 3.000 0 0 0
93 1 1 0 2.222 175.591 3.000 0 0 0
94 1 1 0 1.503 174.370 3.000 0 0 0
95 1 1 0 2.201 173.135 3.000 0 0 0
96 1 1 0 1.481 171.914 3.000 0 0 0
97 1 1 0 2.180 170.680 3.000 0 0 0
98 1 1 0 1.460 169.458 3.000 0 0 0
99 1 1 0 2.159 168.224 3.000 0 0 0
100 1 1 0 1.439 167.002 3.000 0 0 0
101 1 1 0 2.137 165.768 3.000 0 0 0
102 1 1 0 1.418 164.546 3.000 0 0 0
103 1 1 0 2.116 163.312 3.000 0 0 0
104 1 1 0 1.397 162.090 3.000 0 0 0
105 1 1 0 2.095 160.856 3.000 0 0 0
106 1 1 0 1.376 159.634 3.000 0 0 0
107 1 1 0 2.074 158.400 3.000 0 0 0
108 1 1 0 1.354 157.178 3.000 0 0 0
109 1 1 0 2.053 155.944 3.000 0 0 0
110 1 1 0 1.333 154.722 3.000 0 0 0
111 1 1 0 2.032 153.488 3.000 0 0 0
112 1 1 0 1.312 152.266 3.000 0 0 0
113 1 1 0 2.010 151.032 3.000 0 0 0
114 1 1 0 1.291 149.810 3.000 0 0 0
115 1 1 0 1.989 148.576 3.000 0 0 0
116 1 1 0 1.270 147.355 3.000 0 0 0
117 1 1 0 1.968 146.120 3.000 0 0 0
118 1 1 0 1.249 144.899 3.000 0 0 0
119 1 1 0 1.947 143.665 3.000 0 0 0
120 1 1 0 1.227 142.443 3.000 0 0 0
121 1 1 0 1.926 141.209 3.000 0 0 0
122 1 1 0 1.206 139.987 3.000 0 0 0
123 1 1 0 1.905 138.753 3.000 0 0 0
124 1 1 0 1.185 137.531 3.000 0 0 0
125 1 1 0 1.884 136.297 3.000 0 0 0
126 1 1 0 1.164 135.075 3.000 0 0 0
127 1 1 0 1.862 133.841 3.000 0 0 0
128 1 1 0 1.143 132.619 3.000 0 0 0
129 1 1 0 1.841 131.385 3.000 0 0 0
130 1 1 0 1.122 130.163 3.000 0 0 0
131 1 1 0 1.820 128.929 3.000 0 0 0
132 1 1 0 1.100 127.707 3.000 0 0 0
133 1 1 0 1.799 126.473 3.000 0 0 0
134 1 1 0 1.079 125.251 3.000 0 0 0
135 1 1 0 1.778 124.017 3.000 0 0 0
136 1 1 0 1.058 122.795 3.000 0 0 0
137 1 1 0 1.757 121.561 3.000 0 0 0
138 1 1 0 1.037 120.340 3.000 0 0 0
139 1 1 0 1.735 119.105 3.000 0 0 0
140 1 1 0 1.016 117.884 3.000 0 0 0
141 1 1 0 1.714 116.650 3.000 0 0 0
142 1 1 0 0.995 115.428 3.000 0 0 0
143 1 1 0 1.693 114.194 3.000 0 0 0
144 1 1 0 0.973 112.972 3.000 0 0 0
145 1 1 0 1.672 111.738 3.000 0 0 0
146 1 1 0 0.952 110.516 3.000 0 0 0
147 1 1 0 1.651 109.282 3.000 0 0 0
148 1 1 0 0.931 108.060 3.000 0 0 0
149 1 1 0 1.630 106.826 3.000 0 0 0
150 1 1 0 0.910 105.604 3.000 0 0 0
151 1 1 0 1.608 104.370 3.000 0 0 0
152 1 1 0 0.889 103.148 3.000 0 0 0
153 1 1 0 1.587 101.914 3.000 0 0 0
154 1 1 0 0.868 100.692 3.000 0 0 0
155 1 1 0 1.566 99.458 3.000 0 0 0
156 1 1 0 0.847 98.236 3.000 0 0 0
157 1 1 0 1.545 97.002 3.000 0 0 0
158 1 1 0 0.825 95.780 3.000 0 0 0
159 1 1 0 1.524 94.546 3.000 0 0 0
160 1 1 0 0.804 93.325 3.000 0 0 0
161 1 1 0 1.503 92.090 3.000 0 0 0
162 1 1 0 0.783 90.869 3.000 0 0 0
163 1 1 0 1.481 89.635 3.000 0 0 0
164 1 1 0 0.762 88.413 3.000 0 0 0
165 1 1 0 1.460 87.179 3.000 0 0 0
166 1 1 0 0.741 85.957 3.000 0 0 0
167 1 1 0 1.439 84.723 3.000 0 0 0
168 1 1 0 0.720 83.501 3.000 0 0 0
169 1 1 0 1.418 82.267 3.000 0 0 0
170 1 1 0 0.698 81.045 3.000 0 0 0
171 1 1 0 1.397 79.811 3.000 0 0 0
172 1 1 0 0.677 78.589 3.000 0 0 0
173 1 1 0 1.376 77.355 3.000 0 0 0
174 1 1 0 0.656 76.133 3.000 0 0 0
175 1 1 0 1.354 74.899 3.000 0 0 0
176 1 1 0 0.635 73.677 3.000 0 0 0
177 1 1 0 1.333 72.443 3.000 0 0 0
178 1 1 0 0.614 71.221 3.000 0 0 0
179 1 1 0 1.312 69.987 3.000 0 0 0
180 1 1 0 0.593 68.765 3.000 0 0 0
181 1 1 0 1.291 67.531 3.000 0 0 0
182 1 1 0 0.571 66.310 3.000 0 0 0
183 1 1 0 1.270 65.075 3.000 0 0 0
184 1 1 0 0.550 63.854 3.000 0 0 0
185 1 1 0 1.249 62.620 3.000 0 0 0
186 1 1 0 0.529 61.398 3.000 0 0 0
187 1 1 0 1.227 60.164 3.000 0 0 0
188 1 1 0 0.508 58.942 3.000 0 0 0
189 1 1 0 1.206 57.708 3.000 0 0 0
190 1 1 0 0.487 56.486 3.000 0 0 0
191 1 1 0 1.185 55.252 3.000 0 0 0
192 1 1 0 0.466 54.030 3.000 0 0 0
193 1 1 0 1.164 52.796 3.000 0 0 0
194 1 1 0 0.444 51.574 3.000 0 0 0
195 1 1 0 1.143 50.340 3.000 0 0 0
196 1 1 0 0.423 49.118 3.000 0 0 0
197 1 1 0 1.122 47.884 3.000 0 0 0
198 1 1 0 0.402 46.662 3.000 0 0 0
199 1 1 0 1.100 45.428 3.000 0 0 0
200 1 1 0 0.381 44.206 3.000 0 0 0
201 1 1 0 1.079 42.972 3.000 0 0 0
202 1 1 0 0.360 41.750 3.000 0 0 0
203 1 1 0 1.058 40.516 3.000 0 0 0
204 1 1 0 0.339 39.295 3.000 0 0 0
205 1 1 0 1.037 38.060 3.000 0 0 0
206 1 1 0 0.317 36.839 3.000 0 0 0
207 1 1 0 1.016 35.605 3.000 0 0 0
208 1 1 0 0.296 34.383 3.000 0 0 0
209 1 1 0 0.995 33.149 3.000 0 0 0
210 1 1 0 0.275 31.927 3.000 0 0 0
211 1 1 0 0.973 30.693 3.000 0 0 0
212 1 1 0 0.254 29.471 3.000 0 0 0
213 1 1 0 0.952 28.237 3.000 0 0 0
214 1 1 0 0.233 27.015 3.000 0 0 0
215 1 1 0 0.931 25.781 3.000 0 0 0
216 1 1 0 0.212 24.559 3.000 0 0 0
217 1 1 0 0.910 23.325 3.000 0 0 0
218 1 1 0 0.190 22.103 3.000 0 0 0
219 1 1 0 0.889 20.869 3.000 0 0 0
220 1 1 0 0.169 19.647 3.000 0 0 0
221 1 1 0 0.868 18.413 3.000 0 0 0
222 1 1 0 0.148 17.191 3.000 0 0 0
223 1 1 0 0.847 15.957 3.000 0 0 0
224 1 1 0 0.127 14.735 3.000 0 0 0
225 1 1 0 0.825 13.501 3.000 0 0 0
226 1 1 0 0.106 12.280 3.000 0 0 0
227 1 1 0 0.804 11.045 3.000 0 0 0
228 1 1 0 0.085 9.824 3.000 0 0 0
229 1 1 0 0.783 8.590 3.000 0 0 0
230 1 1 0 0.063 7.368 3.000 0 0 0
231 1 1 0 0.762 6.134 3.000 0 0 0
232 1 1 0 0.042 4.912 3.000 0 0 0
233 1 1 0 0.741 3.678 3.000 0 0 0
234 1 1 0 0.021 2.456 3.000 0 0 0
235 1 1 0 0.720 1.222 3.000 0 0 0
236 1 1 0 0.000 0.000 3.000 0 0 0
237 1 1 0 4.254 246.801 3.000 0 0 0
238 1 1 0 4.952 245.566 3.000 0 0 0
239 1 1 0 4.233 244.345 3.000 0 0 0
240 1 1 0 4.931 243.111 3.000 0 0 0
241 1 1 0 4.211 241.889 3.000 0 0 0
242 1 1 0 4.910 240.655 3.000 0 0 0
243 1 1 0 4.190 239.433 3.000 0 0 0
244 1 1 0 4.889 238.199 3.000 0 0 0
245 1 1 0 4.169 236.977 3.000 0 0 0
246 1 1 0 4.867 235.743 3.000 0 0 0
247 1 1 0 4.148 234.521 3.000 0 0 0
248 1 1 0 4.846 233.287 3.000 0 0 0
249 1 1 0 4.127 232.065 3.000 0 0 0
250 1 1 0 4.825 230.831 3.000 0 0 0
251 1 1 0 4.106 229.609 3.000 0 0 0
252 1 1 0 4.804 228.375 3.000 0 0 0
253 1 1 0 4.084 227.153 3.000 0 0 0
254 1 1 0 4.783 225.919 3.000 0 0 0
255 1 1 0 4.063 224.697 3.000 0 0 0
256 1 1 0 4.762 223.463 3.000 0 0 0
257 1 1 0 4.042 222.241 3.000 0 0 0
258 1 1 0 4.741 221.007 3.000 0 0 0
259 1 1 0 4.021 219.786 3.000 0 0 0
260 1 1 0 4.719 218.551 3.000 0 0 0
261 1 1 0 4.000 217.330 3.000 0 0 0
262 1 1 0 4.698 216.096 3.000 0 0 0
263 1 1 0 3.979 214.874 3.000 0 0 0
264 1 1 0 4.677 213.640 3.000 0 0 0
265 1 1 0 3.957 212.418 3.000 0 0 0
266 1 1 0 4.656 211.184 3.000 0 0 0
267 1 1 0 3.936 209.962 3.000 0 0 0
268 1 1 0 4.635 208.728 3.000 0 0 0
269 1 1 0 3.915 207.506 3.000 0 0 0
270 1 1 0 4.614 206.272 3.000 0 0 0
271 1 1 0 3.894 205.050 3.000 0 0 0
272 1 1 0 4.592 203.816 3.000 0 0 0
273 1 1 0 3.873 202.594 3.000 0 0 0
274 1 1 0 4.571 201.360 3.000 0 0 0
275 1 1 0 3.852 200.138 3.000 0 0 0
276 1 1 0 4.550 198.904 3.000 0 0 0
277 1 1 0 3.830 197.682 3.000 0 0 0
278 1 1 0 4.529 196.448 3.000 0 0 0
279 1 1 0 3.809 195.226 3.000 0 0 0
280 1 1 0 4.508 193.992 3.000 0 0 0
281 1 1 0 3.788 192.771 3.000 0 0 0
282 1 1 0 4.487 191.536 3.000 0 0 0
283 1 1 0 3.767 190.315 3.000 0 0 0
284 1 1 0 4.465 189.081 3.000 0 0 0
285 1 1 0 3.746 187.859 3.000 0 0 0
286 1 1 0 4.444 186.625 3.000 0 0 0
287 1 1 0 3.725 185.403 3.000 0 0 0
288 1 1 0 4.423 184.169 3.000 0 0 0
289 1 1 0 3.704 182.947 3.000 0 0 0
290 1 1 0 4.402 181.713 3.000 0 0 0
291 1 1 0 3.682 180.491 3.000 0 0 0
292 1 1 0 4.381 179.257 3.000 0 0 0
293 1 1 0 3.661 178.035 3.000 0 0 0
294 1 1 0 4.360 176.801 3.000 0 0 0
295 1 1 0 3.640 175.579 3.000 0 0 0
296 1 1 0 4.338 174.345 3.000 0 0 0
297 1 1 0 3.619 173.123 3.000 0 0 0
298 1 1 0 4.317 171.889 3.000 0 0 0
299 1 1 0 3.598 170.667 3.000 0 0 0
300 1 1 0 4.296 169.433 3.000 0 0 0
301 1 1 0 3.577 168.211 3.000 0 0 0
302 1 1 0 4.275 166.977 3.000 0 0 0
303 1 1 0 3.555 165.756 3.000 0 0 0
304 1 1 0 4.254 164.521 3.000 0 0 0
305 1 1 0 3.534 163.300 3.000 0 0 0
306 1 1 0 4.233 162.066 3.000 0 0 0
307 1 1 0 3.513 160.844 3.000 0 0 0
308 1 1 0 4.211 159.610 3.000 0 0 0
309 1 1 0 3.492 158.388 3.000 0 0 0
310 1 1 0 4.190 157.154 3.000 0 0 0
311 1 1 0 3.471 155.932 3.000 0 0 0
312 1 1 0 4.169 154.698 3.000 0 0 0
313 1 1 0 3.450 153.476 3.000 0 0 0
314 1 1 0 4.148 152.242 3.000 0 0 0
315 1 1 0 3.428 151.020 3.000 0 0 0
316 1 1 0 4.127 149.786 3.000 0 0 0
317 1 1 0 3.407 148.564 3.000 0 0 0
318 1 1 0 4.106 147.330 3.000 0 0 0
319 1 1 0 3.386 146.108 3.000 0 0 0
320 1 1 0 4.084 144.874 3.000 0 0 0
321 1 1 0 3.365 143.652 3.000 0 0 0
322 1 1 0 4.063 142.418 3.000 0 0 0
323 1 1 0 3.344 141.196 3.000 0 0 0
324 1 1 0 4.042 139.962 3.000 0 0 0
325 1 1 0 3.323 138.741 3.000 0 0 0
326 1 1 0 4.021 137.506 3.000 0 0 0
327 1 1 0 3.301 136.285 3.000 0 0 0
328 1 1 0 4.000 135.051 3.000 0 0 0
329 1 1 0 3.280 133.829 3.000 0 0 0
330 1 1 0 3.979 132.595 3.000 0 0 0
331 1 1 0 3.259 131.373 3.000 0 0 0
332 1 1 0 3.957 130.139 3.000 0 0 0
333 1 1 0 3.238 128.917 3.000 0 0 0
334 1 1 0 3.936 127.683 3.000 0 0 0
335 1 1 0 3.217 126.461 3.000 0 0 0
336 1 1 0 3.915 125.227 3.000 0 0 0
337 1 1 0 3.196 124.005 3.000 0 0 0
338 1 1 0 3.894 122.771 3.000 0 0 0
339 1 1 0 3.174 121.549 3.000 0 0 0
340 1 1 0 3.873 120.315 3.000 0 0 0
341 1 1 0 3.153 119.093 3.000 0 0 0
342 1 1 0 3.852 117.859 3.000 0 0 0
343 1 1 0 3.132 116.637 3.000 0 0 0
344 1 1 0 3.830 115.403 3.000 0 0 0
345 1 1 0 3.111 114.181 3.000 0 0 0
346 1 1 0 3.809 112.947 3.000 0 0 0
347 1 1 0 3.090 111.726 3.000 0 0 0
348 1 1 0 3.788 110.491 3.000 0 0 0
349 1 1 0 3.069 109.270 3.000 0 0 0
350 1 1 0 3.767 108.036 3.000 0 0 0
351 1 1 0 3.047 106.814 3.000 0 0 0
352 1 1 0 3.746 105.580 3.000 0 0 0
353 1 1 0 3.026 104.358 3.000 0 0 0
354 1 1 0 3.725 103.124 3.000 0 0 0
355 1 1 0 3.005 101.902 3.000 0 0 0
356 1 1 0 3.704 100.668 3.000 0 0 0
357 1 1 0 2.984 99.446 3.000 0 0 0
358 1 1 0 3.682 98.212 3.000 0 0 0
359 1 1 0 2.963 96.990 3.000 0 0 0
360 1 1 0 3.661 95.756 3.000 0 0 0
361 1 1 0 2.942 94.534 3.000 0 0 0
362 1 1 0 3.640 93.300 3.000 0 0 0
363 1 1 0 2.920 92.078 3.000 0 0 0
364 1 1 0 3.619 90.844 3.000 0 0 0
365 1 1 0 2.899 89.622 3.000 0 0 0
366 1 1 0 3.598 88.388 3.000 0 0 0
367 1 1 0 2.878 87.166 3.000 0 0 0
368 1 1 0 3.577 85.932 3.000 0 0 0
369 1 1 0 2.857 84.711 3.000 0 0 0
370 1 1 0 3.555 83.476 3.000 0 0 0
371 1 1 0 2.836 82.255 3.000 0 0 0
372 1 1 0 3.534 81.021 3.000 0 0 0
373 1 1 0 2.815 79.799 3.000 0 0 0
374 1 1 0 3.513 78.565 3.000 0 0 0
375 1 1 0 2.794 77.343 3.000 0 0 0
376 1 1 0 3.492 76.109 3.000 0 0 0
377 1 1 0 2.772 74.887 3.000 0 0 0
378 1 1 0 3.471 73.653 3.000 0 0 0
379 1 1 0 2.751 72.431 3.000 0 0 0
380 1 1 0 3.450 71.197 3.000 0 0 0
381 1 1 0 2.730 69.975 3.000 0 0 0
382 1 1 0 3.428 68.741 3.000 0 0 0
383 1 1 0 2.709 67.519 3.000 0 0 0
384 1 1 0 3.407 66.285 3.000 0 0 0
385 1 1 0 2.688 65.063 3.000 0 0 0
386 1 1 0 3.386 63.829 3.000 0 0 0
387 1 1 0 2.667 62.607 3.000 0 0 0
388 1 1 0 3.365 61.373 3.000 0 0 0
389 1 1 0 2.645 60.151 3.000 0 0 0
390 1 1 0 3.344 58.917 3.000 0 0 0
391 1 1 0 2.624 57.696 3.000 0 0 0
392 1 1 0 3.323 56.461 3.000 0 0 0
393 1 1 0 2.603 55.240 3.000 0 0 0
394 1 1 0 3.301 54.006 3.000 0 0 0
395 1 1 0 2.582 52.784 3.000 0 0 0
396 1 1 0 3.280 51.550 3.000 0 0 0
397 1 1 0 2.561 50.328 3.000 0 0 0
398 1 1 0 3.259 49.094 3.000 0 0 0
399 1 1 0 2.540 47.872 3.000 0 0 0
400 1 1 0 3.238 46.638 3.000 0 0 0
401 1 1 0 2.518 45.416 3.000 0 0 0
402 1 1 0 3.217 44.182 3.000 0 0 0
403 1 1 0 2.497 42.960 3.000 0 0 0
404 1 1 0 3.196 41.726 3.000 0 0 0
405 1 1 0 2.476 40.504 3.000 0 0 0
406 1 1 0 3.174 39.270 3.000 0 0 0
407 1 1 0 2.455 38.048 3.000 0 0 0
408 1 1 0 3.153 36.814 3.000 0 0 0
409 1 1 0 2.434 35.592 3.000 0 0 0
410 1 1 0 3.132 34.358 3.000 0 0 0
411 1 1 0 2.413 33.136 3.000 0 0 0
412 1 1 0 3.111 31.902 3.000 0 0 0
413 1 1 0 2.391 30.681 3.000 0 0 0
414 1 1 0 3.090 29.446 3.000 0 0 0
415 1 1 0 2.370 28.225 3.000 0 0 0
416 1 1 0 3.069 26.991 3.000 0 0 0
417 1 1 0 2.349 25.769 3.000 0 0 0
418 1 1 0 3.047 24.535 3.000 0 0 0
419 1 1 0 2.328 23.313 3.000 0 0 0
420 1 1 0 3.026 22.079 3.000 0 0 0
421 1 1 0 2.307 20.857 3.000 0 0 0
422 1 1 0 3.005 19.623 3.000 0 0 0
423 1 1 0 2.286 18.401 3.000 0 0 0
424 1 1 0 2.984 17.167 3.000 0 0 0
425 1 1 0 2.264 15.945 3.000 0 0 0
426 1 1 0 2.963 14.711 3.000 0 0 0
427 1 1 0 2.243 13.489 3.000 0 0 0
428 1 1 0 2.942 12.255 3.000 0 0 0
429 1 1 0 2.222 11.033 3.000 0 0 0
430 1 1 0 2.920 9.799 3.000 0 0 0
431 1 1 0 2.201 8.577 3.000 0 0 0
432 1 1 0 2.899 7.343 3.000 0 0 0
433 1 1 0 2.180 6.121 3.000 0 0 0
434 1 1 0 2.878 4.887 3.000 0 0 0
435 1 1 0 2.159 3.666 3.000 0 0 0
436 1 1 0 2.857 2.431 3.000 0 0 0
437 1 1 0 2.137 1.210 3.000 0 0 0
438 1 1 0 7.090 246.776 3.000 0 0 0
439 1 1 0 6.370 245.554 3.000 0 0 0
440 1 1 0 7.068 244.320 3.000 0 0 0
441 1 1 0 6.349 243.098 3.000 0 0 0
442 1 1 0 7.047 241.864 3.000 0 0 0
443 1 1 0 6.328 240.642 3.000 0 0 0
444 1 1 0 7.026 239.408 3.000 0 0 0
445 1 1 0 6.307 238.187 3.000 0 0 0
446 1 1 0 7.005 236.952 3.000 0 0 0
447 1 1 0 6.285 235.731 3.000 0 0 0
448 1 1 0 6.984 234.497 3.000 0 0 0
449 1 1 0 6.264 233.275 3.000 0 0 0
450 1 1 0 6.963 232.041 3.000 0 0 0
451 1 1 0 6.243 230.819 3.000 0 0 0
452 1 1 0 6.941 229.585 3.000 0 0 0
453 1 1 0 6.222 228.363 3.000 0 0 0
454 1 1 0 6.920 227.129 3.000 0 0 0
455 1 1 0 6.201 225.907 3.000 0 0 0
456 1 1 0 6.899 224.673 3.000 0 0 0
457 1 1 0 6.180 223.451 3.000 0 0 0
458 1 1 0 6.878 222.217 3.000 0 0 0
459 1 1 0 6.158 220.995 3.000 0 0 0
460 1 1 0 6.857 219.761 3.000 0 0 0
461 1 1 0 6.137 218.539 3.000 0 0 0
462 1 1 0 6.836 217.305 3.000 0 0 0
463 1 1 0 6.116 216.083 3.000 0 0 0
464 1 1 0 6.814 214.849 3.000 0 0 0
465 1 1 0 6.095 213.627 3.000 0 0 0
466 1 1 0 6.793 212.393 3.000 0 0 0
467 1 1 0 6.074 211.172 3.000 0 0 0
468 1 1 0 6.772 209.937 3.000 0 0 0
469 1 1 0 6.053 208.716 3.000 0 0 0
470 1 1 0 6.751 207.482 3.000 0 0 0
471 1 1 0 6.031 206.260 3.000 0 0 0
472 1 1 0 6.730 205.026 3.000 0 0 0
473 1 1 0 6.010 203.804 3.000 0 0 0
474 1 1 0 6.709 202.570 3.000 0 0 0
475 1 1 0 5.989 201.348 3.000 0 0 0
476 1 1 0 6.688 200.114 3.000 0 0 0
477 1 1 0 5.968 198.892 3.000 0 0 0
478 1 1 0 6.666 197.658 3.000 0 0 0
479 1 1 0 5.947 196.436 3.000 0 0 0
480 1 1 0 6.645 195.202 3.000 0 0 0
481 1 1 0 5.926 193.980 3.000 0 0 0
482 1 1 0 6.624 192.746 3.000 0 0 0
483 1 1 0 5.904 191.524 3.000 0 0 0
484 1 1 0 6.603 190.290 3.000 0 0 0
485 1 1 0 5.883 189.068 3.000 0 0 0
486 1 1 0 6.582 187.834 3.000 0 0 0
487 1 1 0 5.862 186.612 3.000 0 0 0
488 1 1 0 6.561 185.378 3.000 0 0 0
489 1 1 0 5.841 184.157 3.000 0 0 0
490 1 1 0 6.539 182.922 3.000 0 0 0
491 1 1 0 5.820 181.701 3.000 0 0 0
492 1 1 0 6.518 180.467 3.000 0 0 0
493 1 1 0 5.799 179.245 3.000 0 0 0
494 1 1 0 6.497 178.011 3.000 0 0 0
495 1 1 0 5.777 176.789 3.000 0 0 0
496 1 1 0 6.476 175.555 3.000 0 0 0
497 1 1 0 5.756 174.333 3.000 0 0 0
498 1 1 0 6.455 173.099 3.000 0 0 0
499 1 1 0 5.735 171.877 3.000 0 0 0
500 1 1 0 6.434 170.643 3.000 0 0 0
501 1 1 0 5.714 169.421 3.000 0 0 0
502 1 1 0 6.412 168.187 3.000 0 0 0
503 1 1 0 5.693 166.965 3.000 0 0 0
504 1 1 0 6.391 165.731 3.000 0 0 0
505 1 1 0 5.672 164.509 3.000 0 0 0
506 1 1 0 6.370 163.275 3.000 0 0 0
507 1 1 0 5.651 162.053 3.000 0 0 0
508 1 1 0 6.349 160.819 3.000 0 0 0
509 1 1 0 5.629 159.597 3.000 0 0 0
510 1 1 0 6.328 158.363 3.000 0 0 0
511 1 1 0 5.608 157.142 3.000 0 0 0
512 1 1 0 6.307 155.907 3.000 0 0 0
513 1 1 0 5.587 154.686 3.000 0 0 0
514 1 1 0 6.285 153.452 3.000 0 0 0
515 1 1 0 5.566 152.230 3.000 0 0 0
516 1 1 0 6.264 150.996 3.000 0 0 0
517 1 1 0 5.545 149.774 3.000 0 0 0
518 1 1 0 6.243 148.540 3.000 0 0 0
519 1 1 0 5.524 147.318 3.000 0 0 0
520 1 1 0 6.222 146.084 3.000 0 0 0
521 1 1 0 5.502 144.862 3.000 0 0 0
522 1 1 0 6.201 143.628 3.000 0 0 0
523 1 1 0 5.481 142.406 3.000 0 0 0
524 1 1 0 6.180 141.172 3.000 0 0 0
525 1 1 0 5.460 139.950 3.000 0 0 0
526 1 1 0 6.158 138.716 3.000 0 0 0
527 1 1 0 5.439 137.494 3.000 0 0 0
528 1 1 0 6.137 136.260 3.000 0 0 0
529 1 1 0 5.418 135.038 3.000 0 0 0
530 1 1 0 6.116 133.804 3.000 0 0 0
531 1 1 0 5.397 132.582 3.000 0 0 0
532 1 1 0 6.095 131.348 3.000 0 0 0
533 1 1 0 5.375 130.127 3.000 0 0 0
534 1 1 0 6.074 128.892 3.000 0 0 0
535 1 1 0 5.354 127.671 3.000 0 0 0
536 1 1 0 6.053 126.437 3.000 0 0 0
537 1 1 0 5.333 125.215 3.000 0 0 0
538 1 1 0 6.031 123.981 3.000 0 0 0
539 1 1 0 5.312 122.759 3.000 0 0 0
540 1 1 0 6.010 121.525 3.000 0 0 0
541 1 1 0 5.291 120.303 3.000 0 0 0
542 1 1 0 5.989 119.069 3.000 0 0 0
543 1 1 0 5.270 117.847 3.000 0 0 0
544 1 1 0 5.968 116.613 3.000 0 0 0
545 1 1 0 5.248 115.391 3.000 0 0 0
546 1 1 0 5.947 114.157 3.000 0 0 0
547 1 1 0 5.227 112.935 3.000 0 0 0
548 1 1 0 5.926 111.701 3.000 0 0 0
549 1 1 0 5.206 110.479 3.000 0 0 0
550 1 1 0 5.904 109.245 3.000 0 0 0
551 1 1 0 5.185 108.023 3.000 0 0 0
552 1 1 0 5.883 106.789 3.000 0 0 0
553 1 1 0 5.164 105.567 3.000 0 0 0
554 1 1 0 5.862 104.333 3.000 0 0 0
555 1 1 0 5.143 103.112 3.000 0 0 0
556 1 1 0 5.841 101.877 3.000 0 0 0
557 1 1 0 5.121 100.656 3.000 0 0 0
558 1 1 0 5.820 99.422 3.000 0 0 0
559 1 1 0 5.100 98.200 3.000 0 0 0
560 1 1 0 5.799 96.966 3.000 0 0 0
561 1 1 0 5.079 95.744 3.000 0 0 0
562 1 1 0 5.777 94.510 3.000 0 0 0
563 1 1 0 5.058 93.288 3.000 0 0 0
564 1 1 0 5.756 92.054 3.000 0 0 0
565 1 1 0 5.037 90.832 3.000 0 0 0
566 1 1 0 5.735 89.598 3.000 0 0 0
567 1 1 0 5.016 88.376 3.000 0 0 0
568 1 1 0 5.714 87.142 3.000 0 0 0
569 1 1 0 4.994 85.920 3.000 0 0 0
570 1 1 0 5.693 84.686 3.000 0 0 0
571 1 1 0 4.973 83.464 3.000 0 0 0
572 1 1 0 5.672 82.230 3.000 0 0 0
573 1 1 0 4.952 81.008 3.000 0 0 0
574 1 1 0 5.651 79.774 3.000 0 0 0
575 1 1 0 4.931 78.552 3.000 0 0 0
576 1 1 0 5.629 77.318 3.000 0 0 0
577 1 1 0 4.910 76.097 3.000 0 0 0
578 1 1 0 5.608 74.862 3.000 0 0 0
579 1 1 0 4.889 73.641 3.000 0 0 0
580 1 1 0 5.587 72.407 3.000 0 0 0
581 1 1 0 4.867 71.185 3.000 0 0 0
582 1 1 0 5.566 69.951 3.000 0 0 0
583 1 1 0 4.846 68.729 3.000 0 0 0
584 1 1 0 5.545 67.495 3.000 0 0 0
585 1 1 0 4.825 66.273 3.000 0 0 0
586 1 1 0 5.524 65.039 3.000 0 0 0
587 1 1 0 4.804 63.817 3.000 0 0 0
588 1 1 0 5.502 62.583 3.000 0 0 0
589 1 1 0 4.783 61.361 3.000 0 0 0
590 1 1 0 5.481 60.127 3.000 0 0 0
591 1 1 0 4.762 58.905 3.000 0 0 0
592 1 1 0 5.460 57.671 3.000 0 0 0
593 1 1 0 4.741 56.449 3.000 0 0 0
594 1 1 0 5.439 55.215 3.000 0 0 0
595 1 1 0 4.719 53.993 3.000 0 0 0
596 1 1 0 5.418 52.759 3.000 0 0 0
597 1 1 0 4.698 51.537 3.000 0 0 0
598 1 1 0 5.397 50.303 3.000 0 0 0
599 1 1 0 4.677 49.082 3.000 0 0 0
600 1 1 0 5.375 47.847 3.000 0 0 0
601 1 1 0 4.656 46.626 3.000 0 0 0
602 1 1 0 5.354 45.392 3.000 0 0 0
603 1 1 0 4.635 44.170 3.000 0 0 0
604 1 1 0 5.333 42.936 3.000 0 0 0
605 1 1 0 4.614 41.714 3.000 0 0 0
606 1 1 0 5.312 40.480 3.000 0 0 0
607 1 1 0 4.592 39.258 3.000 0 0 0
608 1 1 0 5.291 38.024 3.000 0 0 0
609 1 1 0 4.571 36.802 3.000 0 0 0
610 1 1 0 5.270 35.568 3.000 0 0 0
611 1 1 0 4.550 34.346 3.000 0 0 0
612 1 1 0 5.248 33.112 3.000 0 0 0
613 1 1 0 4.529 31.890 3.000 0 0 0
614 1 1 0 5.227 30.656 3.000 0 0 0
615 1 1 0 4.508 29.434 3.000 0 0 0
616 1 1 0 5.206 28.200 3.000 0 0 0
617 1 1 0 4.487 26.978 3.000 0 0 0
618 1 1 0 5.185 25.744 3.000 0 0 0
619 1 1 0 4.465 24.522 3.000 0 0 0
620 1 1 0 5.164 23.288 3.000 0 0 0
621 1 1 0 4.444 22.067 3.000 0 0 0
622 1 1 0 5.143 20.832 3.000 0 0 0
623 1 1 0 4.423 19.611 3.000 0 0 0
624 1 1 0 5.121 18.377 3.000 0 0 0
625 1 1 0 4.402 17.155 3.000 0 0 0
626 1 1 0 5.100 15.921 3.000 0 0 0
627 1 1 0 4.381 14.699 3.000 0 0 0
628 1 1 0 5.079 13.465 3.000 0 0 0
629 1 1 0 4.360 12.243 3.000 0 0 0
630 1 1 0 5.058 11.009 3.000 0 0 0
631 1 1 0 4.338 9.787 3.000 0 0 0
632 1 1 0 5.037 8.553 3.000 0 0 0
633 1 1 0 4.317 7.331 3.000 0 0 0
634 1 1 0 5.016 6.097 3.000 0 0 0
635 1 1 0 4.296 4.875 3.000 0 0 0
636 1 1 0 4.994 3.641 3.000 0 0 0
637 1 1 0 4.275 2.419 3.000 0 0 0
638 1 1 0 4.973 1.185 3.000 0 0 0
639 1 1 0 8.508 246.764 3.000 0 0 0
640 1 1 0 9.206 245.530 3.000 0 0 0
641 1 1 0 8.486 244.308 3.000 0 0 0
642 1 1 0 9.185 243.074 3.000 0 0 0
643 1 1 0 8.465 241.852 3.000 0 0 0
644 1 1 0 9.164 240.618 3.000 0 0 0
645 1 1 0 8.444 239.396 3.000 0 0 0
646 1 1 0 9.142 238.162 3.000 0 0 0
647 1 1 0 8.423 236.940 3.000 0 0 0
648 1 1 0 9.121 235.706 3.000 0 0 0
649 1 1 0 8.402 234.484 3.000 0 0 0
650 1 1 0 9.100 233.250 3.000 0 0 0
651 1 1 0 8.381 232.028 3.000 0 0 0
652 1 1 0 9.079 230.794 3.000 0 0 0
653 1 1 0 8.359 229.572 3.000 0 0 0
654 1 1 0 9.058 228.338 3.000 0 0 0
655 1 1 0 8.338 227.117 3.000 0 0 0
656 1 1 0 9.037 225.883 3.000 0 0 0
657 1 1 0 8.317 224.661 3.000 0 0 0
658 1 1 0 9.015 223.427 3.000 0 0 0
659 1 1 0 8.296 222.205 3.000 0 0 0
660 1 1 0 8.994 220.971 3.000 0 0 0
661 1 1 0 8.275 219.749 3.000 0 0 0
662 1 1 0 8.973 218.515 3.000 0 0 0
663 1 1 0 8.254 217.293 3.000 0 0 0
664 1 1 0 8.952 216.059 3.000 0 0 0
665 1 1 0 8.232 214.837 3.000 0 0 0
666 1 1 0 8.931 213.603 3.000 0 0 0
667 1 1 0 8.211 212.381 3.000 0 0 0
668 1 1 0 8.910 211.147 3.000 0 0 0
669 1 1 0 8.190 209.925 3.000 0 0 0
670 1 1 0 8.888 208.691 3.000 0 0 0
671 1 1 0 8.169 207.469 3.000 0 0 0
672 1 1 0 8.867 206.235 3.000 0 0 0
673 1 1 0 8.148 205.013 3.000 0 0 0
674 1 1 0 8.846 203.779 3.000 0 0 0
675 1 1 0 8.127 202.557 3.000 0 0 0
676 1 1 0 8.825 201.323 3.000 0 0 0
677 1 1 0 8.105 200.102 3.000 0 0 0
678 1 1 0 8.804 198.868 3.000 0 0 0
679 1 1 0 8.084 197.646 3.000 0 0 0
680 1 1 0 8.783 196.412 3.000 0 0 0
681 1 1 0 8.063 195.190 3.000 0 0 0
682 1 1 0 8.761 193.956 3.000 0 0 0
683 1 1 0 8.042 192.734 3.000 0 0 0
684 1 1 0 8.740 191.500 3.000 0 0 0
685 1 1 0 8.021 190.278 3.000 0 0 0
686 1 1 0 8.719 189.044 3.000 0 0 0
687 1 1 0 8.000 187.822 3.000 0 0 0
688 1 1 0 8.698 186.588 3.000 0 0 0
689 1 1 0 7.978 185.366 3.000 0 0 0
690 1 1 0 8.677 184.132 3.000 0 0 0
691 1 1 0 7.957 182.910 3.000 0 0 0
692 1 1 0 8.656 181.676 3.000 0 0 0
693 1 1 0 7.936 180.454 3.000 0 0 0
694 1 1 0 8.634 179.220 3.000 0 0 0
695 1 1 0 7.915 177.998 3.000 0 0 0
696 1 1 0 8.613 176.764 3.000 0 0 0
697 1 1 0 7.894 175.542 3.000 0 0 0
698 1 1 0 8.592 174.308 3.000 0 0 0
699 1 1 0 7.873 173.087 3.000 0 0 0
700 1 1 0 8.571 171.853 3.000 0 0 0
701 1 1 0 7.851 170.631 3.000 0 0 0
702 1 1 0 8.550 169.397 3.000 0 0 0
703 1 1 0 7.830 168.175 3.000 0 0 0
704 1 1 0 8.529 166.941 3.000 0 0 0
705 1 1 0 7.809 165.719 3.000 0 0 0
706 1 1 0 8.508 164.485 3.000 0 0 0
707 1 1 0 7.788 163.263 3.000 0 0 0
708 1 1 0 8.486 162.029 3.000 0 0 0
709 1 1 0 7.767 160.807 3.000 0 0 0
710 1 1 0 8.465 159.573 3.000 0 0 0
711 1 1 0 7.746 158.351 3.000 0 0 0
712 1 1 0 8.444 157.117 3.000 0 0 0
713 1 1 0 7.724 155.895 3.000 0 0 0
714 1 1 0 8.423 154.661 3.000 0 0 0
715 1 1 0 7.703 153.439 3.000 0 0 0
716 1 1 0 8.402 152.205 3.000 0 0 0
717 1 1 0 7.682 150.983 3.000 0 0 0
718 1 1 0 8.381 149.749 3.000 0 0 0
719 1 1 0 7.661 148.528 3.000 0 0 0
720 1 1 0 8.359 147.293 3.000 0 0 0
721 1 1 0 7.640 146.072 3.000 0 0 0
722 1 1 0 8.338 144.838 3.000 0 0 0
723 1 1 0 7.619 143.616 3.000 0 0 0
724 1 1 0 8.317 142.382 3.000 0 0 0
725 1 1 0 7.598 141.160 3.000 0 0 0
726 1 1 0 8.296 139.926 3.000 0 0 0
727 1 1 0 7.576 138.704 3.000 0 0 0
728 1 1 0 8.275 137.470 3.000 0 0 0
729 1 1 0 7.555 136.248 3.000 0 0 0
730 1 1 0 8.254 135.014 3.000 0 0 0
731 1 1 0 7.534 133.792 3.000 0 0 0
732 1 1 0 8.232 132.558 3.000 0 0 0
733 1 1 0 7.513 131.336 3.000 0 0 0
734 1 1 0 8.211 130.102 3.000 0 0 0
735 1 1 0 7.492 128.880 3.000 0 0 0
736 1 1 0 8.190 127.646 3.000 0 0 0
737 1 1 0 7.471 126.424 3.000 0 0 0
738 1 1 0 8.169 125.190 3.000 0 0 0
739 1 1 0 7.449 123.968 3.000 0 0 0
740 1 1 0 8.148 122.734 3.000 0 0 0
741 1 1 0 7.428 121.513 3.000 0 0 0
742 1 1 0 8.127 120.278 3.000 0 0 0
743 1 1 0 7.407 119.057 3.000 0 0 0
744 1 1 0 8.105 117.823 3.000 0 0 0
745 1 1 0 7.386 116.601 3.000 0 0 0
746 1 1 0 8.084 115.367 3.000 0 0 0
747 1 1 0 7.365 114.145 3.000 0 0 0
748 1 1 0 8.063 112.911 3.000 0 0 0
749 1 1 0 7.344 111.689 3.000 0 0 0
750 1 1 0 8.042 110.455 3.000 0 0 0
751 1 1 0 7.322 109.233 3.000 0 0 0
752 1 1 0 8.021 107.999 3.000 0 0 0
753 1 1 0 7.301 106.777 3.000 0 0 0
754 1 1 0 8.000 105.543 3.000 0 0 0
755 1 1 0 7.280 104.321 3.000 0 0 0
756 1 1 0 7.978 103.087 3.000 0 0 0
757 1 1 0 7.259 101.865 3.000 0 0 0
758 1 1 0 7.957 100.631 3.000 0 0 0
759 1 1 0 7.238 99.409 3.000 0 0 0
760 1 1 0 7.936 98.175 3.000 0 0 0
761 1 1 0 7.217 96.953 3.000 0 0 0
762 1 1 0 7.915 95.719 3.000 0 0 0
763 1 1 0 7.195 94.498 3.000 0 0 0
764 1 1 0 7.894 93.263 3.000 0 0 0
765 1 1 0 7.174 92.042 3.000 0 0 0
766 1 1 0 7.873 90.808 3.000 0 0 0
767 1 1 0 7.153 89.586 3.000 0 0 0
768 1 1 0 7.851 88.352 3.000 0 0 0
769 1 1 0 7.132 87.130 3.000 0 0 0
770 1 1 0 7.830 85.896 3.000 0 0 0
771 1 1 0 7.111 84.674 3.000 0 0 0
772 1 1 0 7.809 83.440 3.000 0 0 0
773 1 1 0 7.090 82.218 3.000 0 0 0
774 1 1 0 7.788 80.984 3.000 0 0 0
775 1 1 0 7.068 79.762 3.000 0 0 0
776 1 1 0 7.767 78.528 3.000 0 0 0
777 1 1 0 7.047 77.306 3.000 0 0 0
778 1 1 0 7.746 76.072 3.000 0 0 0
779 1 1 0 7.026 74.850 3.000 0 0 0
780 1 1 0 7.724 73.616 3.000 0 0 0
781 1 1 0 7.005 72.394 3.000 0 0 0
782 1 1 0 7.703 71.160 3.000 0 0 0
783 1 1 0 6.984 69.938 3.000 0 0 0
784 1 1 0 7.682 68.704 3.000 0 0 0
785 1 1 0 6.963 67.483 3.000 0 0 0
786 1 1 0 7.661 66.248 3.000 0 0 0
787 1 1 0 6.941 65.027 3.000 0 0 0
788 1 1 0 7.640 63.793 3.000 0 0 0
789 1 1 0 6.920 62.571 3.000 0 0 0
790 1 1 0 7.619 61.337 3.000 0 0 0
791 1 1 0 6.899 60.115 3.000 0 0 0
792 1 1 0 7.598 58.881 3.000 0 0 0
793 1 1 0 6.878 57.659 3.000 0 0 0
794 1 1 0 7.576 56.425 3.000 0 0 0
795 1 1 0 6.857 55.203 3.000 0 0 0
796 1 1 0 7.555 53.969 3.000 0 0 0
797 1 1 0 6.836 52.747 3.000 0 0 0
798 1 1 0 7.534 51.513 3.000 0 0 0
799 1 1 0 6.814 50.291 3.000 0 0 0
800 1 1 0 7.513 49.057 3.000 0 0 0
801 1 1 0 6.793 47.835 3.000 0 0 0
802 1 1 0 7.492 46.601 3.000 0 0 0
803 1 1 0 6.772 45.379 3.000 0 0 0
804 1 1 0 7.471 44.145 3.000 0 0 0
805 1 1 0 6.751 42.923 3.000 0 0 0
806 1 1 0 7.449 41.689 3.000 0 0 0
807 1 1 0 6.730 40.468 3.000 0 0 0
808 1 1 0 7.428 39.233 3.000 0 0 0
809 1 1 0 6.709 38.012 3.000 0 0 0
810 1 1 0 7.407 36.778 3.000 0 0 0
811 1 1 0 6.688 35.556 3.000 0 0 0
812 1 1 0 7.386 34.322 3.000 0 0 0
813 1 1 0 6.666 33.100 3.000 0 0 0
814 1 1 0 7.365 31.866 3.000 0 0 0
815 1 1 0 6.645 30.644 3.000 0 0 0
816 1 1 0 7.344 29.410 3.000 0 0 0
817 1 1 0 6.624 28.188 3.000 0 0 0
818 1 1 0 7.322 26.954 3.000 0 0 0
819 1 1 0 6.603 25.732 3.000 0 0 0
820 1 1 0 7.301 24.498 3.000 0 0 0
821 1 1 0 6.582 23.276 3.000 0 0 0
822 1 1 0 7.280 22.042 3.000 0 0 0
823 1 1 0 6.561 20.820 3.000 0 0 0
824 1 1 0 7.259 19.586 3.000 0 0 0
825 1 1 0 6.539 18.364 3.000 0 0 0
826 1 1 0 7.238 17.130 3.000 0 0 0
827 1 1 0 6.518 15.908 3.000 0 0 0
828 1 1 0 7.217 14.674 3.000 0 0 0
829 1 1 0 6.497 13.453 3.000 0 0 0
830 1 1 0 7.195 12.218 3.000 0 0 0
831 1 1 0 6.476 10.997 3.000 0 0 0
832 1 1 0 7.174 9.763 3.000 0 0 0
833 1 1 0 6.455 8.541 3.000 0 0 0
834 1 1 0 7.153 7.307 3.000 0 0 0
835 1 1 0 6.434 6.085 3.000 0 0 0
836 1 1 0 7.132 4.851 3.000 0 0 0
837 1 1 0 6.412 3.629 3.000 0 0 0
838 1 1 0 7.111 2.395 3.000 0 0 0
839 1 1 0 6.391 1.173 3.000 0 0 0
840 1 1 0 11.343 246.739 3.000 0 0 0
841 1 1 0 10.624 245.518 3.000 0 0 0
842 1 1 0 11.322 244.284 3.000 0 0 0