ITEM: TIMESTEP
0
ITEM: NUMBER OF ATOMS
16856
ITEM: BOX BOUNDS pp pp pp
0.0000000000000000e+00 1.1289669000000001e+02
0.0000000000000000e+00 1.9554280299999999e+02
0.0000000000000000e+00 1.8399999600000001e+01
ITEM: ATOMS id type x y z c_csym c_2[1] c_2[2] c_2[3] c_2[4] c_2[5] c_2[6] c_3 
1 1 0 0 7.5 6.04905 5055.8 4892.01 -158724 -31.1506 0.0294236 0.302235 -7.40754 
2 1 2.14327 1.20648 7.5 6.04912 4245.98 6256.4 -158194 -1971.26 3136.18 -5546.91 -7.40757 
3 1 3.56318 1.19101 7.5 6.04918 6329.93 4078.85 -157591 3365.08 2691.11 -8647.56 -7.4076 
4 1 6.40302 1.16008 7.5 6.04918 4376.78 5557.2 -155039 -5649.45 3947.42 -16024.5 -7.40776 
5 1 7.82293 1.14461 7.5 6.04918 6247.42 3600.96 -153849 7080.19 1118.47 -18072 -7.40783 
54 1 0.0267909 2.45937 7.5 6.04907 2755.43 7235.7 -158232 -74.4028 6026.57 -47.8324 -7.40757 
55 1 1.44671 2.4439 7.5 6.04912 7392.77 3121.35 -158043 1420.36 6277.16 -3429.58 -7.40757 
56 1 2.17006 3.66585 7.5 6.04913 1865.91 8551.57 -157197 -1917.74 8872.88 -5821.72 -7.40763 
57 1 3.58998 3.65038 7.5 6.0492 8388 1975.2 -156647 3498.81 9087.47 -8111.37 -7.40766 
58 1 4.28654 2.41296 7.5 6.04918 3144.01 7134.67 -156551 -3756.36 6321.83 -11196 -7.40766 
59 1 5.70645 2.3975 7.5 6.04918 7363.49 2902.11 -155813 5348.19 5167.46 -13118.9 -7.40771 
60 1 6.42981 3.61944 7.5 6.0492 1979.22 7740.34 -153745 -5415.64 9448.99 -16753.1 -7.40783 
61 1 7.84972 3.60398 7.5 6.0492 8334.74 1668.43 -153392 7322.61 7257.33 -16871.1 -7.40785 
62 1 8.54629 2.36656 7.5 6.04918 3269.21 6098.81 -151706 -7194.17 7408.94 -21222.4 -7.40796 
160 1 0.0535817 4.91873 7.5 6.04907 333.292 9461.6 -156847 -145.788 11494.2 -87.3857 -7.40765 
161 1 1.4735 4.90326 7.5 6.04912 9294.51 925.038 -156425 1528.66 12756.1 -3233.64 -7.40767 
162 1 2.19685 6.12521 7.5 6.04913 -575.167 10742.5 -155387 -1880.61 13953.9 -6023.49 -7.40774 
163 1 3.61677 6.10975 7.5 6.0492 10156 -160.292 -154576 3645.21 15490.5 -7486.08 -7.40778 
164 1 4.31333 4.87233 7.5 6.0492 706.16 9311.31 -155021 -3629.08 11662.6 -11631.2 -7.40776 
165 1 5.73324 4.85686 7.5 6.0492 9285.92 818.267 -154523 5559.67 11494.5 -12167.6 -7.40779 
166 1 6.4566 6.07881 7.5 6.0492 -483.799 9828.88 -151669 -5178 14303.7 -17289.1 -7.40796 
167 1 7.87651 6.06334 7.5 6.0492 10133.9 -287.97 -151853 7548.34 13431.2 -15484.7 -7.40795 
168 1 8.57308 4.82593 7.5 6.0492 802.185 8117.19 -149762 -6893.22 12423.9 -22046.9 -7.40807 
266 1 0.0803726 7.3781 7.5 6.04907 -2094.33 11634.7 -154731 -213.769 16218.4 -120.67 -7.40778 
267 1 1.50029 7.36263 7.5 6.04912 10898.5 -1219.8 -153647 1622.24 19126.8 -3005.86 -7.40783 
268 1 2.22364 8.58458 7.5 6.04913 -2977.14 12865.1 -152936 -1827.98 18221.7 -6159.09 -7.40788 
269 1 3.64356 8.56911 7.5 6.0492 11604.2 -2224.94 -151343 3759.3 21691.4 -6780.88 -7.40798 
270 1 4.34012 7.3317 7.5 6.0492 -1736.02 11435.1 -152771 -3474.93 16268.2 -11935 -7.40789 
271 1 5.76004 7.31623 7.5 6.0492 10912.3 -1208.42 -152101 5723.9 17734.2 -11083.1 -7.40793 
272 1 6.48339 8.53818 7.5 6.0492 -2909.47 11861.6 -148985 -4901.95 18363 -17645.5 -7.40812 
273 1 7.9033 8.52271 7.5 6.0492 11612.4 -2169.09 -149190 7711.77 19441.1 -13935.4 -7.40811 
274 1 8.59987 7.28529 7.5 6.0492 -1671.22 10099.2 -147149 -6542.69 16721.6 -22636.4 -7.40823 
377 1 5.78683 9.77559 7.5 6.0492 12201.1 -3153.59 -148529 5839.42 23696.6 -9883.84 -7.40815 
380 1 8.62666 9.74466 7.5 6.0492 -4064.84 12021.2 -144047 -6144.23 20185.2 -23010.3 -7.40842 
6 1 10.6628 1.11368 7.5 6.04918 4523.48 4385.22 -149076 -8949.02 5623.02 -24911.5 -7.40811 
7 1 12.0827 1.09821 7.5 6.04918 6211.07 2749.07 -147703 10314.4 -1445.82 -25694.7 -7.4082 
8 1 14.9225 1.06727 7.5 6.04918 4691.82 2873.07 -140892 -11667.7 8066.37 -31553.5 -7.4086 
9 1 16.3424 1.0518 7.5 6.04918 6229.21 1607.44 -139720 12876 -4815.21 -31082.1 -7.40868 
63 1 9.9662 2.35109 7.5 6.04918 7321.17 2337.03 -151125 8901.57 2903.81 -21428 -7.40799 
64 1 10.6896 3.57304 7.5 6.0492 2090.23 6354.17 -147209 -8572.04 10715.6 -26066.2 -7.40823 
65 1 12.1095 3.55757 7.5 6.0492 8341.14 1087.64 -148051 10636.3 4278.27 -23937.3 -7.40818 
66 1 12.806 2.32016 7.5 6.04918 3405.21 4609.62 -144190 -10167.2 9247.79 -29250.1 -7.40841 
67 1 14.2259 2.30469 7.5 6.04918 7334.35 1484.33 -144444 11852.6 -329.235 -27719.9 -7.40839 
68 1 14.9493 3.52664 7.5 6.0492 2212.34 4550.06 -138210 -11193.1 12645.9 -33085.1 -7.40877 
69 1 16.3692 3.51117 7.5 6.0492 8404.84 284.193 -141132 13243.8 404.335 -28910.1 -7.40859 
70 1 17.0658 2.27375 7.5 6.04918 3563.39 2808.27 -134686 -12500 11755.7 -34845.4 -7.40898 
71 1 18.4857 2.25829 7.5 6.04918 7402.35 395.469 -136354 14044.3 -4283.83 -31797.1 -7.40888 
169 1 9.99299 4.81046 7.5 6.0492 9281.64 483.717 -150517 9195.26 8904.34 -19819 -7.40803 
170 1 10.7163 6.03241 7.5 6.0492 -410.555 8247.44 -144625 -8169.97 15174.1 -26940.8 -7.40838 
171 1 12.1363 6.01694 7.5 6.0492 10183.1 -586.31 -147384 10919.9 10083 -21932.4 -7.40822 
172 1 12.8328 4.77952 7.5 6.0492 894.848 6381.24 -141585 -9735.8 13796.6 -30445.5 -7.40856 
173 1 14.2527 4.76406 7.5 6.0492 9340.07 -53.6554 -144818 12200.4 5225.84 -25600.7 -7.40837 
174 1 14.9761 5.986 7.5 6.0492 -338.056 6171.15 -134895 -10676.4 16604.4 -34291.3 -7.40896 
175 1 16.396 5.97054 7.5 6.0492 10290.5 -1044.72 -141610 13563.2 5759.4 -26467.6 -7.40856 
176 1 17.0926 4.73312 7.5 6.0492 1002.64 4267.3 -131205 -11987.3 15771 -36372 -7.40919 
177 1 18.5125 4.71765 7.5 6.0492 9450.19 -782.666 -137939 14420.5 774.241 -29337.2 -7.40878 
275 1 10.0198 7.26982 7.5 6.0492 10945.5 -1304.61 -148831 9415.95 14862.2 -18001.5 -7.40813 
276 1 10.7431 8.49177 7.5 6.0492 -2877.11 10106.3 -141496 -7708.57 18865.3 -27551.4 -7.40857 
277 1 12.1631 8.47631 7.5 6.0492 11700.6 -2179.97 -145650 11120.3 15784.4 -19711.1 -7.40832 
278 1 12.8596 7.23889 7.5 6.0492 -1624.68 8139.09 -138387 -9235.15 17650.4 -31339.5 -7.40875 
279 1 14.2795 7.22342 7.5 6.0492 11046.4 -1520.71 -144182 12459.8 10798.6 -23233.5 -7.40841 
280 1 15.0029 8.44537 7.5 6.0492 -2859.14 7782.12 -131118 -10082.1 19826 -35187.9 -7.40919 
281 1 16.4228 8.4299 7.5 6.0492 11846.9 -2290.84 -141086 13789.4 11083.9 -23788.7 -7.40859 
282 1 17.1194 7.19249 7.5 6.0492 -1573.66 5734.58 -127219 -11390.4 19112 -37572.2 -7.40943 
283 1 18.5393 7.17702 7.5 6.0492 11194.1 -1887.2 -138590 14703.6 5915.94 -26624 -7.40874 
381 1 10.0466 9.72919 7.5 6.0492 12268 -3007.95 -146036 9562.03 20598.3 -16006.6 -7.4083 
384 1 12.8864 9.69825 7.5 6.0492 -4068.33 9860.55 -134773 -8666.22 20707.3 -31953.6 -7.40897 
385 1 14.3063 9.68279 7.5 6.0492 12406.3 -2901.27 -142493 12629.6 16224.4 -20655.5 -7.40851 
388 1 17.1462 9.65185 7.5 6.0492 -4082.41 7189.75 -122905 -10708.1 21692 -38465.2 -7.40969 
389 1 18.5661 9.63638 7.5 6.0492 12583.8 -2907.14 -138247 14893.4 10991.8 -23695 -7.40877 
10 1 19.1823 1.02087 7.5 6.04918 4887.45 1125.54 -131191 -13655.8 11135 -35760.7 -7.40919 
11 1 20.6022 1.0054 7.5 6.04918 6302.33 219.701 -130535 14642.7 -8760.1 -34228.8 -7.40923 
12 1 23.442 0.974466 7.5 6.04918 5109.97 -825.276 -120659 -14826.2 14649.1 -37716.3 -7.40982 
13 1 24.8619 0.958998 7.5 6.04918 6422.28 -1436.51 -120740 15560.3 -13033.9 -35405.9 -7.40982 
14 1 27.7018 0.928063 7.5 6.04918 5346.65 -3010.17 -109896 -15148.7 18404.4 -37771.1 -7.41047 
72 1 19.209 3.48023 7.5 6.0492 2361.13 2459.29 -127494 -13128.5 15171.3 -37594.6 -7.40941 
73 1 20.629 3.46477 7.5 6.0492 8517.31 -737.104 -133201 15029.6 -4065.42 -31795.5 -7.40907 
74 1 21.3255 2.22735 7.5 6.04918 3752.41 779.573 -123929 -14070.3 14804.2 -38014.1 -7.40963 
75 1 22.7454 2.21188 7.5 6.04918 7517.64 -935.817 -127446 15393.5 -8686.55 -33820.5 -7.40941 
76 1 23.4688 3.43383 7.5 6.0492 2543.59 143.79 -115798 -14281.7 18170.1 -39752.9 -7.41012 
77 1 24.8887 3.41836 7.5 6.0492 8659.56 -2027.29 -124780 15948 -8831.26 -32858.7 -7.40958 
78 1 25.5853 2.18095 7.5 6.04918 3969.52 -1465.91 -112595 -14814.8 18222.5 -39041.9 -7.41031 
79 1 27.0052 2.16548 7.5 6.04918 7661.29 -2568.36 -118235 15879.3 -13269.3 -34113.3 -7.40997 
80 1 27.7285 3.38743 7.5 6.0492 2753.55 -2402.25 -103780 -14611 21469.9 -39890.3 -7.41084 
178 1 19.2358 5.9396 7.5 6.0492 -244.747 3754.89 -123255 -12548.7 18595.4 -39098.7 -7.40967 
179 1 20.6558 5.92413 7.5 6.0492 10436.5 -1697.05 -135015 15367.2 820.73 -29101.5 -7.40896 
180 1 21.3523 4.68672 7.5 6.0492 1141.59 1887.93 -119396 -13521.1 18285.3 -39802.5 -7.4099 
181 1 22.7722 4.67125 7.5 6.0492 9593.6 -1744.37 -130395 15780.1 -4117.41 -31185.5 -7.40924 
182 1 23.4956 5.8932 7.5 6.0492 -118.023 1085.84 -110484 -13682 21081.4 -41484.1 -7.41044 
183 1 24.9155 5.87773 7.5 6.0492 10591.8 -2622.65 -128048 16294.6 -4387 -30079.7 -7.40938 
184 1 25.6121 4.64031 7.5 6.0492 1315.65 -719.588 -106887 -14263.1 21213.9 -40992 -7.41065 
185 1 27.032 4.62485 7.5 6.0492 9742.85 -3019.66 -122632 16267 -9142.83 -31449.7 -7.4097 
186 1 27.7553 5.84679 7.5 6.0492 45.5005 -1815.3 -97288.3 -14022.2 23921.9 -41742.3 -7.41123 
284 1 19.2626 8.39897 7.5 6.0492 -2832.22 5061.44 -118645 -11877.6 21308.5 -40285 -7.40994 
285 1 20.6825 8.3835 7.5 6.0492 12019.1 -2575.37 -135897 15612.6 5749.46 -26178.6 -7.40891 
286 1 21.3791 7.14608 7.5 6.0492 -1497.85 3021.07 -114450 -12879.6 21106.1 -41274.3 -7.4102 
287 1 22.799 7.13061 7.5 6.0492 11358 -2480.57 -132486 16078.6 597.563 -28316.8 -7.40911 
288 1 23.5224 8.35256 7.5 6.0492 -2777.71 2054.9 -104885 -12984.3 23297.5 -42917.1 -7.41077 
289 1 24.9423 8.3371 7.5 6.0492 12179.3 -3141.31 -130450 16557.9 164.213 -27095.6 -7.40923 
290 1 25.6389 7.09968 7.5 6.0492 -1385.74 62.1236 -100849 -13617.5 23550.2 -42656.7 -7.41102 
291 1 27.0588 7.08421 7.5 6.0492 11503.7 -3403.55 -126242 16577.8 -4818.34 -28582.9 -7.40949 
292 1 27.7821 8.30616 7.5 6.0492 -2683.7 -1192.65 -90591.3 -13336.3 25683.1 -43329.4 -7.41164 
392 1 21.4059 9.60545 7.5 6.0492 -4084.51 4163.16 -109266 -12140.2 23193.1 -42443.3 -7.41051 
393 1 22.8258 9.58998 7.5 6.0492 12759.2 -3136.92 -133645 16289 5322.54 -25246.8 -7.40904 
396 1 25.6656 9.55905 7.5 6.0492 -4054.52 866.394 -94656.7 -12868.5 25166.5 -44043 -7.41139 
397 1 27.0856 9.54358 7.5 6.0492 12895.1 -3713.46 -128979 16812.2 -421.206 -25538.2 -7.40932 
15 1 29.1217 0.912595 7.5 6.04918 6569.79 -3418.8 -110837 15626.5 -17392.9 -34942.9 -7.41042 
16 1 31.9615 0.88166 7.5 6.04918 5574.64 -5468.07 -99396.8 -14640.6 22186.5 -36232.1 -7.41111 
17 1 33.3814 0.866192 7.5 6.04918 6719.62 -5757.25 -101244 14877 -21607.5 -33052.5 -7.411 
18 1 36.2212 0.835256 7.5 6.04918 5771.83 -8171.13 -89593.9 -13354 25784.4 -33243.1 -7.4117 
81 1 29.1485 3.37196 7.5 6.0492 8805.44 -3661.98 -116305 16006.2 -13622 -32413.7 -7.41009 
82 1 29.845 2.13454 7.5 6.04918 4198.92 -3961.17 -101259 -14723.7 21808.5 -38274.1 -7.41099 
83 1 31.2649 2.11908 7.5 6.04918 7807.67 -4562.04 -109145 15524.1 -17787.1 -32955.6 -7.41052 
84 1 31.9883 3.34103 7.5 6.0492 2976.07 -5198.34 -91996.6 -14123.8 24863.5 -38302.7 -7.41156 
85 1 33.4082 3.32556 7.5 6.0492 8931 -5680.93 -108130 15242 -18204.3 -30657.5 -7.41058 
86 1 34.1048 2.08814 7.5 6.04918 4419.8 -6712.8 -90411.4 -13829.6 25346.9 -35941.4 -7.41165 
87 1 35.5247 2.07267 7.5 6.04918 7935.23 -6910.15 -100535 14376.3 -22021.4 -30465.9 -7.41104 
88 1 36.248 3.29462 7.5 6.0492 3188.61 -8203.45 -80947.3 -12870.3 28132.7 -35135.2 -7.41223 
187 1 29.1753 5.83133 7.5 6.0492 10726.2 -3914.08 -121072 16357.7 -9569.06 -29687.1 -7.4098 
188 1 29.8718 4.59391 7.5 6.0492 1517.69 -3564.55 -94309.3 -14190.7 24374.1 -40262.1 -7.41142 
189 1 31.2917 4.57844 7.5 6.0492 9870.15 -4680.96 -115008 15907.8 -14043.2 -30387.2 -7.41016 
190 1 32.0151 5.80039 7.5 6.0492 237.27 -4946.91 -84287.5 -13567.1 26918.7 -40145.1 -7.41202 
191 1 33.435 5.78492 7.5 6.0492 10816.7 -5615.08 -114378 15593.7 -14489 -28095.9 -7.4102 
192 1 34.1316 4.54751 7.5 6.0492 1731 -6636.76 -82218.5 -13330.4 27550 -37833.4 -7.41215 
193 1 35.5515 4.53204 7.5 6.0492 9956.98 -6724.41 -107816 14747.9 -18604.2 -28099.5 -7.4106 
194 1 36.2748 5.75399 7.5 6.0492 437.106 -8250.82 -72047.6 -12362.2 29849.3 -36832.9 -7.41277 
293 1 29.202 8.29069 7.5 6.0492 12295.2 -4094.21 -125037 16639.5 -5358.46 -26783.6 -7.40956 
294 1 29.8986 7.05328 7.5 6.0492 -1235.77 -3128.07 -87102.8 -13570.4 26281.4 -42002.8 -7.41185 
295 1 31.3185 7.03781 7.5 6.0492 11604 -4735.22 -120147 16229.2 -10061.8 -27645.9 -7.40985 
296 1 32.0419 8.25976 7.5 6.0492 -2551.55 -4654.05 -76439.2 -12920.8 28278.4 -41758.5 -7.4125 
297 1 33.4618 8.24429 7.5 6.0492 12345 -5477.65 -119883 15890.4 -10579.6 -25382.6 -7.40987 
298 1 34.1584 7.00687 7.5 6.0492 -1059.16 -6516.96 -73829.2 -12756.6 29086.6 -39514 -7.41266 
299 1 35.5783 6.99141 7.5 6.0492 11642.9 -6471.98 -114433 15072.2 -14921.9 -25586.2 -7.4102 
300 1 36.3016 8.21335 7.5 6.0492 -2395.1 -8250.32 -63064.4 -11778.6 30860.7 -38334.5 -7.41331 
400 1 29.9254 9.51264 7.5 6.0492 -3983.16 -2659 -79813.5 -12849.2 27470.1 -43497.7 -7.41229 
401 1 31.3453 9.49717 7.5 6.0492 12963.1 -4719.78 -124470 16487.9 -5961.07 -24750.4 -7.40959 
404 1 34.1851 9.46624 7.5 6.0492 -3874.72 -6356.69 -65418.6 -12092.2 29896.8 -40981.5 -7.41317 
405 1 35.6051 9.45077 7.5 6.0492 12952 -6146.82 -120286 15346.7 -11087.7 -22938.9 -7.40985 
19 1 37.6412 0.819789 7.5 6.04918 6852.32 -8387.05 -92337.4 13371.5 -25467.3 -29774.8 -7.41153 
20 1 40.481 0.788853 7.5 6.04918 5918.83 -10969.5 -80901.6 -11368.2 29002.3 -28800.2 -7.41223 
21 1 41.9009 0.773386 7.5 6.04918 6955.3 -11110.4 -84497.6 11190.2 -28782.7 -25048.9 -7.41201 
22 1 44.7407 0.74245 7.5 6.04918 6008.79 -13589.9 -73742.9 -8788.03 31666.6 -22873.5 -7.41266 
23 1 46.1607 0.726982 7.5 6.04918 7028.55 -13617.8 -78122 8436.73 -31390 -18860 -7.4124 
89 1 37.668 3.27915 7.5 6.0492 9019.92 -8022.17 -100565 13710.5 -22376.4 -27618.6 -7.41104 
90 1 38.3645 2.04174 7.5 6.04918 4609.25 -9631.63 -80504.6 -12200.3 28628 -32107.7 -7.41225 
91 1 39.7844 2.02627 7.5 6.04918 8030.31 -9484.81 -92745.4 12502.3 -25777.5 -26613.4 -7.41151 
92 1 40.5078 3.24822 7.5 6.0492 3368.21 -11259.2 -71117.6 -10934.5 31072.9 -30397.1 -7.41282 
93 1 41.9277 3.23275 7.5 6.0492 9068.59 -10493.2 -93921.2 11482.9 -25957.7 -23228.6 -7.41144 
94 1 42.6243 1.99533 7.5 6.04918 4750.06 -12498.7 -71992.5 -9930.91 31463.4 -26745.7 -7.41277 
95 1 44.0442 1.97987 7.5 6.04918 8091.4 -12029.8 -86130.4 9989.2 -28880.5 -21336.4 -7.41191 
96 1 44.7675 3.20182 7.5 6.0492 3501.14 -14085.9 -63002.8 -8426.97 33510.1 -24080.9 -7.41332 
97 1 46.1875 3.18635 7.5 6.0492 9090.19 -12794 -88525 8656.47 -28784 -17465.2 -7.41176 
98 1 46.884 1.94893 7.5 6.04918 4837.35 -14992.9 -65333.7 -7141.71 33695.4 -19883 -7.41317 
195 1 37.6947 5.73852 7.5 6.0492 10852.4 -7662.85 -108212 14050.6 -18952.6 -25321.4 -7.41057 
196 1 38.3913 4.5011 7.5 6.0492 1931.5 -9833.5 -71136.5 -11750.1 30523.9 -33776.1 -7.41282 
197 1 39.8112 4.48564 7.5 6.0492 9996.22 -9023.82 -101331 12845.8 -22640.5 -24547.8 -7.41099 
198 1 40.5346 5.70759 7.5 6.0492 622.975 -11556.9 -61127.7 -10493 32503.3 -31829.5 -7.41343 
199 1 41.9545 5.69212 7.5 6.0492 10840.4 -9871.34 -102815 11789.3 -22785.4 -21292.4 -7.4109 
200 1 42.6511 4.4547 7.5 6.0492 2099.52 -12929 -61590.7 -9549.43 33103 -28083.2 -7.4134 
201 1 44.071 4.43923 7.5 6.0492 9999.69 -11331.5 -95836.1 10279.5 -25980.8 -19666.5 -7.41132 
202 1 44.7943 5.66118 7.5 6.0492 775.65 -14579.1 -52096.3 -8073.74 34708.4 -25155.5 -7.41398 
203 1 46.2142 5.64571 7.5 6.0492 10806.1 -11951.8 -98440 8898.89 -25820 -15985.2 -7.41116 
204 1 46.9108 4.4083 7.5 6.0492 2221.02 -15595.2 -54110.5 -6853.13 35135.2 -20811.3 -7.41386 
301 1 37.7215 8.19789 7.5 6.0492 12324.5 -7227.99 -115170 14348.4 -15310 -22894.4 -7.41015 
302 1 38.4181 6.96047 7.5 6.0492 -876.357 -9985.79 -61622.9 -11241.2 31743.5 -35264.7 -7.4134 
303 1 39.838 6.945 7.5 6.0492 11622.5 -8488.56 -109306 13154.7 -19219.5 -22358.4 -7.41051 
304 1 40.5614 8.16695 7.5 6.0492 -2233.14 -11798.8 -51100.7 -9993.74 33218.3 -33096.7 -7.41404 
305 1 41.9813 8.15148 7.5 6.0492 12253 -9161.74 -111070 12064.2 -19377.4 -19249 -7.4104 
306 1 42.6778 6.91407 7.5 6.0492 -708.398 -13300.2 -51085.8 -9126.72 34058.4 -29271.9 -7.41404 
307 1 44.0978 6.8986 7.5 6.0492 11566.3 -10546.5 -104978 10545.1 -22784 -17899 -7.41077 
308 1 44.8211 8.12055 7.5 6.0492 -2088.1 -15006.2 -41190.4 -7682.24 35183.7 -26098.8 -7.41465 
309 1 46.241 8.10508 7.5 6.0492 12165.2 -11005.9 -107757 9118.66 -22608.4 -14427.3 -7.4106 
310 1 46.9376 6.86766 7.5 6.0492 -576.341 -16127.2 -42818.2 -6540.2 35886.5 -21626.6 -7.41455 
408 1 38.4449 9.41984 7.5 6.0492 -3741.58 -10091.2 -52139.4 -10658.4 32225.2 -36571.2 -7.41398 
409 1 39.8648 9.40437 7.5 6.0492 12874.9 -7870.73 -116569 13425.1 -15624.9 -20054.7 -7.41007 
412 1 42.7046 9.37343 7.5 6.0492 -3604.19 -13615.2 -40653.5 -8649.02 34265.3 -30310.8 -7.41468 
413 1 44.1246 9.35797 7.5 6.0492 12764 -9662.64 -113451 10781.5 -19398.5 -16041.7 -7.41026 
416 1 46.9644 9.32703 7.5 6.0492 -3486.15 -16591.8 -31631.7 -6191.96 35882.2 -22330.5 -7.41523 
24 1 49.0005 0.696047 7.5 6.04918 6047.8 -15688.3 -68530.4 -5743.35 33631.7 -15559.9 -7.41298 
25 1 50.4204 0.680579 7.5 6.04918 7082.01 -15554.3 -73596.1 5244.94 -33159.4 -11377.7 -7.41267 
26 1 53.2602 0.649644 7.5 6.04918 6046.85 -16938.1 -65611.3 -2389.88 34785.1 -7184.38 -7.41316 
27 1 54.6802 0.634176 7.5 6.04918 7124.78 -16610.9 -71234.7 1778.64 -34004.6 -3015.36 -7.41281 
99 1 48.3039 1.93346 7.5 6.04918 8130.84 -14207.5 -81052.2 6953.18 -31179.6 -14693 -7.41222 
100 1 49.0273 3.15541 7.5 6.0492 3581.89 -16332.3 -57083.8 -5481.2 35308.9 -16311.2 -7.41368 
101 1 50.4472 3.13995 7.5 6.0492 9105.21 -14582.4 -84693.5 5363.86 -30714.3 -10484.9 -7.412 
102 1 51.1438 1.90253 7.5 6.04918 4875.03 -16762.6 -60948 -3976.11 35201.1 -11737.8 -7.41344 
103 1 52.5637 1.88706 7.5 6.04918 8164.41 -15680.9 -77838.8 3544.92 -32558.6 -6965.05 -7.41241 
104 1 53.287 3.10901 7.5 6.0492 3611.46 -17665.2 -53762.4 -2250.21 36371.5 -7442.17 -7.41388 
105 1 54.7069 3.09354 7.5 6.0492 9131.6 -15563.9 -82687.7 1776.14 -31647 -2678.49 -7.41212 
106 1 55.4035 1.85613 7.5 6.04918 4871.15 -17522.4 -59146.7 -597.75 35893.7 -2770.42 -7.41355 
205 1 48.3307 4.39283 7.5 6.0492 9990.64 -13323.6 -91620.5 7160.13 -28467.1 -13506.7 -7.41158 
206 1 49.0541 5.61478 7.5 6.0492 879.796 -16961.4 -45500.8 -5241.22 36339.4 -16968.6 -7.41438 
207 1 50.474 5.59931 7.5 6.0492 10779.9 -13579.8 -95332 5511.47 -27902.9 -9546.67 -7.41135 
208 1 51.1706 4.36189 7.5 6.0492 2288.82 -17475 -49177.3 -3804.95 36511 -12209 -7.41416 
209 1 52.5905 4.34643 7.5 6.0492 9994.28 -14678.6 -88948.2 3641.84 -29968.3 -6333.33 -7.41174 
210 1 53.3138 5.56838 7.5 6.0492 929.996 -18368.8 -41795.8 -2144.01 37313.4 -7653.43 -7.41461 
211 1 54.7337 5.55291 7.5 6.0492 10790.4 -14479.6 -93695.4 1808.06 -28916.1 -2344.18 -7.41145 
212 1 55.4303 4.31549 7.5 6.0492 2304.41 -18281.4 -47146.4 -561.597 37157.2 -2765.01 -7.41428 
311 1 48.3575 6.8522 7.5 6.0492 11508.2 -12337.6 -101661 7349.7 -25447.8 -12257.4 -7.41097 
312 1 49.0809 8.07415 7.5 6.0492 -1980.38 -17514 -33947 -4980.14 36643.6 -17535.8 -7.41509 
313 1 50.5008 8.05868 7.5 6.0492 12101.6 -12459.7 -105402 5643.99 -24834.8 -8569.79 -7.41074 
314 1 51.1973 6.82126 7.5 6.0492 -493.596 -18108.3 -37361.3 -3624.18 37131.8 -12611.6 -7.41488 
315 1 52.6173 6.80579 7.5 6.0492 11483.5 -13564.2 -99551.5 3727.63 -27063.6 -5682.76 -7.4111 
316 1 53.3406 8.02774 7.5 6.0492 -1922.17 -18989.1 -29875.6 -2032.31 37529.1 -7823.68 -7.41534 
317 1 54.7605 8.01227 7.5 6.0492 12098.4 -13270.6 -104148 1830.99 -25921.8 -2018.03 -7.41082 
318 1 55.4571 6.77486 7.5 6.0492 -465.983 -18955.7 -35112.1 -528.311 37734.4 -2742.23 -7.41502 
417 1 48.3843 9.31156 7.5 6.0492 12662.4 -11237.6 -111068 7518.16 -22228.5 -10951.9 -7.4104 
420 1 51.2241 9.28063 7.5 6.0492 -3405.42 -18664.6 -25673.9 -3426.52 36994.4 -12949.3 -7.4156 
421 1 52.644 9.26516 7.5 6.0492 12614.5 -12324.5 -109543 3800.17 -23950.6 -5018.8 -7.41049 
424 1 55.4839 9.23422 7.5 6.0492 -3374.54 -19548.2 -23216.9 -495.657 37554.3 -2707.59 -7.41575 
28 1 57.52 0.603241 7.5 6.04918 6019 -17123.7 -65198.6 1095.32 35052.8 1700.15 -7.41318 
29 1 58.9399 0.587773 7.5 6.04918 7160.51 -16613.4 -71217.2 -1775.82 -33892 5618.78 -7.41281 
30 1 61.7797 0.556838 7.5 6.04918 5972.71 -16206.1 -67321.5 4526.25 34405.7 10416.2 -7.41305 
31 1 63.1996 0.54137 7.5 6.04918 7183.84 -15569.5 -73548.5 -5223.06 -32842.5 13856.4 -7.41267 
107 1 56.8234 1.84066 7.5 6.04918 8202.42 -16203.8 -76723.7 -53.1917 -32949.3 1337.16 -7.41248 
108 1 57.5468 3.06261 7.5 6.0492 3596.77 -17865.7 -53285.5 1100.66 36635.3 1945.61 -7.41391 
109 1 58.9667 3.04714 7.5 6.0492 9179.04 -15572.1 -82658.8 -1904.29 -31537 5376.56 -7.41212 
110 1 59.6633 1.80972 7.5 6.04918 4835.34 -17139 -60065.3 2816.83 35724.2 6372.02 -7.41349 
111 1 61.0832 1.79425 7.5 6.04918 8245.92 -15693.1 -77794.9 -3639.88 -32342.6 9571.22 -7.41241 
112 1 61.8065 3.0162 7.5 6.0492 3542.95 -16893.3 -55688.9 4398.65 36071.9 11149.4 -7.41376 
113 1 63.2264 3.00074 7.5 6.0492 9239.65 -14614.5 -84614.2 -5465.52 -30405.3 13047.3 -7.412 
114 1 63.923 1.76332 7.5 6.04918 4769.98 -15669.6 -63631.1 6089.4 34685.2 14995.7 -7.41328 
115 1 65.3429 1.74785 7.5 6.04918 8280.42 -14245.9 -80976.5 -7015.18 -30788.6 17117.1 -7.41222 
213 1 56.8502 4.30002 7.5 6.0492 10030 -15165.8 -88009.3 -79.4147 -30401.8 1372.06 -7.41179 
214 1 57.5736 5.52197 7.5 6.0492 925.46 -18581.6 -41259.7 1061.91 37577.8 2185.36 -7.41464 
215 1 58.9935 5.50651 7.5 6.0492 10850.2 -14495.7 -93650.9 -1993.29 -28803.7 5081.87 -7.41145 
216 1 59.69 4.26909 7.5 6.0492 2271.42 -17878.6 -48173.1 2713.16 37031.1 6849.92 -7.41422 
217 1 61.11 4.25362 7.5 6.0492 10099.3 -14704.3 -88878.2 -3785.53 -29752.4 9004.44 -7.41174 
218 1 61.8333 5.47557 7.5 6.0492 868.126 -17559.3 -43934 4217.08 37104.6 11826.3 -7.41448 
219 1 63.2532 5.4601 7.5 6.0492 10949.6 -13633.2 -95209.3 -5662.05 -27587 12141.1 -7.41136 
220 1 63.9498 4.22269 7.5 6.0492 2192.99 -16325 -52176.7 5854.15 36120.1 15921.3 -7.41398 
221 1 65.3697 4.20722 7.5 6.0492 10183.5 -13386.6 -91498.5 -7259.46 -28076.7 15982.4 -7.41158 
319 1 56.877 6.75939 7.5 6.0492 11517.8 -14012.2 -98793.3 -111.698 -27534.1 1376.51 -7.41114 
320 1 57.6004 7.98134 7.5 6.0492 -1920.83 -19212.1 -29284.4 1014.41 37797.4 2412.55 -7.41538 
321 1 59.0203 7.96587 7.5 6.0492 12170.3 -13295.8 -104083 -2084.94 -25802.7 4730.55 -7.41082 
322 1 59.7168 6.72845 7.5 6.0492 -495.279 -18534.3 -36244.2 2594.31 37656.8 7292.38 -7.41495 
323 1 61.1368 6.71299 7.5 6.0492 11613 -13606.3 -99446.5 -3931.08 -26838.5 8359.88 -7.4111 
324 1 61.8601 7.93494 7.5 6.0492 -1974.61 -18143.3 -32219.6 4013.08 37420.2 12439 -7.4152 
325 1 63.28 7.91947 7.5 6.0492 12307.6 -12540.4 -105222 -5854.49 -24499.9 11135.4 -7.41075 
326 1 63.9766 6.68205 7.5 6.0492 -576.494 -16902.9 -40669.1 5592.14 36881.1 16763.6 -7.41468 
327 1 65.3965 6.66658 7.5 6.0492 11747.8 -12431.8 -101476 -7496.27 -25040.3 14730.7 -7.41098 
425 1 56.9038 9.21876 7.5 6.0492 12648.8 -12730.4 -108969 -149.541 -24452.9 1346.61 -7.41053 
428 1 59.7436 9.18782 7.5 6.0492 -3398.41 -19108.8 -24451.3 2458.73 37529.2 7692.57 -7.41567 
429 1 61.1635 9.17235 7.5 6.0492 12767.9 -12387.5 -109393 -4074.85 -23709.4 7635.53 -7.4105 
432 1 64.0034 9.14142 7.5 6.0492 -3471.02 -17406.8 -29280.8 5296.3 36895.5 17514.5 -7.41538 
433 1 65.4233 9.12595 7.5 6.0492 12950.1 -11370.1 -110802 -7723.15 -21790.6 13362.5 -7.41042 
32 1 66.0395 0.510434 7.5 6.04918 5906.05 -14333.5 -71816.4 7720.66 32863.6 18320.9 -7.41278 
33 1 67.4594 0.494967 7.5 6.04918 7177.67 -13665.1 -78059.1 -8378.09 -30928.2 21129.7 -7.4124 
34 1 70.2992 0.464031 7.5 6.04918 5814.65 -11802.6 -78363.3 10514.8 30496.6 24950.9 -7.41238 
35 1 71.7191 0.448564 7.5 6.04918 7124.92 -11210.1 -84446.8 -11078.8 -28263.5 27086.8 -7.41201 
36 1 74.559 0.417628 7.5 6.04918 5694.86 -8972.08 -86551.5 12769.7 27422.5 30088.7 -7.41189 
116 1 66.0663 2.9698 7.5 6.0492 3451.96 -14900.5 -60787.2 7475.9 34691.4 19503.3 -7.41345 
117 1 67.4862 2.95433 7.5 6.0492 9290.37 -12867.4 -88417.9 -8708.9 -28335.4 19799.9 -7.41177 
118 1 68.1828 1.71692 7.5 6.04918 4674.92 -13347.7 -69577.4 9050.95 32815.2 22521.7 -7.41292 
119 1 69.6027 1.70145 7.5 6.04918 8283.11 -12115.7 -86048.1 -9999.08 -28389.3 23521.4 -7.41191 
120 1 70.326 2.9234 7.5 6.0492 3328.13 -12190.1 -68214 10176.1 32549 26523 -7.413 
121 1 71.7459 2.90793 7.5 6.0492 9303.97 -10628.4 -93824.5 -11466.9 -25457.6 25310.1 -7.41144 
122 1 72.4425 1.67051 7.5 6.04918 4550.61 -10517.7 -77502 11552.1 30201.6 28597.8 -7.41243 
123 1 73.8624 1.65505 7.5 6.04918 8233.43 -9634.45 -92696.3 -12444.2 -25283.6 28565.9 -7.41151 
124 1 74.5858 2.87699 7.5 6.0492 3176.36 -9129.06 -77496.3 12361.1 29751.4 31971.1 -7.41244 
222 1 66.0931 5.42917 7.5 6.0492 765.405 -15456 -49612.1 7165.96 35893.7 20586.3 -7.41413 
223 1 67.513 5.4137 7.5 6.0492 11061.5 -12058.4 -98271 -8985.09 -25361.4 18338 -7.41117 
224 1 68.2095 4.17628 7.5 6.0492 2075.7 -13858.1 -58856.8 8704.03 34449.4 23850.1 -7.41357 
225 1 69.6295 4.16081 7.5 6.0492 10253 -11451.8 -95698 -10311.3 -25491.8 21884.4 -7.41133 
226 1 70.3528 5.38276 7.5 6.0492 627.079 -12577 -57883.8 9759.39 33985.7 27961.4 -7.41363 
227 1 71.7727 5.3673 7.5 6.0492 11147.6 -10049.5 -102652 -11789.2 -22274.5 23375.3 -7.41091 
228 1 72.4693 4.12988 7.5 6.0492 1927.78 -10827 -67756.6 11116.8 32092.5 30263.2 -7.41303 
229 1 73.8892 4.11441 7.5 6.0492 10274.4 -9216.89 -101230 -12792.4 -22152.4 26514.8 -7.411 
230 1 74.6126 5.33636 7.5 6.0492 466.872 -9292.18 -68214.9 11859.8 31476.3 33691 -7.413 
328 1 66.1199 7.88853 7.5 6.0492 -2074.04 -15937.7 -38454.8 6818.57 36387.2 21561 -7.41482 
329 1 67.5398 7.87306 7.5 6.0492 12478.7 -11154.1 -107505 -9249.14 -22120.7 16744 -7.41062 
330 1 68.2363 6.63565 7.5 6.0492 -698.58 -14300.9 -48053.9 8316.65 35418.9 25056.2 -7.41423 
331 1 69.6562 6.62018 7.5 6.0492 11885.8 -10709.1 -104762 -10606.7 -22272.5 20102 -7.41078 
332 1 70.3796 7.84213 7.5 6.0492 -2205.2 -12900 -47536.9 9288.83 34724.4 29256.2 -7.41426 
333 1 71.7995 7.82666 7.5 6.0492 12636.4 -9390.58 -110814 -12089.2 -18830.7 21285.6 -7.41042 
334 1 72.4961 6.58924 7.5 6.0492 -847.476 -11077.6 -57889.1 10625.9 33329.8 31775.1 -7.41363 
335 1 73.916 6.57378 7.5 6.0492 11981.5 -8733.18 -109129 -13112.4 -18706.6 24296.5 -7.41052 
336 1 74.6393 7.79573 7.5 6.0492 -2346.59 -9400.36 -58872.2 11288.5 32515.6 35237.9 -7.41357 
436 1 68.2631 9.09501 7.5 6.0492 -3578.69 -14679 -37341.2 7877.74 35651.6 26130.6 -7.41488 
437 1 69.683 9.07955 7.5 6.0492 13151.5 -9876.08 -113133 -10882.9 -18845.3 18177 -7.41028 
440 1 72.5229 9.04861 7.5 6.0492 -3701.79 -11273.3 -48071.7 10066.5 33842.8 33123.1 -7.41423 
441 1 73.9428 9.03314 7.5 6.0492 13319.1 -8174.51 -116286 -13402.4 -15062.9 21917.9 -7.41009 
37 1 75.9789 0.40216 7.5 6.04918 7013.12 -8547.78 -92339.1 -13192.4 -24994.5 31609.6 -7.41153 
38 1 78.8187 0.371225 7.5 6.04918 5549.07 -6169.65 -95947.3 14374 23799.3 33720.1 -7.41132 
39 1 80.2386 0.355757 7.5 6.04918 6841.21 -5963.87 -101348 -14613.6 -21291 34726.4 -7.41099 
40 1 83.0785 0.324822 7.5 6.04918 5391.95 -3617.55 -106132 15240 19817.1 35903.9 -7.4107 
41 1 84.4984 0.309354 7.5 6.04918 6623.72 -3626.63 -111095 -15262.6 -17341.2 36462.2 -7.4104 
125 1 76.0057 2.86153 7.5 6.0492 9255.1 -8227.76 -100531 -13610.2 -21930.4 29479.8 -7.41104 
126 1 76.7022 1.62411 7.5 6.04918 4400.49 -7538.21 -86941.5 13465.8 26980.1 33111.3 -7.41186 
127 1 78.1222 1.60864 7.5 6.04918 8117.82 -7121.91 -100572 -14234.8 -21633.7 32231.5 -7.41104 
128 1 78.8455 2.83059 7.5 6.0492 3010.66 -6050.16 -88130.1 13914.4 26455.9 35815.6 -7.41179 
129 1 80.2654 2.81512 7.5 6.0492 9132.38 -5943.7 -108223 -15043.3 -17924.7 32350.9 -7.41057 
130 1 80.962 1.57771 7.5 6.04918 4238.07 -4692.62 -97431.9 14690.5 23328.3 36096.7 -7.41123 
131 1 82.3819 1.56224 7.5 6.04918 7937.96 -4807.2 -109326 -15283.4 -17616.9 34571 -7.41051 
132 1 83.1053 2.78419 7.5 6.0492 2852.32 -3182.56 -99625.8 14742.7 22861.3 38100.8 -7.41109 
133 1 84.5252 2.76872 7.5 6.0492 8942.63 -3939.17 -116590 -15693.8 -13620 33959.4 -7.41007 
231 1 76.0325 5.32089 7.5 6.0492 11170.7 -7920.69 -108122 -13949 -18497.9 27169.2 -7.41058 
232 1 76.729 4.08348 7.5 6.0492 1762.35 -7595.22 -78345.9 12963.8 29178.8 35026.3 -7.41238 
233 1 78.149 4.06801 7.5 6.0492 10221.9 -6989.34 -107818 -14595.1 -18228.5 29867.1 -7.4106 
234 1 78.8723 5.28996 7.5 6.0492 306.546 -5941.46 -80031.5 13347.4 28521.4 37719 -7.41228 
235 1 80.2922 5.27449 7.5 6.0492 11109.3 -5939.74 -114440 -15377.9 -14205.4 29768.5 -7.4102 
236 1 80.9888 4.03707 7.5 6.0492 1600.68 -4454.46 -90089.3 14137.5 25890.1 38154.5 -7.41167 
237 1 82.4087 4.0216 7.5 6.0492 10088.6 -4991.36 -115186 -15641.6 -13893.6 32003.4 -7.41015 
238 1 83.1321 5.24355 7.5 6.0492 170.261 -2760.42 -92771.9 14125.5 25327.4 40070.9 -7.41151 
239 1 84.552 5.22809 7.5 6.0492 10960 -4265.09 -121365 -16014.2 -9569.01 31216.6 -7.40978 
337 1 76.0593 7.78026 7.5 6.0492 12733.6 -7544.68 -114996 -14252.6 -14816 24685.3 -7.41016 
338 1 76.7558 6.54284 7.5 6.0492 -1001.11 -7601.2 -69578.4 12390.6 30736.2 36759.3 -7.41292 
339 1 78.1757 6.52737 7.5 6.0492 12000 -6797.27 -114375 -14912.5 -14522.1 27314.3 -7.4102 
340 1 78.8991 7.74932 7.5 6.0492 -2472.58 -5783.17 -71816.4 12696.5 29913.4 39420.2 -7.41278 
341 1 80.319 7.73386 7.5 6.0492 12738.1 -5871.04 -119885 -15663 -10255.7 26992.3 -7.40987 
342 1 81.0156 6.49644 7.5 6.0492 -1135.01 -4168.44 -82514.2 13500.1 27822.5 39998.7 -7.41213 
343 1 82.4355 6.48097 7.5 6.0492 11922.4 -5116.61 -120298 -15941.1 -9890.63 29220.6 -7.40985 
344 1 83.1588 7.70292 7.5 6.0492 -2560.21 -2292.11 -85734.4 13414 27128.9 41805.6 -7.41194 
345 1 84.5788 7.68745 7.5 6.0492 12635.8 -4524.89 -125310 -16270.6 -5317.09 28253.9 -7.40954 
444 1 76.7826 9.00221 7.5 6.0492 -3813.96 -7559.07 -60810.5 11732.8 31582.4 38299.7 -7.41345 
445 1 78.2025 8.98674 7.5 6.0492 13408.1 -6539.74 -120140 -15187.6 -10634.2 24585.2 -7.40985 
448 1 81.0424 8.9558 7.5 6.0492 -3891.66 -3840.01 -74877 12766.4 29054.3 41620.4 -7.4126 
449 1 82.4623 8.94034 7.5 6.0492 13389.1 -5176.86 -124564 -16184.4 -5732.3 26242.2 -7.40959 
42 1 87.3382 0.278419 7.5 6.04918 5245.7 -1404.12 -116698 15303.6 15688.1 36619.9 -7.41006 
43 1 88.7581 0.262951 7.5 6.04918 6383.19 -1577.73 -121186 -15082.1 -13349.1 36706 -7.40979 