ITEM: TIMESTEP
109
ITEM: NUMBER OF ATOMS
16856
ITEM: BOX BOUNDS pp pp pp
0.0000000000000000e+00 1.1289669000000001e+02
0.0000000000000000e+00 1.9554280299999999e+02
0.0000000000000000e+00 1.8399999600000001e+01
ITEM: ATOMS id type x y z c_csym c_2[1] c_2[2] c_2[3] c_2[4] c_2[5] c_2[6] c_3 
1 1 -9.10245e-07 -8.86094e-07 7.34022 6.04807 -4785 -4739.95 -25.1449 -0.448167 -0.320403 -0.108421 -7.41134 
2 1 2.15061 1.19296 7.34113 6.04632 -6929.18 -2856.07 12.1388 -820.646 1998.32 -3686.26 -7.41137 
3 1 3.57029 1.16879 7.34232 6.04352 -5934.3 -3910.26 -98.9778 5100.9 1502.71 -5455.24 -7.4114 
4 1 6.40946 1.12094 7.34627 6.04152 -8695.31 -810.15 290.316 4032.16 2765.49 -10291.8 -7.41155 
5 1 7.82913 1.09783 7.34891 6.03968 -7481.37 -1867.4 -390.506 17852.7 -238.992 -10876.3 -7.41157 
54 1 0.0421757 2.45899 7.34113 6.04509 -6516.1 -2871.98 -48.5887 -1381.13 3818.63 -88.6448 -7.41137 
55 1 1.46187 2.43464 7.34143 6.04511 -4535.94 -5069.74 -17.4637 218.927 4069.46 -2196.22 -7.41138 
56 1 2.19253 3.6521 7.3429 6.04335 -11074.7 1412.39 -2.07724 -3527.37 5474.21 -4003.86 -7.41142 
57 1 3.6122 3.62795 7.34405 6.04182 -8051.58 -1683.88 -184.608 2434.27 5716.94 -4924.91 -7.41145 
58 1 4.30097 2.38628 7.34377 6.04453 -11169.5 1390.32 237.471 -321.904 4021.14 -7454.13 -7.41147 
59 1 5.72064 2.36256 7.34572 6.04105 -8922.9 -595.557 -430.364 9824.98 2801.76 -7938.72 -7.41147 
60 1 6.45092 3.58031 7.34788 6.04283 -16828.4 7401.28 800.197 1459.46 5952.19 -11073.3 -7.41164 
61 1 7.87056 3.5572 7.35042 6.03799 -13461 4257.78 -1170.01 15201 3715.74 -9702.67 -7.41156 
62 1 8.55944 2.31562 7.35093 6.03953 -14401 4826.41 991.622 8069.44 5053.37 -13516.5 -7.41174 
160 1 0.0839017 4.91803 7.34376 6.04236 -8363.27 -1021.9 -240.738 -5290.13 7009.25 -158.371 -7.41143 
161 1 1.50359 4.8937 7.34405 6.04341 -4394.93 -5100.34 172.973 -3751.88 8342.86 -2037.77 -7.41147 
162 1 2.23382 6.1114 7.34627 6.04091 -14932 5297.68 -270.871 -8428 8235.44 -4227.34 -7.4115 
163 1 3.65348 6.08729 7.34734 6.03948 -9995.69 293.395 -6.95758 -2612.88 9892.81 -4309.12 -7.41156 
164 1 4.34245 4.84568 7.34627 6.04178 -17245.5 7534.59 316.897 -4145.41 7043.44 -7921.61 -7.41155 
165 1 5.76209 4.82197 7.34813 6.03852 -12955.2 3505.83 -693.648 5766.35 6933.65 -6992.45 -7.41153 
166 1 6.49178 6.04006 7.35094 6.0396 -24635.4 15086.5 1044.49 -3546.74 8449.62 -11634.6 -7.41174 
167 1 7.9114 6.01696 7.35333 6.03435 -19222.4 10142.4 -1676.48 9965.23 7700.84 -8370.96 -7.41162 
168 1 8.6003 4.77532 7.35312 6.03965 -24164.2 14474 1818.05 4256.26 7717.72 -14382.6 -7.41187 
266 1 0.124818 7.37711 7.34787 6.03913 -10132.4 617.25 -769.973 -11239.6 9413.89 -220.514 -7.41152 
267 1 1.54451 7.35282 7.34814 6.04171 -4513.65 -5229.21 699.486 -9715.89 12443 -1849.7 -7.41164 
268 1 2.27414 8.57085 7.35092 6.03872 -18567.4 8887.32 -948.273 -15284.2 10188.2 -4377.37 -7.41159 
269 1 3.6938 8.5468 7.3519 6.03695 -12102 2108.03 574.681 -9728.04 13812.2 -3624.88 -7.41174 
270 1 4.38313 7.30535 7.35018 6.03938 -22982.8 13239.3 55.4879 -10110.3 9304.76 -8236.64 -7.41165 
271 1 5.80276 7.28167 7.3519 6.03507 -16950.5 7369.58 -612.129 -490.096 10940.9 -5931.03 -7.41165 
272 1 6.5317 8.50017 7.35517 6.03657 -31932.6 22324.3 861.824 -10573.7 10180.5 -12006.7 -7.41186 
273 1 7.9513 8.47708 7.35736 6.03041 -24839.3 15712.6 -1752.37 2462.34 11509.7 -6919.98 -7.41174 
274 1 8.6404 7.23549 7.35653 6.03561 -33289.3 23632 2280.82 -1882.99 9660.13 -15008 -7.412 
377 1 5.84232 9.74163 7.35671 6.03196 -20815.1 11052.6 -56.1106 -8631.45 14648.2 -4786.76 -7.41185 
380 1 8.67943 9.69609 7.3609 6.03195 -41702.6 32126.4 2230.92 -9958.4 10863.3 -15426.6 -7.41213 
6 1 10.6682 1.0519 7.35517 6.0345 -10076 325.906 732.084 15470.2 4396.48 -15183.9 -7.41186 
7 1 12.0879 1.03052 7.35861 6.03576 -8801.38 -358.573 -851.805 35451.1 -2858.96 -14590.9 -7.41183 
8 1 14.927 0.987281 7.36588 6.0266 -10500.1 1522.34 1230.14 31813.7 6692.64 -18129.2 -7.41222 
9 1 16.3466 0.968052 7.36953 6.02896 -9277.94 869.945 -1389.61 55865.8 -5966.71 -16686.7 -7.41213 
63 1 9.97909 2.2933 7.35402 6.03774 -12081.9 2690.77 -1267.27 25243.8 401.95 -12272.3 -7.41167 
64 1 10.7089 3.51145 7.35652 6.03781 -21452.1 11580 2193.75 12947 7173.81 -16372.8 -7.412 
65 1 12.1285 3.49005 7.35985 6.03541 -17644 8881.21 -2701.86 32876.5 731.346 -13004.4 -7.41174 
66 1 12.8177 2.2487 7.36087 6.03223 -16541 7139.63 2028.71 22209.1 6839.51 -17596.6 -7.41213 
67 1 14.2374 2.22835 7.36443 6.03412 -13869.8 5585.15 -2380.24 44533.9 -2705.65 -14986.9 -7.4119 
68 1 14.9666 3.44696 7.36697 6.0303 -23873.3 14624.6 3918.4 29323.7 9076.03 -19611.8 -7.41245 
69 1 16.3862 3.42769 7.37049 6.03287 -19901.9 12043.2 -4522.58 53321.5 -2732.56 -14906.4 -7.41195 
70 1 17.0759 2.18669 7.37175 6.02433 -17873.2 8583.38 3177.07 40398.8 9188.76 -19776.5 -7.41254 
71 1 18.4956 2.16861 7.37527 6.02698 -15128.2 7283.59 -3580.01 65702.7 -6087.91 -16350.4 -7.41216 
169 1 10.0199 4.753 7.35605 6.03485 -19562.2 10466.7 -2427.08 21217 4244.99 -10772.9 -7.41165 
170 1 10.749 5.97155 7.3591 6.03585 -32216.4 22411.9 3370.19 7867.9 9286.65 -17295.4 -7.41216 
171 1 12.1686 5.95012 7.36224 6.03112 -26144.7 17872.1 -4260.3 27480.3 4443.35 -11249.6 -7.41171 
172 1 12.8577 4.70863 7.36267 6.03507 -28739.7 19302.3 3958.46 18386 9095.04 -18817.8 -7.41232 
173 1 14.2772 4.68824 7.36606 6.03298 -23545.9 15848.5 -4730.87 40467.1 807.858 -13197.1 -7.41179 
174 1 15.0057 5.9073 7.36907 6.03161 -36645.5 27325.6 6305.34 24105 10804 -20853 -7.41268 
175 1 16.4253 5.88795 7.37239 6.02964 -30163.1 22979.6 -7345.55 47797.7 702.66 -12985.5 -7.41181 
176 1 17.1148 4.64676 7.37319 6.02731 -31591.3 22047.9 6401.77 36490.7 11087.2 -21242.4 -7.41281 
177 1 18.5344 4.6286 7.37655 6.03177 -26086.7 18927.1 -7252.08 61611.5 -2871.84 -14475.4 -7.41195 
275 1 10.06 7.21315 7.35926 6.03015 -26702.4 17881 -3216.66 14679.4 8058.04 -9122.8 -7.4117 
276 1 10.7882 8.43219 7.3627 6.03129 -42254.1 32581.9 4084.38 592.349 10676.2 -17976.1 -7.41232 
277 1 12.2077 8.4107 7.36559 6.02616 -34299.7 26389.5 -5346.87 19624.8 8085.86 -9364.69 -7.41174 
278 1 12.8969 7.16917 7.36549 6.03194 -40367.4 30929.3 5496.17 12048.3 10655.3 -19786.3 -7.41251 
279 1 14.3165 7.1487 7.36867 6.0275 -32966.3 25731.5 -6680.12 33672.5 4389.1 -11265.8 -7.41174 
280 1 15.044 8.36828 7.37201 6.02806 -48673.8 39319.6 8194.68 16545.5 11828.6 -21861.6 -7.4129 
281 1 16.4635 8.34881 7.37511 6.0241 -40032.7 33474.6 -9656.96 39649.2 4161.14 -10949.2 -7.41174 
282 1 17.153 7.10752 7.37548 6.0279 -44688.3 35004.6 9215.02 29899.5 12296.1 -22494.4 -7.41308 
283 1 18.5725 7.08924 7.37864 6.02662 -36743.7 30250.9 -10500.1 54650.7 486.339 -12486.1 -7.41179 
381 1 10.099 9.67374 7.36338 6.02591 -33523.4 24810.1 -3486.33 6017.9 11670.3 -7365.46 -7.41181 
384 1 12.9351 9.63028 7.36913 6.027 -51112.9 41752 6474.51 3636 11512.8 -20521.4 -7.41269 
385 1 14.3547 9.60972 7.37205 6.02239 -41932 35063.4 -8055.07 24634 7873.56 -9227.06 -7.41176 
388 1 17.1903 9.56893 7.37846 6.02429 -56890.1 47238.1 11427.6 21104.2 12809 -23532.6 -7.41332 
389 1 18.6098 9.55049 7.38138 6.02105 -46925.4 41143.6 -13129.7 45287.4 3827.06 -10401.6 -7.41171 
10 1 19.1858 0.927961 7.37678 6.01859 -10821.2 2112.11 1717.05 51325 9377.16 -19439 -7.41259 
11 1 20.6054 0.911092 7.38024 6.02077 -9524.29 1909.44 -1899.93 77332.7 -9194.61 -17517 -7.41242 
12 1 23.4447 0.874336 7.38685 6.01084 -10817 2601.92 2148.65 72538.1 12152.8 -19482.5 -7.41292 
13 1 24.8644 0.859876 7.38988 6.0125 -9587.84 2610.2 -2315.41 98738.6 -12244.7 -17345.8 -7.41268 
14 1 27.7038 0.826452 7.39554 6.00367 -10806 2926.38 2483.29 94247.2 14757.8 -18500.9 -7.41319 
72 1 19.2243 3.3877 7.37764 6.0224 -25232.3 15943.7 5733.39 48859.1 11447.8 -21063.9 -7.4129 
73 1 20.6439 3.37078 7.38095 6.02531 -20999.9 13924 -6364.31 74864.7 -6256.68 -15709 -7.41214 
74 1 21.3342 2.13022 7.38224 6.01641 -18150.4 9339.35 4300.72 60955.7 11821.5 -20439.7 -7.41294 
75 1 22.7538 2.11453 7.38543 6.01876 -15378.6 8337.48 -4698.57 87309.4 -9394.92 -16670.2 -7.41239 
76 1 23.482 3.3341 7.38751 6.01457 -25380.8 16272.3 7440.65 70118 13994.3 -21099.1 -7.41331 
77 1 24.9016 3.31958 7.39039 6.01709 -21096.1 14652.9 -8018.83 96331 -9543.75 -15628.6 -7.41232 
78 1 25.5926 2.07948 7.39159 6.00882 -18022.9 9490.82 5289.24 82608.8 14442.4 -19904.2 -7.41328 
79 1 27.0123 2.06618 7.39429 6.01061 -15303.4 8753.52 -5629.48 108342 -12381.5 -16121.8 -7.41259 
80 1 27.74 3.28621 7.39604 6.00722 -24836 15783.4 8885.36 91849.2 16430.8 -19991.1 -7.41365 
178 1 19.2623 5.84816 7.37933 6.02439 -39088.1 29430.2 9443.55 43487.4 12859.8 -22503.2 -7.41321 
179 1 20.6818 5.83112 7.38246 6.02868 -32147.2 25745.2 -10510.5 69284.1 -3064.55 -13794.9 -7.41191 
180 1 21.3719 4.59034 7.38339 6.01937 -32490.2 23044.6 8845.9 56997.7 13448.7 -21999.7 -7.41329 
181 1 22.7915 4.57456 7.38641 6.02394 -26789.9 20410.4 -9671.55 83252.5 -6424.98 -14848.6 -7.41209 
182 1 23.5189 5.7946 7.38888 6.01654 -39447 29661.3 12433 64639.3 15173 -22584.6 -7.4137 
183 1 24.9384 5.77992 7.39158 6.02175 -32278.5 26580.1 -13409.8 90753.4 -6560.39 -13831.6 -7.412 
184 1 25.6292 4.5396 7.39251 6.0117 -32178.4 22717.3 11044 78598.9 15873.9 -21416.1 -7.41371 
185 1 27.0487 4.52619 7.39504 6.01575 -26430.7 20503.3 -11760.5 104319 -9617.63 -14448 -7.41221 
186 1 27.7757 5.74667 7.39717 6.00911 -38379.6 28412.5 15004.1 86275 17444.5 -21393.3 -7.41412 
284 1 19.2995 8.30932 7.38173 6.02437 -52247.8 42324.5 12634.8 35604.5 13565.6 -23752.6 -7.41351 
285 1 20.719 8.29211 7.38465 6.0239 -42978.5 37172.7 -14122.2 60949.8 213.816 -11786.3 -7.41174 
286 1 21.409 7.05118 7.38526 6.02178 -46318.6 36321 12975.2 50228.6 14379.9 -23399.7 -7.41364 
287 1 22.8285 7.03524 7.38809 6.02563 -37952.1 32239.5 -14214.8 76212.2 -3268.01 -12938.5 -7.41184 
288 1 23.555 8.25579 7.39087 6.01943 -52852.9 42571.2 16904.6 56480.9 15634.4 -23930.2 -7.41408 
289 1 24.9745 8.24091 7.39337 6.02292 -43156.4 38185.1 -18265.7 82285.9 -3455.02 -11957.6 -7.41174 
290 1 25.6651 7.00044 7.39405 6.01407 -45822.2 35609 16394.2 71671.4 16605 -22816.8 -7.41413 
291 1 27.0846 6.98682 7.3964 6.01957 -37310.7 32051.9 -17474.1 97198.5 -6644.45 -12704.5 -7.41188 
292 1 27.8107 8.2078 7.39884 6.01197 -51296.8 40627.4 20618.5 77834.9 17735.4 -22699.4 -7.41457 
392 1 21.4452 9.51272 7.38771 6.02112 -59300.1 49024.4 16482.1 41010.8 14602.2 -24628.4 -7.41396 
393 1 22.8647 9.49656 7.39032 6.0216 -48687.8 43755.1 -18119.3 66599.7 -78.52 -10946.8 -7.41166 
396 1 25.7002 9.46196 7.3961 6.01743 -58727.7 48070.9 21123.7 62104.3 16611.8 -24092 -7.41453 
397 1 27.1197 9.44808 7.39825 6.02064 -47804.4 43416.8 -22554.4 87365.9 -3611.42 -10891.6 -7.41161 
15 1 29.1235 0.814327 7.39804 6.00461 -9689.24 3060.51 -2608.75 119052 -14909.9 -16322.3 -7.4129 
16 1 31.9631 0.784062 7.40262 5.99742 -10706.1 3100.03 2693.62 115124 17011.4 -16683 -7.4134 
17 1 33.3827 0.774084 7.40457 5.99749 -9625.42 3433.33 -2777 137297 -17081.7 -14588 -7.41306 
18 1 36.2225 0.74666 7.40809 5.99154 -10735.5 3310.68 2779.28 134026 18826.7 -14245.8 -7.41353 
81 1 29.1595 3.27401 7.39838 6.00908 -20595 14474.1 -9359.58 116701 -12404.7 -14778.2 -7.41246 
82 1 29.8513 2.03439 7.39943 6.00195 -17670.7 9211.3 6062.45 104076 16813.5 -18391.2 -7.41355 
83 1 31.2709 2.02333 7.40157 6.00296 -15037.3 8655.32 -6323.2 127775 -14897.7 -14821.6 -7.41275 
84 1 31.9982 3.24379 7.40301 6.00045 -23667.3 14698.3 9980.16 112731 18557.1 -17973.6 -7.41392 
85 1 33.4177 3.23372 7.4048 6.0017 -19478.5 13662.1 -10337.4 135008 -14743.4 -13268.4 -7.41258 
86 1 34.1101 1.99455 7.40565 5.99559 -16825.3 8671.5 6589.7 124117 18795.4 -16120.7 -7.41374 
87 1 35.5297 1.98552 7.40727 5.99617 -14307.5 8236.74 -6775.8 144699 -16887.6 -12915.9 -7.41287 
88 1 36.2567 3.20633 7.40841 5.99413 -22137.5 13228.5 10714.7 131612 20275.3 -15302.4 -7.4141 
187 1 29.1952 5.73429 7.39934 6.01435 -31157.9 25807.6 -15814.6 111097 -9606.64 -13173.1 -7.41207 
188 1 29.8867 4.49447 7.40017 6.00463 -30941.3 21392 12827.3 100019 18104.1 -19752.8 -7.41404 
189 1 31.3062 4.48328 7.40215 6.00792 -25236 19538.3 -13394 123772 -12312.9 -13359 -7.41231 
190 1 32.0328 5.70415 7.40396 6.00242 -36104.2 26110.4 17004.6 107060 19456.2 -19207.7 -7.41444 
191 1 33.4523 5.6939 7.40559 6.0071 -28933.9 23851.9 -17624.4 129375 -12113 -11902.8 -7.41213 
192 1 34.1445 4.45455 7.40628 5.99845 -28802.2 19381.7 14129.1 120032 19983.3 -17274.3 -7.41429 
193 1 35.5641 4.44538 7.40773 6.00082 -23191.5 17763.5 -14545.5 140703 -14459.5 -11700.1 -7.41238 
194 1 36.2904 5.66656 7.40925 5.99674 -32950 23002.7 18410.6 125867 21096.5 -16325.3 -7.41467 
293 1 29.2302 8.19518 7.40083 6.01777 -41416.2 36888.1 -21754 102484 -6669.76 -11504.9 -7.41174 
294 1 29.9215 6.95521 7.40148 6.00694 -43749 33308.6 19210.2 92914.4 18698.8 -21041.2 -7.41453 
295 1 31.341 6.94381 7.40328 6.01243 -35199.3 30258.2 -20071.6 116568 -9511.71 -11841.6 -7.41192 
296 1 32.0668 8.16513 7.40541 6.00525 -47936.6 37147.2 23553.6 98384.8 19638 -20380.6 -7.41495 
297 1 33.4863 8.15462 7.40686 6.01097 -38029.9 33863.3 -24427.7 120602 -9338.79 -10487 -7.41174 
298 1 34.1784 6.91515 7.40742 6.00072 -40220.9 29880.6 21314.8 112742 20489.4 -18383.5 -7.41484 
299 1 35.5979 6.90574 7.40871 6.00599 -31729.6 27168.4 -21952.2 133438 -11816.7 -10442.7 -7.41194 
300 1 36.3234 8.12734 7.41055 5.99953 -43205.5 32501.7 25666.3 117004 21215 -17313.5 -7.41523 
400 1 29.9556 9.4166 7.40324 6.01029 -55884.1 44842.2 24995 83021.1 18563.4 -22245.1 -7.415 
401 1 31.375 9.40491 7.40486 6.01633 -44791.5 40811.4 -26143.3 106540 -6637.66 -10266 -7.41158 
404 1 34.2115 9.37633 7.40897 6.00404 -51006.7 40005.6 27938.7 102589 20271.5 -19441.2 -7.41536 
405 1 35.6309 9.3666 7.41009 6.00996 -39871.2 36480 -28792.5 123236 -9096.85 -9139.1 -7.41156 
19 1 37.6421 0.738551 7.40953 5.99144 -9797.62 3577.2 -2832.82 152761 -18743.7 -12323.8 -7.41319 
20 1 40.4821 0.713545 7.41211 5.98684 -10464.5 3607.47 2759.83 150166 20199.4 -11422.3 -7.41362 
21 1 41.9017 0.706968 7.41311 5.98661 -9614.04 3817.05 -2796.16 164980 -19941 -9722.8 -7.41327 
22 1 44.7418 0.683885 7.41489 5.98346 -10196.2 3738.08 2663.73 163067 21172.2 -8410.59 -7.41367 
23 1 46.1614 0.678475 7.41554 5.98309 -9305.84 4042.76 -2692.07 173788 -20744.3 -6942.29 -7.41333 
89 1 37.6762 3.19814 7.4097 5.99527 -18087.2 12279.7 -10968.1 150484 -16545.6 -11252.9 -7.41266 
90 1 38.3692 1.95938 7.41035 5.99012 -15849.9 7867.67 6886.98 141708 20341.6 -13339.6 -7.41387 
91 1 39.7888 1.95205 7.4115 5.99051 -13302.3 7688.59 -7015.34 158580 -18371.1 -10585.4 -7.41296 
92 1 40.5154 3.17315 7.4124 5.98886 -19893.7 11621.4 11137 147695 21575.8 -12236.7 -7.41421 
93 1 41.935 3.16649 7.41326 5.98998 -15973.9 10708 -11309.2 162678 -17856 -8903.78 -7.41272 
94 1 42.6285 1.92807 7.41373 5.98582 -14682 7124.31 7001.8 156241 21474 -10279.2 -7.41395 
95 1 44.0481 1.9221 7.41447 5.9861 -12259.4 6866.54 -7089.18 169101 -19410.3 -8001.3 -7.41302 
96 1 44.7746 3.14342 7.41519 5.98485 -17406 9713.58 11320.3 160548 22497.8 -8988.4 -7.41428 
97 1 46.1941 3.13792 7.4157 5.98594 -13461.2 8962.9 -11432.9 171403 -18744.3 -6366.99 -7.41276 
98 1 46.888 1.89979 7.41599 5.98268 -13079.4 6352.22 6985.71 167378 22247.2 -7110.78 -7.41399 
195 1 37.7099 5.65817 7.41038 6.00031 -25902.1 20959.1 -18853.5 144798 -14062.9 -10149.1 -7.41218 
196 1 38.4027 4.41927 7.41091 5.99275 -26000.8 16821.3 14975.8 137568 21455.8 -14262.2 -7.41446 
197 1 39.8223 4.4118 7.4119 5.99473 -20396 15547.4 -15265.1 154537 -16075.1 -9627.97 -7.41244 
198 1 40.5484 5.63322 7.41318 5.99174 -28781.3 19517 19294.7 141874 22345.8 -13033.5 -7.41482 
199 1 41.9679 5.62636 7.41389 5.99457 -21862.3 17621.2 -19592.7 156919 -15496.4 -8063.36 -7.41221 
200 1 42.6613 4.38785 7.41426 5.98788 -22749.8 14137.6 15452.6 152022 22537.1 -10967.8 -7.41456 
201 1 44.0809 4.38173 7.41486 5.98984 -17288.1 12839.1 -15643.1 165020 -17219 -7297.65 -7.41248 
202 1 44.8069 5.60331 7.41595 5.98728 -24073.6 15661.7 19773.8 154609 23235.8 -9559.33 -7.41491 
203 1 46.2265 5.59762 7.41632 5.98999 -17195.8 13905.5 -19960.5 165549 -16479.8 -5779.63 -7.41223 
204 1 46.9204 4.35944 7.41653 5.98422 -18882.9 11269.3 15658.3 163081 23277.3 -7571.62 -7.41462 
301 1 37.7429 8.11866 7.41152 6.00496 -33373.9 29568.2 -26292.2 135936 -11438.1 -9007.6 -7.41174 
302 1 38.4357 6.87967 7.41195 5.99556 -35652.2 25607 22739.7 130145 21907.9 -15160.9 -7.41505 
303 1 39.8553 6.87196 7.41278 6.0001 -27183.8 23301.9 -23181.2 147202 -13570.9 -8641.37 -7.41196 
304 1 40.5807 8.09374 7.41438 5.99494 -37140.9 27172.8 27045.6 132877 22432 -13814.4 -7.41542 
305 1 42.0002 8.08659 7.41494 5.99996 -27409.1 24436.2 -27463.7 147962 -12999.8 -7197.32 -7.41175 
306 1 42.6937 6.84803 7.41524 5.99116 -30253.3 20941.3 23603.1 144500 22958.3 -11646.6 -7.41518 
307 1 44.1132 6.84167 7.41569 5.9947 -21903.4 18762.4 -23888.9 157563 -14827.6 -6575.93 -7.41198 
308 1 44.8386 8.06355 7.41711 5.99092 -30243.4 21327.3 27848.6 145493 23308.4 -10125.7 -7.41553 
309 1 46.2582 8.05757 7.41733 5.99503 -20600.6 18770.3 -28104.5 156507 -14084.2 -5177.53 -7.41176 
310 1 46.9522 6.81938 7.4175 5.98704 -24238 16008.2 24049.2 155475 23682.7 -8031 -7.41525 
408 1 38.468 9.34057 7.41337 5.99884 -44645.6 34081.7 29982 119813 21650.1 -16032.6 -7.41561 
409 1 39.8875 9.33253 7.41404 6.00444 -33527.6 30966.6 -30573.4 136874 -10990.6 -7620.87 -7.41155 
412 1 42.7253 9.30862 7.41658 5.99483 -37238.3 27506.4 31269.8 134010 22686.8 -12314.4 -7.41578 
413 1 44.1448 9.30191 7.41689 5.99997 -26208.2 24629.4 -31648.3 147114 -12363.6 -5832.14 -7.41154 
416 1 46.9833 9.27963 7.4188 5.99099 -29084.4 20527.4 31985.3 144840 23411 -8489.03 -7.41588 
24 1 49.0017 0.65679 7.41667 5.9813 -9837.27 3876.06 2518.45 172485 21805.4 -5343.21 -7.41369 
25 1 50.4213 0.652171 7.41702 5.98083 -9018.89 3981.2 -2542.45 179054 -21221.9 -4082.34 -7.41336 
26 1 53.2616 0.631344 7.4176 5.98 -9233.74 3822.6 2343.68 178369 22152.7 -2285.43 -7.4137 
27 1 54.6812 0.627137 7.4177 5.97985 -8471.79 3694.28 -2363.13 180799 -21422.5 -1188.42 -7.41339 
99 1 48.3076 1.89479 7.41642 5.98293 -10750.9 5951.56 -7044.24 176097 -20077.5 -5290.37 -7.41306 
100 1 49.034 3.11625 7.417 5.98205 -14740.2 7751.22 11338.8 169901 23099.1 -5694.23 -7.41432 
101 1 50.4536 3.11155 7.41721 5.98314 -10896.8 6854.99 -11406 176592 -19279.3 -3739.19 -7.41279 
102 1 51.1477 1.87361 7.41735 5.98076 -11473.1 5286.38 6882.45 174992 22718.8 -3931.78 -7.41401 
103 1 52.5673 1.86921 7.41751 5.98104 -9149.77 4794.47 -6918.55 179566 -20432.9 -2523.28 -7.41308 
104 1 53.2937 3.09073 7.41797 5.98046 -11754.6 5603.78 11246 175675 23431.6 -2417.84 -7.41433 
105 1 54.7133 3.08644 7.41794 5.98132 -7975.45 4522.4 -11275 178239 -19511.2 -1068.46 -7.41281 
106 1 55.4076 1.84861 7.41793 5.97976 -9762.14 4029.31 6722.72 179039 22933.9 -778.809 -7.41401 
205 1 48.3399 4.3543 7.41682 5.98613 -13554.2 9882.48 -15774.1 171931 -17962.4 -4828.57 -7.41251 
206 1 49.0659 5.57596 7.41776 5.98398 -19068.9 11574.1 19966.2 163868 23819.1 -6044.44 -7.41496 
207 1 50.4855 5.57106 7.41784 5.98644 -12275.7 9800.17 -20067 170647 -17080.5 -3391.61 -7.41225 
208 1 51.1798 4.33312 7.41792 5.98178 -14930.1 8125.79 15677.7 170588 23730.8 -4172.79 -7.41464 
209 1 52.5994 4.32859 7.41794 5.98343 -9628.81 6695.79 -15734.2 175283 -18365.5 -2291.85 -7.41252 
210 1 53.3254 5.55024 7.41877 5.98186 -13794.9 7345.24 19960.8 169562 24144.6 -2552.8 -7.41497 
211 1 54.745 5.54576 7.4186 5.98386 -7079.46 5375.88 -19989.9 172182 -17348.8 -950.902 -7.41227 
212 1 55.4396 4.30799 7.41854 5.98052 -10836.1 4785.54 15568.5 174564 23941.5 -805.219 -7.41465 
311 1 48.3718 6.814 7.41764 5.99032 -16016.2 13789.2 -24214.4 164377 -15654.8 -4358.19 -7.412 
312 1 49.0973 8.0359 7.41891 5.98711 -22938.7 15166.6 28234.3 154636 23888.3 -6396.45 -7.41559 
313 1 50.5168 8.03071 7.41885 5.99066 -13365.6 12649.5 -28364 161486 -14755.8 -3038.9 -7.41177 
314 1 51.2113 6.79283 7.41889 5.98403 -17895.3 10794.5 24202.7 162901 24129.8 -4416.53 -7.41529 
315 1 52.6309 6.78805 7.41878 5.98682 -9750.2 8557.77 -24272.5 167641 -16111.4 -2059.93 -7.41201 
316 1 53.3566 8.00989 7.41993 5.98449 -15376.2 8831.45 28327.4 160253 24215.6 -2692.47 -7.41562 
317 1 54.7762 8.00512 7.41962 5.98754 -5891.68 6167.15 -28352.4 162901 -15064.1 -836.83 -7.41178 
318 1 55.471 6.76745 7.41955 5.98231 -11484.2 5367.91 24148.6 166761 24341.3 -836.32 -7.4153 
417 1 48.4029 9.2739 7.4188 5.99532 -18177.1 17703.5 -32198.1 153815 -13278.5 -3876.44 -7.41155 
420 1 51.2421 9.25272 7.42019 5.98752 -20428.5 13252.5 32291.3 152179 23863.5 -4663.45 -7.41592 
421 1 52.6618 9.24761 7.41994 5.9913 -9589.47 10407.1 -32372.6 156989 -13791.7 -1826.6 -7.41155 
424 1 55.5017 9.22699 7.42085 5.98531 -11736.8 5711.58 32301.1 155943 24081 -872.664 -7.41594 
28 1 57.5216 0.606624 7.41779 5.97945 -8714.99 3409.27 2151.72 180701 22248.7 745.647 -7.41369 
29 1 58.9412 0.602449 7.41766 5.97977 -7940.11 3105.87 -2163.69 179006 -21369.2 1729.9 -7.41339 
30 1 61.7816 0.581709 7.41726 5.97995 -7973.31 2768.22 1950.27 179478 22102.8 3753.09 -7.41367 
31 1 63.2012 0.577186 7.41688 5.98078 -7298.92 2096.2 -1950.74 173683 -21057.6 4673.3 -7.4134 
107 1 56.8272 1.84444 7.41785 5.9801 -7511.45 3277.15 -6737.37 179487 -20514.4 272.956 -7.4131 
108 1 57.5537 3.06593 7.41822 5.97971 -8864.16 3131.87 11074.3 177884 23529.2 827.871 -7.41432 
109 1 58.9733 3.06167 7.41795 5.98054 -5081.6 1831.12 -11064.7 176320 -19464 1629.43 -7.41281 
110 1 59.6677 1.82388 7.41779 5.97937 -7808.56 2468.18 6521.28 179543 22914.7 2347.55 -7.41399 
111 1 61.0873 1.81955 7.41747 5.98021 -5550.8 1494.65 -6510.52 175853 -20331.2 3093.96 -7.4131 
112 1 61.8139 3.04092 7.41774 5.97969 -5715.59 384.583 10834.9 176576 23402.3 4051.72 -7.4143 
113 1 63.2335 3.03632 7.41723 5.98102 -2004.53 -1252.14 -10781.2 170885 -19133.9 4348.12 -7.41282 
114 1 63.9279 1.79849 7.41691 5.98025 -6019.71 540.757 6281.16 176530 22658.2 5453.38 -7.41397 
115 1 65.3475 1.79363 7.41632 5.98157 -3751.3 -582.793 -6238.97 168710 -19865.5 5932.59 -7.4131 
213 1 56.8592 4.30369 7.41833 5.98177 -5585.91 3124.55 -15572 175091 -18467.5 280.379 -7.41254 
214 1 57.5854 5.52525 7.41906 5.98097 -8479.51 2792.07 19810.2 171667 24245.1 905.656 -7.41497 
215 1 59.005 5.5208 7.41866 5.98255 -1775.14 591.716 -19770.3 170149 -17309.4 1520.2 -7.41228 
216 1 59.6997 4.28312 7.41845 5.98002 -6543.83 1126.93 15358.2 174954 23931.4 2534.92 -7.41463 
217 1 61.1193 4.27866 7.418 5.98135 -1281.89 -768.806 -15305.3 171351 -18277.8 2876.76 -7.41254 
218 1 61.8458 5.50005 7.41863 5.98071 -3074.71 -2011.61 19528.8 170278 24132.2 4343.88 -7.41494 
219 1 63.2655 5.49526 7.41798 5.98252 3616.41 -4563.41 -19412.4 164628 -16958.8 4006.95 -7.41229 
220 1 63.9602 4.25759 7.41762 5.98038 -2333.26 -2855.72 15045 171856 23698.9 5858.44 -7.4146 
221 1 65.3798 4.25259 7.41691 5.98219 2964.07 -4991.43 -14925.7 164118 -17779 5482.21 -7.41254 
319 1 56.8906 6.76291 7.4192 5.98462 -3343.8 2941.86 -24134.1 167334 -16236.8 281.016 -7.41202 
320 1 57.6165 7.98459 7.42023 5.98314 -7749.28 2255.11 28199.5 162279 24321.2 977.576 -7.41561 
321 1 59.0362 7.97986 7.4197 5.98572 1733.3 -699.492 -28125.3 160774 -15033.8 1398.87 -7.41179 
322 1 59.7312 6.74233 7.41949 5.98181 -4886.64 -382.757 23927.5 167071 24338.6 2716.25 -7.41528 
323 1 61.1509 6.73763 7.41891 5.98369 3258.17 -3061.96 -23826.2 163480 -16040.9 2644.71 -7.41203 
324 1 61.8772 7.95909 7.41984 5.98293 -57.5 -4686 27870.6 160810 24217.4 4628.8 -7.41558 
325 1 63.2969 7.95401 7.41906 5.98516 9455.28 -7949.34 -27687.8 155149 -14661.5 3644.48 -7.4118 
326 1 63.992 6.71654 7.4187 5.98176 1707.41 -6395.26 23533.4 163903 24122 6255.27 -7.41524 
327 1 65.4118 6.71131 7.41786 5.98402 9897.89 -9414.02 -23331 156147 -15505.8 5007.95 -7.41204 
425 1 56.9214 9.2221 7.42036 5.98857 -900.858 2756.76 -32267.1 156561 -13942.3 273.566 -7.41156 
428 1 59.7621 9.20151 7.42082 5.98437 -2832.77 -2078.39 32066.7 156182 24084.9 2891.53 -7.41592 
429 1 61.1818 9.19647 7.4201 5.98713 8031.01 -5402.91 -31915.3 152635 -13739.9 2395.1 -7.41157 
432 1 64.0232 9.17536 7.42005 5.98431 5909.48 -10162.6 31579.7 152981 23876.7 6643.9 -7.41587 
433 1 65.443 9.16979 7.41908 5.98699 16838.9 -13789.1 -31292.6 145248 -13166.5 4505 -7.41158 
32 1 66.0416 0.555676 7.41594 5.98172 -7141.97 1794.65 1741.62 174744 21697.1 6733.65 -7.41364 
33 1 67.4613 0.550428 7.41528 5.98267 -6452.21 1024.15 -1726.28 164814 -20456.7 7627.04 -7.41338 
34 1 70.3017 0.527606 7.4137 5.98479 -6427.97 594.519 1526.71 166510 20987.9 9650.59 -7.41358 
35 1 71.7213 0.521254 7.41269 5.98562 -5709.47 -173.254 -1493.89 152459 -19514.9 10533.9 -7.41334 
36 1 74.5617 0.496593 7.41033 5.98916 -5598.1 -466.444 1305.86 154843 19910.3 12412.9 -7.41348 
116 1 66.0743 3.0148 7.41647 5.98093 -2589.69 -2623.19 10518.2 171779 23034.6 7254.86 -7.41425 
117 1 67.494 3.00947 7.41568 5.98276 1161.37 -4470.05 -10409.5 161927 -18489.4 7066.32 -7.41281 
118 1 68.1881 1.77152 7.41517 5.98241 -4026.88 -1467.4 5994.21 170014 22133.5 8523.71 -7.41391 
119 1 69.6078 1.76575 7.41427 5.98387 -1848.55 -2927.59 -5913.14 158053 -19074.4 8753.34 -7.41308 
120 1 70.3349 2.98664 7.41427 5.98351 299.304 -5812.91 10097.1 163510 22385.6 10402.9 -7.41418 
121 1 71.7546 2.98021 7.41313 5.98549 4114.19 -7715.37 -9921.75 149564 -17478.5 9722.62 -7.41279 
122 1 72.4485 1.74206 7.41241 5.98588 -2048.16 -3565.22 5642.14 160039 21287.3 11497.1 -7.41383 
123 1 73.8682 1.735 7.41112 5.9873 132.895 -5112.39 -5515.95 144013 -17899.9 11469.1 -7.41304 
124 1 74.5957 2.95554 7.41092 5.98743 3053.97 -8782.98 9529.71 151836 21393.7 13401.3 -7.41406 
222 1 66.1066 5.47372 7.41741 5.98145 2354.66 -7095.79 19096.3 165403 23791.4 7766.33 -7.41489 
223 1 67.5264 5.46821 7.41648 5.98374 9086.95 -9895.34 -18886.5 155597 -16264.9 6480.38 -7.41229 
224 1 68.2209 4.23047 7.41593 5.98204 1873.09 -6915.88 14601.2 165280 23216.2 9153.29 -7.41453 
225 1 69.6406 4.22457 7.41491 5.98433 7111.6 -9411.64 -14399.7 153415 -16927.5 8055.05 -7.41254 
226 1 70.3678 5.44536 7.41525 5.98355 7379.22 -12287 18456.1 157133 23187 11139.1 -7.4148 
227 1 71.7876 5.43876 7.41398 5.98629 14223.9 -15256.9 -18131.7 143215 -15175.8 8874.36 -7.41228 
228 1 72.482 4.20087 7.41321 5.98504 5884.81 -10940.3 13973 155311 22434 12356.9 -7.41443 
229 1 73.9017 4.19368 7.4118 5.98761 11149.9 -13666.9 -13671.6 139367 -15665.1 10506.5 -7.41252 
230 1 74.6294 5.41408 7.41194 5.98705 12018.5 -17185.3 17526.6 145513 22263 14363.7 -7.41465 
328 1 66.1384 7.93245 7.41866 5.9832 7543.34 -11793 27307.4 155879 23892.9 8267.51 -7.41552 
329 1 67.5582 7.92666 7.4176 5.98592 17101 -15450.8 -26993.5 146084 -13914.7 5862.06 -7.41181 
330 1 68.2533 6.68918 7.41706 5.98295 8057.01 -12525.7 22918.2 157317 23668 9770.07 -7.41516 
331 1 69.6731 6.68304 7.41591 5.98569 16230.3 -15972.1 -22591 145426 -14588 7321.63 -7.41204 
332 1 70.4002 7.9038 7.41654 5.98484 14726.6 -19044.2 26426.6 147614 23317.6 11858.3 -7.41541 
333 1 71.82 7.89691 7.41515 5.988 24406.5 -22931.8 -25950.6 133701 -12742 7980.53 -7.41182 
334 1 72.515 6.65933 7.41438 5.9855 14059.9 -18521.7 21994.1 147363 22932.4 13195.8 -7.41503 
335 1 73.9348 6.65191 7.41285 5.98868 22261.3 -22289.3 -21513.6 131453 -13229.5 9494.91 -7.41204 
336 1 74.6625 7.87223 7.41327 5.98793 21129.4 -25829.3 25107 136121 22444 15297.5 -7.41524 
436 1 68.285 9.14763 7.41844 5.98504 14438.5 -18347.3 30771 146355 23438.4 10373.5 -7.41578 
437 1 69.7048 9.14116 7.41717 5.98818 25371.1 -22533.3 -30317 134519 -12179 6546.97 -7.4116 
440 1 72.5473 9.11744 7.4158 5.98718 22324.1 -26374.2 29520.4 136491 22733.5 14011.4 -7.41562 
441 1 73.9673 9.1097 7.41416 5.99074 33277.6 -30970.7 -28860.7 120651 -10720.3 8427.72 -7.41162 
37 1 75.9813 0.48877 7.4089 5.98993 -5007.98 -1474.95 -1257.28 136816 -18171.1 13274.6 -7.41328 
38 1 78.8216 0.461771 7.4056 5.99482 -4751.03 -1561.71 1078.36 139905 18393.5 14866.4 -7.41335 
39 1 80.2412 0.452133 7.40367 5.99539 -4181.01 -2472.32 -1021.08 118327 -16377.4 15666.3 -7.41317 
40 1 83.0814 0.422354 7.39931 6.00164 -4170.17 -2482.67 846.267 122102 16386 16811.9 -7.41317 
41 1 84.5011 0.410608 7.39683 6.0013 -3700.99 -3389.91 -792.138 97755.9 -14126.5 17489.3 -7.413 
125 1 76.0154 2.94765 7.40935 5.98941 6786.03 -10967.1 -9277.39 133949 -16040 12199.8 -7.41275 
126 1 76.7089 1.70922 7.40839 5.99069 -451.776 -5668.65 5201.14 146699 20050.8 14246.8 -7.4137 
127 1 78.1286 1.70051 7.40664 5.99204 1755.46 -7193.45 -5028.79 126906 -16283.5 13930.1 -7.41297 
128 1 78.8565 2.92064 7.40619 5.99269 5513.97 -11493.8 8767.39 136975 19991.9 16085.7 -7.41389 
129 1 80.2762 2.91094 7.40413 5.99417 9226.97 -13773.7 -8434.8 115513 -14126.6 14325.4 -7.41268 
130 1 80.9692 1.67216 7.40288 5.99678 917.331 -7351.14 4649.83 130312 18359.9 16585.2 -7.41352 
131 1 82.389 1.66148 7.40062 5.99734 3036.51 -8944.43 -4436.82 107293 -14193.8 15937.9 -7.41286 
132 1 83.1174 2.88116 7.39989 5.99923 7231.78 -13695.9 7772.24 119310 18133.4 18236.5 -7.41365 
133 1 84.5371 2.86935 7.39729 5.99973 10845.6 -16080.9 -7367.97 95084.5 -11731.8 15901.2 -7.41257 
231 1 76.0492 5.40601 7.41025 5.99017 18816.6 -20477.7 -17065.3 127668 -13631.1 11073 -7.41226 
232 1 76.7432 4.1679 7.40921 5.98944 9232.49 -14811 13091 142044 21288.7 15336.2 -7.41427 
233 1 78.163 4.15907 7.40734 5.9918 14534.4 -17596.2 -12677.2 122347 -13934.8 12692.4 -7.41248 
234 1 78.8911 5.37902 7.40724 5.99195 16036.1 -21533 16212.8 130770 20959.3 17264.4 -7.41444 
235 1 80.311 5.36915 7.40507 5.99416 22809.4 -25066.6 -15600.8 109386 -11586.2 12914.5 -7.41223 
236 1 81.0046 4.13073 7.40373 5.9952 11941.5 -18038.2 11887.7 125761 19721.6 17887.7 -7.41405 
237 1 82.4244 4.11994 7.40135 5.99657 17201.8 -20970 -11359.6 102897 -11706.9 14430 -7.41241 
238 1 83.1531 5.3394 7.40098 5.9982 18830.7 -25020.1 14439.2 113300 19237.5 19600.7 -7.41415 
239 1 84.5729 5.32744 7.3983 5.99944 25483.8 -28766.5 -13682.7 89195.6 -9037.9 14221.2 -7.41218 
337 1 76.0824 7.86389 7.41148 5.99148 30785.4 -30127.1 -24435.3 118312 -11084.8 9885.52 -7.41183 
338 1 76.7771 6.62613 7.41043 5.98951 19118.8 -24171.9 20647.2 134220 21860.4 16391.5 -7.41484 
339 1 78.1969 6.61709 7.40845 5.99255 27390.9 -28108.4 -19989.5 114584 -11376.2 11389.5 -7.41203 