(written by TR)

16856	atoms
1	atom types
0	112.89669	xlo xhi
0	195.542803	ylo yhi
0	18.3999996	zlo zhi


Masses

1	12

Atoms

1 1 1 0 0.00000000 0.00000000 7.50000000 0 0 0
2 1 1 0 2.14326916 1.20648147 7.50000000 0 0 0
3 1 1 0 3.56318482 1.19101376 7.50000000 0 0 0
4 1 1 0 6.40301663 1.16007833 7.50000000 0 0 0
5 1 1 0 7.82293228 1.14461062 7.50000000 0 0 0
6 1 1 0 10.66276409 1.11367519 7.50000000 0 0 0
7 1 1 0 12.08267974 1.09820748 7.50000000 0 0 0
8 1 1 0 14.92251155 1.06727205 7.50000000 0 0 0
9 1 1 0 16.34242721 1.05180434 7.50000000 0 0 0
10 1 1 0 19.18225902 1.02086892 7.50000000 0 0 0
11 1 1 0 20.60217467 1.00540120 7.50000000 0 0 0
12 1 1 0 23.44200648 0.97446578 7.50000000 0 0 0
13 1 1 0 24.86192213 0.95899806 7.50000000 0 0 0
14 1 1 0 27.70175394 0.92806264 7.50000000 0 0 0
15 1 1 0 29.12166960 0.91259493 7.50000000 0 0 0
16 1 1 0 31.96150141 0.88165950 7.50000000 0 0 0
17 1 1 0 33.38141706 0.86619179 7.50000000 0 0 0
18 1 1 0 36.22124887 0.83525636 7.50000000 0 0 0
19 1 1 0 37.64116453 0.81978865 7.50000000 0 0 0
20 1 1 0 40.48099633 0.78885322 7.50000000 0 0 0
21 1 1 0 41.90091199 0.77338551 7.50000000 0 0 0
22 1 1 0 44.74074380 0.74245008 7.50000000 0 0 0
23 1 1 0 46.16065945 0.72698237 7.50000000 0 0 0
24 1 1 0 49.00049126 0.69604694 7.50000000 0 0 0
25 1 1 0 50.42040692 0.68057923 7.50000000 0 0 0
26 1 1 0 53.26023872 0.64964380 7.50000000 0 0 0
27 1 1 0 54.68015438 0.63417609 7.50000000 0 0 0
28 1 1 0 57.51998619 0.60324066 7.50000000 0 0 0
29 1 1 0 58.93990184 0.58777295 7.50000000 0 0 0
30 1 1 0 61.77973365 0.55683752 7.50000000 0 0 0
31 1 1 0 63.19964931 0.54136981 7.50000000 0 0 0
32 1 1 0 66.03948112 0.51043438 7.50000000 0 0 0
33 1 1 0 67.45939677 0.49496667 7.50000000 0 0 0
34 1 1 0 70.29922858 0.46403125 7.50000000 0 0 0
35 1 1 0 71.71914423 0.44856353 7.50000000 0 0 0
36 1 1 0 74.55897604 0.41762811 7.50000000 0 0 0
37 1 1 0 75.97889170 0.40216040 7.50000000 0 0 0
38 1 1 0 78.81872351 0.37122497 7.50000000 0 0 0
39 1 1 0 80.23863916 0.35575726 7.50000000 0 0 0
40 1 1 0 83.07847097 0.32482183 7.50000000 0 0 0
41 1 1 0 84.49838662 0.30935412 7.50000000 0 0 0
42 1 1 0 87.33821843 0.27841869 7.50000000 0 0 0
43 1 1 0 88.75813409 0.26295098 7.50000000 0 0 0
44 1 1 0 91.59796590 0.23201555 7.50000000 0 0 0
45 1 1 0 93.01788155 0.21654784 7.50000000 0 0 0
46 1 1 0 95.85771336 0.18561241 7.50000000 0 0 0
47 1 1 0 97.27762901 0.17014470 7.50000000 0 0 0
48 1 1 0 100.11746082 0.13920927 7.50000000 0 0 0
49 1 1 0 101.53737648 0.12374156 7.50000000 0 0 0
50 1 1 0 104.37720829 0.09280613 7.50000000 0 0 0
51 1 1 0 105.79712394 0.07733842 7.50000000 0 0 0
52 1 1 0 108.63695575 0.04640299 7.50000000 0 0 0
53 1 1 0 110.05687140 0.03093528 7.50000000 0 0 0
54 1 1 0 0.02679086 2.45936608 7.50000000 0 0 0
55 1 1 0 1.44670662 2.44389837 7.50000000 0 0 0
56 1 1 0 2.17006002 3.66584755 7.50000000 0 0 0
57 1 1 0 3.58997568 3.65037984 7.50000000 0 0 0
58 1 1 0 4.28653833 2.41296294 7.50000000 0 0 0
59 1 1 0 5.70645408 2.39749523 7.50000000 0 0 0
60 1 1 0 6.42980749 3.61944442 7.50000000 0 0 0
61 1 1 0 7.84972314 3.60397670 7.50000000 0 0 0
62 1 1 0 8.54628579 2.36655980 7.50000000 0 0 0
63 1 1 0 9.96620154 2.35109209 7.50000000 0 0 0
64 1 1 0 10.68955495 3.57304128 7.50000000 0 0 0
65 1 1 0 12.10947061 3.55757356 7.50000000 0 0 0
66 1 1 0 12.80603325 2.32015667 7.50000000 0 0 0
67 1 1 0 14.22594901 2.30468895 7.50000000 0 0 0
68 1 1 0 14.94930242 3.52663814 7.50000000 0 0 0
69 1 1 0 16.36921807 3.51117043 7.50000000 0 0 0
70 1 1 0 17.06578072 2.27375353 7.50000000 0 0 0
71 1 1 0 18.48569647 2.25828581 7.50000000 0 0 0
72 1 1 0 19.20904988 3.48023500 7.50000000 0 0 0
73 1 1 0 20.62896553 3.46476729 7.50000000 0 0 0
74 1 1 0 21.32552818 2.22735039 7.50000000 0 0 0
75 1 1 0 22.74544393 2.21188267 7.50000000 0 0 0
76 1 1 0 23.46879734 3.43383186 7.50000000 0 0 0
77 1 1 0 24.88871300 3.41836415 7.50000000 0 0 0
78 1 1 0 25.58527564 2.18094725 7.50000000 0 0 0
79 1 1 0 27.00519140 2.16547954 7.50000000 0 0 0
80 1 1 0 27.72854481 3.38742872 7.50000000 0 0 0
81 1 1 0 29.14846046 3.37196101 7.50000000 0 0 0
82 1 1 0 29.84502311 2.13454411 7.50000000 0 0 0
83 1 1 0 31.26493886 2.11907640 7.50000000 0 0 0
84 1 1 0 31.98829227 3.34102558 7.50000000 0 0 0
85 1 1 0 33.40820792 3.32555787 7.50000000 0 0 0
86 1 1 0 34.10477057 2.08814097 7.50000000 0 0 0
87 1 1 0 35.52468632 2.07267326 7.50000000 0 0 0
88 1 1 0 36.24803973 3.29462244 7.50000000 0 0 0
89 1 1 0 37.66795539 3.27915473 7.50000000 0 0 0
90 1 1 0 38.36451803 2.04173783 7.50000000 0 0 0
91 1 1 0 39.78443379 2.02627012 7.50000000 0 0 0
92 1 1 0 40.50778720 3.24821930 7.50000000 0 0 0
93 1 1 0 41.92770285 3.23275159 7.50000000 0 0 0
94 1 1 0 42.62426550 1.99533469 7.50000000 0 0 0
95 1 1 0 44.04418125 1.97986698 7.50000000 0 0 0
96 1 1 0 44.76753466 3.20181616 7.50000000 0 0 0
97 1 1 0 46.18745031 3.18634845 7.50000000 0 0 0
98 1 1 0 46.88401296 1.94893155 7.50000000 0 0 0
99 1 1 0 48.30392871 1.93346384 7.50000000 0 0 0
100 1 1 0 49.02728212 3.15541302 7.50000000 0 0 0
101 1 1 0 50.44719778 3.13994531 7.50000000 0 0 0
102 1 1 0 51.14376042 1.90252841 7.50000000 0 0 0
103 1 1 0 52.56367618 1.88706070 7.50000000 0 0 0
104 1 1 0 53.28702959 3.10900988 7.50000000 0 0 0
105 1 1 0 54.70694524 3.09354217 7.50000000 0 0 0
106 1 1 0 55.40350789 1.85612527 7.50000000 0 0 0
107 1 1 0 56.82342364 1.84065756 7.50000000 0 0 0
108 1 1 0 57.54677705 3.06260675 7.50000000 0 0 0
109 1 1 0 58.96669270 3.04713903 7.50000000 0 0 0
110 1 1 0 59.66325535 1.80972213 7.50000000 0 0 0
111 1 1 0 61.08317111 1.79425442 7.50000000 0 0 0
112 1 1 0 61.80652451 3.01620361 7.50000000 0 0 0
113 1 1 0 63.22644017 3.00073590 7.50000000 0 0 0
114 1 1 0 63.92300281 1.76331900 7.50000000 0 0 0
115 1 1 0 65.34291857 1.74785128 7.50000000 0 0 0
116 1 1 0 66.06627198 2.96980047 7.50000000 0 0 0
117 1 1 0 67.48618763 2.95433276 7.50000000 0 0 0
118 1 1 0 68.18275028 1.71691586 7.50000000 0 0 0
119 1 1 0 69.60266603 1.70144814 7.50000000 0 0 0
120 1 1 0 70.32601944 2.92339733 7.50000000 0 0 0
121 1 1 0 71.74593510 2.90792962 7.50000000 0 0 0
122 1 1 0 72.44249774 1.67051272 7.50000000 0 0 0
123 1 1 0 73.86241350 1.65504501 7.50000000 0 0 0
124 1 1 0 74.58576690 2.87699419 7.50000000 0 0 0
125 1 1 0 76.00568256 2.86152648 7.50000000 0 0 0
126 1 1 0 76.70224520 1.62410958 7.50000000 0 0 0
127 1 1 0 78.12216096 1.60864187 7.50000000 0 0 0
128 1 1 0 78.84551437 2.83059105 7.50000000 0 0 0
129 1 1 0 80.26543002 2.81512334 7.50000000 0 0 0
130 1 1 0 80.96199267 1.57770644 7.50000000 0 0 0
131 1 1 0 82.38190842 1.56223873 7.50000000 0 0 0
132 1 1 0 83.10526183 2.78418791 7.50000000 0 0 0
133 1 1 0 84.52517749 2.76872020 7.50000000 0 0 0
134 1 1 0 85.22174013 1.53130330 7.50000000 0 0 0
135 1 1 0 86.64165589 1.51583559 7.50000000 0 0 0
136 1 1 0 87.36500929 2.73778477 7.50000000 0 0 0
137 1 1 0 88.78492495 2.72231706 7.50000000 0 0 0
138 1 1 0 89.48148760 1.48490016 7.50000000 0 0 0
139 1 1 0 90.90140335 1.46943245 7.50000000 0 0 0
140 1 1 0 91.62475676 2.69138163 7.50000000 0 0 0
141 1 1 0 93.04467241 2.67591392 7.50000000 0 0 0
142 1 1 0 93.74123506 1.43849702 7.50000000 0 0 0
143 1 1 0 95.16115081 1.42302931 7.50000000 0 0 0
144 1 1 0 95.88450422 2.64497849 7.50000000 0 0 0
145 1 1 0 97.30441988 2.62951078 7.50000000 0 0 0
146 1 1 0 98.00098252 1.39209388 7.50000000 0 0 0
147 1 1 0 99.42089828 1.37662617 7.50000000 0 0 0
148 1 1 0 100.14425168 2.59857535 7.50000000 0 0 0
149 1 1 0 101.56416734 2.58310764 7.50000000 0 0 0
150 1 1 0 102.26072999 1.34569074 7.50000000 0 0 0
151 1 1 0 103.68064574 1.33022303 7.50000000 0 0 0
152 1 1 0 104.40399915 2.55217222 7.50000000 0 0 0
153 1 1 0 105.82391480 2.53670450 7.50000000 0 0 0
154 1 1 0 106.52047745 1.29928760 7.50000000 0 0 0
155 1 1 0 107.94039320 1.28381989 7.50000000 0 0 0
156 1 1 0 108.66374661 2.50576908 7.50000000 0 0 0
157 1 1 0 110.08366227 2.49030137 7.50000000 0 0 0
158 1 1 0 110.78022491 1.25288447 7.50000000 0 0 0
159 1 1 0 112.20014067 1.23741675 7.50000000 0 0 0
160 1 1 0 0.05358172 4.91873217 7.50000000 0 0 0
161 1 1 0 1.47349748 4.90326445 7.50000000 0 0 0
162 1 1 0 2.19685089 6.12521364 7.50000000 0 0 0
163 1 1 0 3.61676654 6.10974593 7.50000000 0 0 0
164 1 1 0 4.31332919 4.87232903 7.50000000 0 0 0
165 1 1 0 5.73324494 4.85686131 7.50000000 0 0 0
166 1 1 0 6.45659835 6.07881050 7.50000000 0 0 0
167 1 1 0 7.87651400 6.06334279 7.50000000 0 0 0
168 1 1 0 8.57307665 4.82592589 7.50000000 0 0 0
169 1 1 0 9.99299241 4.81045817 7.50000000 0 0 0
170 1 1 0 10.71634581 6.03240736 7.50000000 0 0 0
171 1 1 0 12.13626147 6.01693965 7.50000000 0 0 0
172 1 1 0 12.83282411 4.77952275 7.50000000 0 0 0
173 1 1 0 14.25273987 4.76405504 7.50000000 0 0 0
174 1 1 0 14.97609328 5.98600422 7.50000000 0 0 0
175 1 1 0 16.39600893 5.97053651 7.50000000 0 0 0
176 1 1 0 17.09257158 4.73311961 7.50000000 0 0 0
177 1 1 0 18.51248733 4.71765190 7.50000000 0 0 0
178 1 1 0 19.23584074 5.93960108 7.50000000 0 0 0
179 1 1 0 20.65575640 5.92413337 7.50000000 0 0 0
180 1 1 0 21.35231904 4.68671647 7.50000000 0 0 0
181 1 1 0 22.77223480 4.67124876 7.50000000 0 0 0
182 1 1 0 23.49558820 5.89319794 7.50000000 0 0 0
183 1 1 0 24.91550386 5.87773023 7.50000000 0 0 0
184 1 1 0 25.61206650 4.64031333 7.50000000 0 0 0
185 1 1 0 27.03198226 4.62484562 7.50000000 0 0 0
186 1 1 0 27.75533567 5.84679480 7.50000000 0 0 0
187 1 1 0 29.17525132 5.83132709 7.50000000 0 0 0
188 1 1 0 29.87181397 4.59391019 7.50000000 0 0 0
189 1 1 0 31.29172972 4.57844248 7.50000000 0 0 0
190 1 1 0 32.01508313 5.80039166 7.50000000 0 0 0
191 1 1 0 33.43499879 5.78492395 7.50000000 0 0 0
192 1 1 0 34.13156143 4.54750705 7.50000000 0 0 0
193 1 1 0 35.55147719 4.53203934 7.50000000 0 0 0
194 1 1 0 36.27483059 5.75398852 7.50000000 0 0 0
195 1 1 0 37.69474625 5.73852081 7.50000000 0 0 0
196 1 1 0 38.39130890 4.50110391 7.50000000 0 0 0
197 1 1 0 39.81122465 4.48563620 7.50000000 0 0 0
198 1 1 0 40.53457806 5.70758538 7.50000000 0 0 0
199 1 1 0 41.95449371 5.69211767 7.50000000 0 0 0
200 1 1 0 42.65105636 4.45470077 7.50000000 0 0 0
201 1 1 0 44.07097211 4.43923306 7.50000000 0 0 0
202 1 1 0 44.79432552 5.66118225 7.50000000 0 0 0
203 1 1 0 46.21424118 5.64571453 7.50000000 0 0 0
204 1 1 0 46.91080382 4.40829763 7.50000000 0 0 0
205 1 1 0 48.33071958 4.39282992 7.50000000 0 0 0
206 1 1 0 49.05407299 5.61477911 7.50000000 0 0 0
207 1 1 0 50.47398864 5.59931140 7.50000000 0 0 0
208 1 1 0 51.17055129 4.36189450 7.50000000 0 0 0
209 1 1 0 52.59046704 4.34642678 7.50000000 0 0 0
210 1 1 0 53.31382045 5.56837597 7.50000000 0 0 0
211 1 1 0 54.73373610 5.55290826 7.50000000 0 0 0
212 1 1 0 55.43029875 4.31549136 7.50000000 0 0 0
213 1 1 0 56.85021450 4.30002364 7.50000000 0 0 0
214 1 1 0 57.57356791 5.52197283 7.50000000 0 0 0
215 1 1 0 58.99348357 5.50650512 7.50000000 0 0 0
216 1 1 0 59.69004621 4.26908822 7.50000000 0 0 0
217 1 1 0 61.10996197 4.25362051 7.50000000 0 0 0
218 1 1 0 61.83331538 5.47556969 7.50000000 0 0 0
219 1 1 0 63.25323103 5.46010198 7.50000000 0 0 0
220 1 1 0 63.94979368 4.22268508 7.50000000 0 0 0
221 1 1 0 65.36970943 4.20721737 7.50000000 0 0 0
222 1 1 0 66.09306284 5.42916655 7.50000000 0 0 0
223 1 1 0 67.51297849 5.41369884 7.50000000 0 0 0
224 1 1 0 68.20954114 4.17628194 7.50000000 0 0 0
225 1 1 0 69.62945689 4.16081423 7.50000000 0 0 0
226 1 1 0 70.35281030 5.38276341 7.50000000 0 0 0
227 1 1 0 71.77272596 5.36729570 7.50000000 0 0 0
228 1 1 0 72.46928860 4.12987880 7.50000000 0 0 0
229 1 1 0 73.88920436 4.11441109 7.50000000 0 0 0
230 1 1 0 74.61255777 5.33636027 7.50000000 0 0 0
231 1 1 0 76.03247342 5.32089256 7.50000000 0 0 0
232 1 1 0 76.72903607 4.08347566 7.50000000 0 0 0
233 1 1 0 78.14895182 4.06800795 7.50000000 0 0 0
234 1 1 0 78.87230523 5.28995713 7.50000000 0 0 0
235 1 1 0 80.29222088 5.27448942 7.50000000 0 0 0
236 1 1 0 80.98878353 4.03707252 7.50000000 0 0 0
237 1 1 0 82.40869928 4.02160481 7.50000000 0 0 0
238 1 1 0 83.13205269 5.24355399 7.50000000 0 0 0
239 1 1 0 84.55196835 5.22808628 7.50000000 0 0 0
240 1 1 0 85.24853099 3.99066938 7.50000000 0 0 0
241 1 1 0 86.66844675 3.97520167 7.50000000 0 0 0
242 1 1 0 87.39180016 5.19715085 7.50000000 0 0 0
243 1 1 0 88.81171581 5.18168314 7.50000000 0 0 0
244 1 1 0 89.50827846 3.94426624 7.50000000 0 0 0
245 1 1 0 90.92819421 3.92879853 7.50000000 0 0 0
246 1 1 0 91.65154762 5.15074772 7.50000000 0 0 0
247 1 1 0 93.07146327 5.13528000 7.50000000 0 0 0
248 1 1 0 93.76802592 3.89786310 7.50000000 0 0 0
249 1 1 0 95.18794168 3.88239539 7.50000000 0 0 0
250 1 1 0 95.91129508 5.10434458 7.50000000 0 0 0
251 1 1 0 97.33121074 5.08887686 7.50000000 0 0 0
252 1 1 0 98.02777338 3.85145997 7.50000000 0 0 0
253 1 1 0 99.44768914 3.83599225 7.50000000 0 0 0
254 1 1 0 100.17104255 5.05794144 7.50000000 0 0 0
255 1 1 0 101.59095820 5.04247373 7.50000000 0 0 0
256 1 1 0 102.28752085 3.80505683 7.50000000 0 0 0
257 1 1 0 103.70743660 3.78958911 7.50000000 0 0 0
258 1 1 0 104.43079001 5.01153830 7.50000000 0 0 0
259 1 1 0 105.85070566 4.99607059 7.50000000 0 0 0
260 1 1 0 106.54726831 3.75865369 7.50000000 0 0 0
261 1 1 0 107.96718407 3.74318597 7.50000000 0 0 0
262 1 1 0 108.69053747 4.96513516 7.50000000 0 0 0
263 1 1 0 110.11045313 4.94966745 7.50000000 0 0 0
264 1 1 0 110.80701577 3.71225055 7.50000000 0 0 0
265 1 1 0 112.22693153 3.69678284 7.50000000 0 0 0
266 1 1 0 0.08037259 7.37809825 7.50000000 0 0 0
267 1 1 0 1.50028834 7.36263054 7.50000000 0 0 0
268 1 1 0 2.22364175 8.58457972 7.50000000 0 0 0
269 1 1 0 3.64355740 8.56911201 7.50000000 0 0 0
270 1 1 0 4.34012005 7.33169511 7.50000000 0 0 0
271 1 1 0 5.76003580 7.31622740 7.50000000 0 0 0
272 1 1 0 6.48338921 8.53817658 7.50000000 0 0 0
273 1 1 0 7.90330487 8.52270887 7.50000000 0 0 0
274 1 1 0 8.59986751 7.28529197 7.50000000 0 0 0
275 1 1 0 10.01978327 7.26982426 7.50000000 0 0 0
276 1 1 0 10.74313668 8.49177344 7.50000000 0 0 0
277 1 1 0 12.16305233 8.47630573 7.50000000 0 0 0
278 1 1 0 12.85961498 7.23888883 7.50000000 0 0 0
279 1 1 0 14.27953073 7.22342112 7.50000000 0 0 0
280 1 1 0 15.00288414 8.44537030 7.50000000 0 0 0
281 1 1 0 16.42279979 8.42990259 7.50000000 0 0 0
282 1 1 0 17.11936244 7.19248569 7.50000000 0 0 0
283 1 1 0 18.53927819 7.17701798 7.50000000 0 0 0
284 1 1 0 19.26263160 8.39896716 7.50000000 0 0 0
285 1 1 0 20.68254726 8.38349945 7.50000000 0 0 0
286 1 1 0 21.37910990 7.14608255 7.50000000 0 0 0
287 1 1 0 22.79902566 7.13061484 7.50000000 0 0 0
288 1 1 0 23.52237907 8.35256402 7.50000000 0 0 0
289 1 1 0 24.94229472 8.33709631 7.50000000 0 0 0
290 1 1 0 25.63885737 7.09967941 7.50000000 0 0 0
291 1 1 0 27.05877312 7.08421170 7.50000000 0 0 0
292 1 1 0 27.78212653 8.30616088 7.50000000 0 0 0
293 1 1 0 29.20204218 8.29069317 7.50000000 0 0 0
294 1 1 0 29.89860483 7.05327627 7.50000000 0 0 0
295 1 1 0 31.31852058 7.03780856 7.50000000 0 0 0
296 1 1 0 32.04187399 8.25975775 7.50000000 0 0 0
297 1 1 0 33.46178965 8.24429003 7.50000000 0 0 0
298 1 1 0 34.15835229 7.00687313 7.50000000 0 0 0
299 1 1 0 35.57826805 6.99140542 7.50000000 0 0 0
300 1 1 0 36.30162146 8.21335461 7.50000000 0 0 0
301 1 1 0 37.72153711 8.19788690 7.50000000 0 0 0
302 1 1 0 38.41809976 6.96047000 7.50000000 0 0 0
303 1 1 0 39.83801551 6.94500228 7.50000000 0 0 0
304 1 1 0 40.56136892 8.16695147 7.50000000 0 0 0
305 1 1 0 41.98128457 8.15148376 7.50000000 0 0 0
306 1 1 0 42.67784722 6.91406686 7.50000000 0 0 0
307 1 1 0 44.09776298 6.89859914 7.50000000 0 0 0
308 1 1 0 44.82111638 8.12054833 7.50000000 0 0 0
309 1 1 0 46.24103204 8.10508062 7.50000000 0 0 0
310 1 1 0 46.93759468 6.86766372 7.50000000 0 0 0
311 1 1 0 48.35751044 6.85219600 7.50000000 0 0 0
312 1 1 0 49.08086385 8.07414519 7.50000000 0 0 0
313 1 1 0 50.50077950 8.05867748 7.50000000 0 0 0
314 1 1 0 51.19734215 6.82126058 7.50000000 0 0 0
315 1 1 0 52.61725790 6.80579287 7.50000000 0 0 0
316 1 1 0 53.34061131 8.02774205 7.50000000 0 0 0
317 1 1 0 54.76052697 8.01227434 7.50000000 0 0 0
318 1 1 0 55.45708961 6.77485744 7.50000000 0 0 0
319 1 1 0 56.87700537 6.75938973 7.50000000 0 0 0
320 1 1 0 57.60035877 7.98133891 7.50000000 0 0 0
321 1 1 0 59.02027443 7.96587120 7.50000000 0 0 0
322 1 1 0 59.71683707 6.72845430 7.50000000 0 0 0
323 1 1 0 61.13675283 6.71298659 7.50000000 0 0 0
324 1 1 0 61.86010624 7.93493577 7.50000000 0 0 0
325 1 1 0 63.28002189 7.91946806 7.50000000 0 0 0
326 1 1 0 63.97658454 6.68205116 7.50000000 0 0 0
327 1 1 0 65.39650029 6.66658345 7.50000000 0 0 0
328 1 1 0 66.11985370 7.88853263 7.50000000 0 0 0
329 1 1 0 67.53976936 7.87306492 7.50000000 0 0 0
330 1 1 0 68.23633200 6.63564802 7.50000000 0 0 0
331 1 1 0 69.65624776 6.62018031 7.50000000 0 0 0
332 1 1 0 70.37960116 7.84212949 7.50000000 0 0 0
333 1 1 0 71.79951682 7.82666178 7.50000000 0 0 0
334 1 1 0 72.49607947 6.58924488 7.50000000 0 0 0
335 1 1 0 73.91599522 6.57377717 7.50000000 0 0 0
336 1 1 0 74.63934863 7.79572635 7.50000000 0 0 0
337 1 1 0 76.05926428 7.78025864 7.50000000 0 0 0
338 1 1 0 76.75582693 6.54284174 7.50000000 0 0 0
339 1 1 0 78.17574268 6.52737403 7.50000000 0 0 0
340 1 1 0 78.89909609 7.74932322 7.50000000 0 0 0
341 1 1 0 80.31901175 7.73385550 7.50000000 0 0 0
342 1 1 0 81.01557439 6.49643860 7.50000000 0 0 0
343 1 1 0 82.43549015 6.48097089 7.50000000 0 0 0
344 1 1 0 83.15884356 7.70292008 7.50000000 0 0 0
345 1 1 0 84.57875921 7.68745236 7.50000000 0 0 0
346 1 1 0 85.27532186 6.45003547 7.50000000 0 0 0
347 1 1 0 86.69523761 6.43456775 7.50000000 0 0 0
348 1 1 0 87.41859102 7.65651694 7.50000000 0 0 0
349 1 1 0 88.83850667 7.64104923 7.50000000 0 0 0
350 1 1 0 89.53506932 6.40363233 7.50000000 0 0 0
351 1 1 0 90.95498507 6.38816461 7.50000000 0 0 0
352 1 1 0 91.67833848 7.61011380 7.50000000 0 0 0
353 1 1 0 93.09825414 7.59464609 7.50000000 0 0 0
354 1 1 0 93.79481678 6.35722919 7.50000000 0 0 0
355 1 1 0 95.21473254 6.34176147 7.50000000 0 0 0
356 1 1 0 95.93808595 7.56371066 7.50000000 0 0 0
357 1 1 0 97.35800160 7.54824295 7.50000000 0 0 0
358 1 1 0 98.05456425 6.31082605 7.50000000 0 0 0
359 1 1 0 99.47448000 6.29535834 7.50000000 0 0 0
360 1 1 0 100.19783341 7.51730752 7.50000000 0 0 0
361 1 1 0 101.61774906 7.50183981 7.50000000 0 0 0
362 1 1 0 102.31431171 6.26442291 7.50000000 0 0 0
363 1 1 0 103.73422746 6.24895520 7.50000000 0 0 0
364 1 1 0 104.45758087 7.47090438 7.50000000 0 0 0
365 1 1 0 105.87749653 7.45543667 7.50000000 0 0 0
366 1 1 0 106.57405917 6.21801977 7.50000000 0 0 0
367 1 1 0 107.99397493 6.20255206 7.50000000 0 0 0
368 1 1 0 108.71732834 7.42450124 7.50000000 0 0 0
369 1 1 0 110.13724399 7.40903353 7.50000000 0 0 0
370 1 1 0 110.83380664 6.17161663 7.50000000 0 0 0
371 1 1 0 112.25372239 6.15614892 7.50000000 0 0 0
372 1 1 0 0.10716345 9.83746433 7.50000000 0 0 0
373 1 1 0 1.52707920 9.82199662 7.50000000 0 0 0
374 1 1 0 2.25043261 11.04394580 7.50000000 0 0 0
375 1 1 0 3.67034827 11.02847809 7.50000000 0 0 0
376 1 1 0 4.36691091 9.79106119 7.50000000 0 0 0
377 1 1 0 5.78682667 9.77559348 7.50000000 0 0 0
378 1 1 0 6.51018007 10.99754266 7.50000000 0 0 0
379 1 1 0 7.93009573 10.98207495 7.50000000 0 0 0
380 1 1 0 8.62665837 9.74465805 7.50000000 0 0 0
381 1 1 0 10.04657413 9.72919034 7.50000000 0 0 0
382 1 1 0 10.76992754 10.95113952 7.50000000 0 0 0
383 1 1 0 12.18984319 10.93567181 7.50000000 0 0 0
384 1 1 0 12.88640584 9.69825491 7.50000000 0 0 0
385 1 1 0 14.30632159 9.68278720 7.50000000 0 0 0
386 1 1 0 15.02967500 10.90473638 7.50000000 0 0 0
387 1 1 0 16.44959066 10.88926867 7.50000000 0 0 0
388 1 1 0 17.14615330 9.65185177 7.50000000 0 0 0
389 1 1 0 18.56606906 9.63638406 7.50000000 0 0 0
390 1 1 0 19.28942246 10.85833325 7.50000000 0 0 0
391 1 1 0 20.70933812 10.84286553 7.50000000 0 0 0
392 1 1 0 21.40590077 9.60544863 7.50000000 0 0 0
393 1 1 0 22.82581652 9.58998092 7.50000000 0 0 0
394 1 1 0 23.54916993 10.81193011 7.50000000 0 0 0
395 1 1 0 24.96908558 10.79646239 7.50000000 0 0 0
396 1 1 0 25.66564823 9.55904550 7.50000000 0 0 0
397 1 1 0 27.08556398 9.54357778 7.50000000 0 0 0
398 1 1 0 27.80891739 10.76552697 7.50000000 0 0 0
399 1 1 0 29.22883305 10.75005926 7.50000000 0 0 0
400 1 1 0 29.92539569 9.51264236 7.50000000 0 0 0
401 1 1 0 31.34531145 9.49717464 7.50000000 0 0 0
402 1 1 0 32.06866486 10.71912383 7.50000000 0 0 0
403 1 1 0 33.48858051 10.70365612 7.50000000 0 0 0
404 1 1 0 34.18514316 9.46623922 7.50000000 0 0 0
405 1 1 0 35.60505891 9.45077150 7.50000000 0 0 0
406 1 1 0 36.32841232 10.67272069 7.50000000 0 0 0
407 1 1 0 37.74832797 10.65725298 7.50000000 0 0 0
408 1 1 0 38.44489062 9.41983608 7.50000000 0 0 0
409 1 1 0 39.86480637 9.40436837 7.50000000 0 0 0
410 1 1 0 40.58815978 10.62631755 7.50000000 0 0 0
411 1 1 0 42.00807544 10.61084984 7.50000000 0 0 0
412 1 1 0 42.70463808 9.37343294 7.50000000 0 0 0
413 1 1 0 44.12455384 9.35796523 7.50000000 0 0 0
414 1 1 0 44.84790725 10.57991441 7.50000000 0 0 0
415 1 1 0 46.26782290 10.56444670 7.50000000 0 0 0
416 1 1 0 46.96438555 9.32702980 7.50000000 0 0 0
417 1 1 0 48.38430130 9.31156209 7.50000000 0 0 0
418 1 1 0 49.10765471 10.53351127 7.50000000 0 0 0
419 1 1 0 50.52757036 10.51804356 7.50000000 0 0 0
420 1 1 0 51.22413301 9.28062666 7.50000000 0 0 0
421 1 1 0 52.64404876 9.26515895 7.50000000 0 0 0
422 1 1 0 53.36740217 10.48710813 7.50000000 0 0 0
423 1 1 0 54.78731783 10.47164042 7.50000000 0 0 0
424 1 1 0 55.48388047 9.23422352 7.50000000 0 0 0
425 1 1 0 56.90379623 9.21875581 7.50000000 0 0 0
426 1 1 0 57.62714964 10.44070499 7.50000000 0 0 0
427 1 1 0 59.04706529 10.42523728 7.50000000 0 0 0
428 1 1 0 59.74362794 9.18782038 7.50000000 0 0 0
429 1 1 0 61.16354369 9.17235267 7.50000000 0 0 0
430 1 1 0 61.88689710 10.39430185 7.50000000 0 0 0
431 1 1 0 63.30681275 10.37883414 7.50000000 0 0 0
432 1 1 0 64.00337540 9.14141724 7.50000000 0 0 0
433 1 1 0 65.42329115 9.12594953 7.50000000 0 0 0
434 1 1 0 66.14664456 10.34789872 7.50000000 0 0 0
435 1 1 0 67.56656022 10.33243100 7.50000000 0 0 0
436 1 1 0 68.26312286 9.09501410 7.50000000 0 0 0
437 1 1 0 69.68303862 9.07954639 7.50000000 0 0 0
438 1 1 0 70.40639203 10.30149558 7.50000000 0 0 0
439 1 1 0 71.82630768 10.28602786 7.50000000 0 0 0
440 1 1 0 72.52287033 9.04861097 7.50000000 0 0 0
441 1 1 0 73.94278608 9.03314325 7.50000000 0 0 0
442 1 1 0 74.66613949 10.25509244 7.50000000 0 0 0
443 1 1 0 76.08605514 10.23962473 7.50000000 0 0 0
444 1 1 0 76.78261779 9.00220783 7.50000000 0 0 0
445 1 1 0 78.20253355 8.98674011 7.50000000 0 0 0
446 1 1 0 78.92588695 10.20868930 7.50000000 0 0 0
447 1 1 0 80.34580261 10.19322159 7.50000000 0 0 0
448 1 1 0 81.04236525 8.95580469 7.50000000 0 0 0
449 1 1 0 82.46228101 8.94033697 7.50000000 0 0 0
450 1 1 0 83.18563442 10.16228616 7.50000000 0 0 0
451 1 1 0 84.60555007 10.14681845 7.50000000 0 0 0
452 1 1 0 85.30211272 8.90940155 7.50000000 0 0 0
453 1 1 0 86.72202847 8.89393384 7.50000000 0 0 0
454 1 1 0 87.44538188 10.11588302 7.50000000 0 0 0
455 1 1 0 88.86529754 10.10041531 7.50000000 0 0 0
456 1 1 0 89.56186018 8.86299841 7.50000000 0 0 0
457 1 1 0 90.98177594 8.84753070 7.50000000 0 0 0
458 1 1 0 91.70512934 10.06947988 7.50000000 0 0 0
459 1 1 0 93.12504500 10.05401217 7.50000000 0 0 0
460 1 1 0 93.82160764 8.81659527 7.50000000 0 0 0
461 1 1 0 95.24152340 8.80112756 7.50000000 0 0 0
462 1 1 0 95.96487681 10.02307674 7.50000000 0 0 0
463 1 1 0 97.38479246 10.00760903 7.50000000 0 0 0
464 1 1 0 98.08135511 8.77019213 7.50000000 0 0 0
465 1 1 0 99.50127086 8.75472442 7.50000000 0 0 0
466 1 1 0 100.22462427 9.97667360 7.50000000 0 0 0
467 1 1 0 101.64453993 9.96120589 7.50000000 0 0 0
468 1 1 0 102.34110257 8.72378899 7.50000000 0 0 0
469 1 1 0 103.76101833 8.70832128 7.50000000 0 0 0
470 1 1 0 104.48437173 9.93027046 7.50000000 0 0 0
471 1 1 0 105.90428739 9.91480275 7.50000000 0 0 0
472 1 1 0 106.60085004 8.67738585 7.50000000 0 0 0
473 1 1 0 108.02076579 8.66191814 7.50000000 0 0 0
474 1 1 0 108.74411920 9.88386732 7.50000000 0 0 0
475 1 1 0 110.16403485 9.86839961 7.50000000 0 0 0
476 1 1 0 110.86059750 8.63098271 7.50000000 0 0 0
477 1 1 0 112.28051325 8.61551500 7.50000000 0 0 0
478 1 1 0 0.13395431 12.29683041 7.50000000 0 0 0
479 1 1 0 1.55387006 12.28136270 7.50000000 0 0 0
480 1 1 0 2.27722347 13.50331188 7.50000000 0 0 0
481 1 1 0 3.69713913 13.48784417 7.50000000 0 0 0
482 1 1 0 4.39370177 12.25042727 7.50000000 0 0 0
483 1 1 0 5.81361753 12.23495956 7.50000000 0 0 0
484 1 1 0 6.53697094 13.45690875 7.50000000 0 0 0
485 1 1 0 7.95688659 13.44144103 7.50000000 0 0 0
486 1 1 0 8.65344924 12.20402413 7.50000000 0 0 0
487 1 1 0 10.07336499 12.18855642 7.50000000 0 0 0
488 1 1 0 10.79671840 13.41050561 7.50000000 0 0 0
489 1 1 0 12.21663405 13.39503789 7.50000000 0 0 0
490 1 1 0 12.91319670 12.15762100 7.50000000 0 0 0
491 1 1 0 14.33311245 12.14215328 7.50000000 0 0 0
492 1 1 0 15.05646586 13.36410247 7.50000000 0 0 0
493 1 1 0 16.47638152 13.34863476 7.50000000 0 0 0
494 1 1 0 17.17294416 12.11121786 7.50000000 0 0 0
495 1 1 0 18.59285992 12.09575014 7.50000000 0 0 0
496 1 1 0 19.31621333 13.31769933 7.50000000 0 0 0
497 1 1 0 20.73612898 13.30223162 7.50000000 0 0 0
498 1 1 0 21.43269163 12.06481472 7.50000000 0 0 0
499 1 1 0 22.85260738 12.04934700 7.50000000 0 0 0
500 1 1 0 23.57596079 13.27129619 7.50000000 0 0 0
501 1 1 0 24.99587644 13.25582848 7.50000000 0 0 0
502 1 1 0 25.69243909 12.01841158 7.50000000 0 0 0
503 1 1 0 27.11235485 12.00294387 7.50000000 0 0 0
504 1 1 0 27.83570825 13.22489305 7.50000000 0 0 0
505 1 1 0 29.25562391 13.20942534 7.50000000 0 0 0
506 1 1 0 29.95218655 11.97200844 7.50000000 0 0 0
507 1 1 0 31.37210231 11.95654073 7.50000000 0 0 0
508 1 1 0 32.09545572 13.17848991 7.50000000 0 0 0
509 1 1 0 33.51537137 13.16302220 7.50000000 0 0 0
510 1 1 0 34.21193402 11.92560530 7.50000000 0 0 0
511 1 1 0 35.63184977 11.91013759 7.50000000 0 0 0
512 1 1 0 36.35520318 13.13208677 7.50000000 0 0 0
513 1 1 0 37.77511884 13.11661906 7.50000000 0 0 0
514 1 1 0 38.47168148 11.87920216 7.50000000 0 0 0
515 1 1 0 39.89159724 11.86373445 7.50000000 0 0 0
516 1 1 0 40.61495064 13.08568363 7.50000000 0 0 0
517 1 1 0 42.03486630 13.07021592 7.50000000 0 0 0
518 1 1 0 42.73142894 11.83279902 7.50000000 0 0 0
519 1 1 0 44.15134470 11.81733131 7.50000000 0 0 0
520 1 1 0 44.87469811 13.03928049 7.50000000 0 0 0
521 1 1 0 46.29461376 13.02381278 7.50000000 0 0 0
522 1 1 0 46.99117641 11.78639588 7.50000000 0 0 0
523 1 1 0 48.41109216 11.77092817 7.50000000 0 0 0
524 1 1 0 49.13444557 12.99287735 7.50000000 0 0 0
525 1 1 0 50.55436123 12.97740964 7.50000000 0 0 0
526 1 1 0 51.25092387 11.73999274 7.50000000 0 0 0
527 1 1 0 52.67083963 11.72452503 7.50000000 0 0 0
528 1 1 0 53.39419303 12.94647421 7.50000000 0 0 0
529 1 1 0 54.81410869 12.93100650 7.50000000 0 0 0
530 1 1 0 55.51067134 11.69358960 7.50000000 0 0 0
531 1 1 0 56.93058709 11.67812189 7.50000000 0 0 0
532 1 1 0 57.65394050 12.90007108 7.50000000 0 0 0
533 1 1 0 59.07385615 12.88460336 7.50000000 0 0 0
534 1 1 0 59.77041880 11.64718646 7.50000000 0 0 0
535 1 1 0 61.19033455 11.63171875 7.50000000 0 0 0
536 1 1 0 61.91368796 12.85366794 7.50000000 0 0 0
537 1 1 0 63.33360362 12.83820023 7.50000000 0 0 0
538 1 1 0 64.03016626 11.60078333 7.50000000 0 0 0
539 1 1 0 65.45008202 11.58531561 7.50000000 0 0 0
540 1 1 0 66.17343543 12.80726480 7.50000000 0 0 0
541 1 1 0 67.59335108 12.79179709 7.50000000 0 0 0
542 1 1 0 68.28991373 11.55438019 7.50000000 0 0 0
543 1 1 0 69.70982948 11.53891247 7.50000000 0 0 0
544 1 1 0 70.43318289 12.76086166 7.50000000 0 0 0
545 1 1 0 71.85309854 12.74539395 7.50000000 0 0 0
546 1 1 0 72.54966119 11.50797705 7.50000000 0 0 0
547 1 1 0 73.96957694 11.49250934 7.50000000 0 0 0
548 1 1 0 74.69293035 12.71445852 7.50000000 0 0 0
549 1 1 0 76.11284601 12.69899081 7.50000000 0 0 0
550 1 1 0 76.80940865 11.46157391 7.50000000 0 0 0
551 1 1 0 78.22932441 11.44610620 7.50000000 0 0 0
552 1 1 0 78.95267782 12.66805538 7.50000000 0 0 0
553 1 1 0 80.37259347 12.65258767 7.50000000 0 0 0
554 1 1 0 81.06915612 11.41517077 7.50000000 0 0 0
555 1 1 0 82.48907187 11.39970306 7.50000000 0 0 0
556 1 1 0 83.21242528 12.62165224 7.50000000 0 0 0
557 1 1 0 84.63234093 12.60618453 7.50000000 0 0 0
558 1 1 0 85.32890358 11.36876763 7.50000000 0 0 0
559 1 1 0 86.74881933 11.35329992 7.50000000 0 0 0
560 1 1 0 87.47217274 12.57524910 7.50000000 0 0 0
561 1 1 0 88.89208840 12.55978139 7.50000000 0 0 0
562 1 1 0 89.58865104 11.32236449 7.50000000 0 0 0
563 1 1 0 91.00856680 11.30689678 7.50000000 0 0 0
564 1 1 0 91.73192021 12.52884596 7.50000000 0 0 0
565 1 1 0 93.15183586 12.51337825 7.50000000 0 0 0
566 1 1 0 93.84839851 11.27596135 7.50000000 0 0 0
567 1 1 0 95.26831426 11.26049364 7.50000000 0 0 0
568 1 1 0 95.99166767 12.48244282 7.50000000 0 0 0
569 1 1 0 97.41158332 12.46697511 7.50000000 0 0 0
570 1 1 0 98.10814597 11.22955821 7.50000000 0 0 0
571 1 1 0 99.52806172 11.21409050 7.50000000 0 0 0
572 1 1 0 100.25141513 12.43603968 7.50000000 0 0 0
573 1 1 0 101.67133079 12.42057197 7.50000000 0 0 0
574 1 1 0 102.36789343 11.18315507 7.50000000 0 0 0
575 1 1 0 103.78780919 11.16768736 7.50000000 0 0 0
576 1 1 0 104.51116260 12.38963655 7.50000000 0 0 0
577 1 1 0 105.93107825 12.37416883 7.50000000 0 0 0
578 1 1 0 106.62764090 11.13675193 7.50000000 0 0 0
579 1 1 0 108.04755665 11.12128422 7.50000000 0 0 0
580 1 1 0 108.77091006 12.34323341 7.50000000 0 0 0
581 1 1 0 110.19082571 12.32776570 7.50000000 0 0 0
582 1 1 0 110.88738836 11.09034880 7.50000000 0 0 0
583 1 1 0 112.30730412 11.07488108 7.50000000 0 0 0
584 1 1 0 0.16074517 14.75619650 7.50000000 0 0 0
585 1 1 0 1.58066093 14.74072878 7.50000000 0 0 0
586 1 1 0 2.30401433 15.96267797 7.50000000 0 0 0
587 1 1 0 3.72392999 15.94721026 7.50000000 0 0 0
588 1 1 0 4.42049264 14.70979336 7.50000000 0 0 0
589 1 1 0 5.84040839 14.69432564 7.50000000 0 0 0
590 1 1 0 6.56376180 15.91627483 7.50000000 0 0 0
591 1 1 0 7.98367745 15.90080712 7.50000000 0 0 0
592 1 1 0 8.68024010 14.66339022 7.50000000 0 0 0
593 1 1 0 10.10015585 14.64792250 7.50000000 0 0 0
594 1 1 0 10.82350926 15.86987169 7.50000000 0 0 0
595 1 1 0 12.24342492 15.85440398 7.50000000 0 0 0
596 1 1 0 12.93998756 14.61698708 7.50000000 0 0 0