ITEM: TIMESTEP
211
ITEM: NUMBER OF ATOMS
15608
ITEM: BOX BOUNDS pp pp pp
0.0000000000000000e+00 1.0848182700000000e+02
0.0000000000000000e+00 1.8789603600000001e+02
0.0000000000000000e+00 1.8399999999999999e+01
ITEM: ATOMS id type x y z c_csym c_2[1] c_2[2] c_2[3] c_2[4] c_2[5] c_2[6] c_3 
173 1 0.879594 8.57923 7.38662 6.01792 -168138 -149037 -3382.83 -17136.5 12154.6 -3015.57 -7.41379 
174 1 0.147218 7.36536 7.38355 6.0241 -154414 -162838 2334.09 -11913.8 13873.4 -1318.2 -7.41395 
175 1 0.831832 6.12379 7.38104 6.0226 -164835 -152015 -1110.03 -8298.97 8351.48 -2510.73 -7.4137 
176 1 0.098818 4.91025 7.37893 6.02653 -155396 -161323 836.857 -4915.36 8171.61 -885.804 -7.41371 
177 1 0.78299 3.66847 7.37743 6.0259 -161953 -154724 -39.166 -3025.42 4798.67 -1895.54 -7.41362 
178 1 0.0495969 2.45514 7.37626 6.02849 -156732 -159778 322.973 -1175.29 3625.24 -454.319 -7.41359 
179 1 0.733553 1.21325 7.37568 6.02874 -159430 -157064 259.374 -634.417 1521.48 -1262.18 -7.41357 
180 1 1.65849e-07 2.9122e-07 7.37539 6.03 -158222 -158203 268.44 5.13171 -0.0112542 -0.0308991 -7.41356 
327 1 2.29711 8.5507 7.38729 6.01983 -162398 -155211 2767.37 -14132.4 16762.5 -3979.2 -7.41412 
328 1 2.98177 7.30908 7.38476 6.02002 -173308 -143793 -1018.63 -11880.8 10293.1 -7392.26 -7.41383 
329 1 2.24933 6.09522 7.38167 6.02307 -160540 -156685 854.776 -5410.42 10492.4 -3640.08 -7.41382 
330 1 2.93352 4.85341 7.38014 6.02369 -167665 -149241 208.735 -4929.67 6582.91 -6190.48 -7.41373 
331 1 2.20047 3.63988 7.37802 6.02567 -159254 -157465 154.683 -249.809 5307.59 -3306.89 -7.41365 
332 1 2.88444 2.39797 7.37743 6.02692 -162710 -153987 467.202 -1313.69 3110.29 -5007.8 -7.41364 
333 1 2.15103 1.18464 7.37625 6.0275 -158538 -158087 153.97 2023.23 1213.37 -3047.22 -7.41358 
480 1 5.13086 8.49519 7.39043 6.01716 -184890 -132562 379.598 -14189.6 12629.7 -13016.2 -7.4141 
481 1 4.39924 7.28084 7.38634 6.01721 -168318 -149073 -182.82 -4742.81 13120.1 -6453.48 -7.41394 
482 1 5.08348 6.03899 7.3848 6.02102 -176208 -140891 1482.03 -5533.93 8940.18 -11367.1 -7.41395 
483 1 4.35099 4.82511 7.38166 6.02155 -164160 -152672 -822.231 2024.08 7284.68 -6296.09 -7.41374 
484 1 5.03499 3.58318 7.38107 6.02465 -168477 -148433 1408.53 -494.433 5276.17 -9666.53 -7.41382 
485 1 4.30191 2.36963 7.37892 6.02441 -160899 -155744 -510.93 5533.32 2519.73 -6198.5 -7.41365 
486 1 4.98587 1.12773 7.37923 6.02546 -161403 -155326 620.844 1636.69 1704.4 -8132.66 -7.41371 
633 1 6.54829 8.46754 7.39293 6.00979 -179374 -138295 -2672.33 -2579.15 15835.3 -9167.58 -7.41406 
634 1 7.23258 7.22565 7.39142 6.01713 -188137 -129625 4240.65 -4494.96 11639 -17285.4 -7.41433 
635 1 6.50092 6.01125 7.38727 6.01555 -172155 -145050 -3032.45 5893.25 9527.5 -9401.89 -7.41384 
636 1 7.18495 4.7693 7.38669 6.02195 -177268 -140109 3587.93 2160.67 7972.19 -15266.3 -7.41413 
637 1 6.45243 3.55537 7.38351 6.02005 -165980 -150906 -2178.22 10833.1 4073.66 -9584.6 -7.41374 
638 1 7.13643 2.31346 7.38385 6.02289 -167360 -149760 1990.13 5559.53 4242.41 -13292.3 -7.41395 
639 1 6.40333 1.09986 7.38166 6.02217 -160500 -156149 -640.934 12846.2 -462.652 -9894.35 -7.41374 
787 1 8.64997 7.19878 7.39476 6.00821 -183426 -133960 -6823.04 11651.1 11779.5 -12305.3 -7.41391 
789 1 8.60236 4.74232 7.39005 6.01482 -174079 -142927 -5242.77 18253.9 5805.54 -12980.1 -7.41382 
791 1 8.55386 2.2864 7.38725 6.01843 -165767 -151284 -2688.37 21492.1 610.392 -13641.1 -7.41384 
786 1 9.38055 8.41389 7.3998 6.01026 -202787 -115045 8798.37 -1482.31 14324.2 -23446 -7.41487 
788 1 9.33406 5.9568 7.39422 6.01667 -189269 -128553 7412.26 6942.7 10948.8 -21418.6 -7.4146 
790 1 9.2864 3.5004 7.39043 6.01995 -176363 -141373 4803.29 11708.2 7253.85 -19235 -7.41434 
792 1 9.23806 1.04464 7.38854 6.01657 -163917 -153487 1494.35 13525.3 3363.9 -17128.2 -7.41411 
939 1 10.7979 8.38816 7.40375 5.99996 -197614 -120014 -12404 18968.6 13679.5 -14587.9 -7.41393 
940 1 11.4821 7.14617 7.40328 6.00994 -203693 -114193 13089.1 13786.4 13863.8 -27455.2 -7.41525 
941 1 10.7514 5.93097 7.39832 6.00788 -185516 -131914 -9997.91 27659.7 7466.14 -15946.3 -7.41386 
942 1 11.4355 4.68905 7.39872 6.01611 -188167 -129867 9391.46 20358.4 10482.7 -25361.6 -7.41489 
943 1 10.7038 3.47448 7.39465 6.01375 -174066 -143247 -6291.96 32579.1 1770.28 -17130.9 -7.41392 
944 1 11.3881 2.23274 7.39597 6.01227 -172903 -145060 4675.76 23477.3 6725.35 -23111 -7.41455 
945 1 10.6555 1.01864 7.39288 6.01557 -163141 -154206 -1858.88 34313.5 -3258.96 -18304.1 -7.41407 
1092 1 13.6287 8.33785 7.41324 6.00227 -219793 -97726.9 20552.6 22241.4 16403.9 -32671.2 -7.41604 
1093 1 12.8994 7.12176 7.40777 6.0002 -199355 -118208 -16555.6 38558 8764.23 -18061.6 -7.41383 
1094 1 13.5836 5.87987 7.40817 6.00963 -202320 -115844 15846.2 30952.2 13609.7 -30934.6 -7.41561 
1095 1 12.8529 4.66456 7.40346 6.00847 -185291 -132404 -11683.1 45551 2815.57 -19886.1 -7.41394 
1096 1 13.5372 3.42286 7.40475 6.00814 -184652 -133781 9736.5 35834.9 10228.6 -28816.2 -7.41516 
1097 1 12.8055 2.20817 7.40094 6.01202 -171489 -146267 -5720.29 48891.3 -2626.86 -21537.1 -7.41415 
1098 1 13.4902 0.966769 7.40311 6.00329 -166891 -151503 2826.68 37351 6409.21 -26481.8 -7.41473 
1245 1 15.0459 8.31506 7.41769 5.99268 -214701 -102438 -24770.3 50212.4 9496.76 -19105 -7.41371 
1246 1 15.7303 7.07323 7.41804 6.0025 -217531 -99949.1 23968.5 42809.9 16359.4 -35325.9 -7.41646 
1247 1 15.0009 5.85705 7.413 6.00213 -198707 -119061 -18869.9 59673.3 3549.61 -21562.2 -7.41388 
1248 1 15.6854 4.61542 7.41418 6.00345 -198267 -120098 16651.1 49862.5 13579.4 -33561.1 -7.41592 
1249 1 14.9546 3.4 7.40995 6.00871 -182555 -135542 -11464.1 65075 -2104.62 -23736.3 -7.41416 
1250 1 15.6394 2.15866 7.412 5.99827 -178502 -140248 8105.26 53108.2 10215.7 -31370.3 -7.41537 
1251 1 14.9076 0.943867 7.40864 6.00625 -166276 -151852 -3202.34 66754.8 -7241.78 -25713.7 -7.41454 
1398 1 17.8757 8.26936 7.42759 5.9953 -232370 -83454.6 33303.8 54958.3 18552.5 -38185.4 -7.4174 
1399 1 17.1475 7.05223 7.42251 5.99559 -213148 -104257 -27578.2 73833.6 3873.04 -22066.4 -7.41372 
1400 1 17.8323 5.81071 7.42351 5.99789 -212511 -104959 25107.7 64561 16532.8 -36886.3 -7.41679 
1401 1 17.1026 4.59444 7.41914 6.0046 -195396 -122687 -18987.3 81761.7 -1794.68 -24700.3 -7.41407 
1402 1 17.7877 3.35321 7.42099 5.99406 -191586 -126889 15221.1 69951.8 13789.8 -35023.8 -7.41613 
1403 1 17.0568 2.13768 7.41743 6.00202 -177201 -141199 -9088.61 85471.5 -7072.74 -27050.8 -7.41453 
1404 1 17.7424 0.896867 7.42006 5.98805 -169868 -148980 4321.03 71428.7 10450.3 -32689.1 -7.41547 
1551 1 19.2928 8.2502 7.43131 5.98981 -227111 -89097.7 -37292.3 86999.7 3806.52 -21535.8 -7.41348 
1552 1 19.9779 7.00885 7.43205 5.99292 -226338 -89557 34582 78773.9 18930.3 -38640.2 -7.41771 
1553 1 19.2495 5.79167 7.42779 6.00002 -208782 -108794 -27905 97729.6 -1719.48 -24483.3 -7.41388 
1554 1 19.9348 4.5506 7.42936 5.98949 -205262 -112431 23777.5 86724 16914.6 -37190.4 -7.41698 
1555 1 19.205 3.33425 7.42586 5.99862 -189498 -128778 -16738.9 103932 -7006.11 -27118.4 -7.41442 
1556 1 19.8908 2.09357 7.42823 5.98365 -182944 -135762 11471.4 90337 14206.8 -35167.7 -7.4162 
1557 1 19.1598 0.877938 7.42548 5.99184 -169460 -148922 -4522.7 105718 -11785.4 -29470.8 -7.41506 
1704 1 22.1222 8.20982 7.43942 5.9873 -238171 -74859.3 44474.4 91553.6 20703.4 -38940.2 -7.41864 
1705 1 21.395 6.99173 7.43536 5.99522 -221601 -94793.1 -37637 111921 -1829.34 -23322.8 -7.41361 
1706 1 22.0807 5.75086 7.4366 5.9844 -217910 -97835.8 33214.2 102288 19458.8 -37895 -7.41786 
1707 1 21.352 4.53365 7.43332 5.99616 -202172 -115486 -25679.1 120930 -7022.4 -26107.5 -7.41419 
1708 1 22.0381 3.29314 7.43538 5.98044 -195999 -121666 20001.3 108384 17440.8 -36250.7 -7.417 
1709 1 21.3081 2.07672 7.43285 5.98798 -181668 -136592 -12179.5 125130 -11808.2 -28599.6 -7.4149 
1710 1 21.9948 0.836672 7.43561 5.9739 -172633 -145888 5557.56 110011 14731.4 -34055.4 -7.41612 
1857 1 23.5393 8.19452 7.44162 5.99078 -232452 -81775.9 -47568.5 123680 -2039.09 -21524 -7.41329 
1858 1 24.2253 6.95389 7.44249 5.98031 -229070 -84320.9 42945.1 115758 21369.2 -37354.3 -7.41873 
1859 1 23.4979 5.73583 7.43946 5.99294 -213808 -102528 -35304 135480 -7069.08 -24321.4 -7.4139 
1860 1 24.1843 4.49553 7.44119 5.97667 -208278 -107760 29334.3 124583 20053.8 -36080.1 -7.41783 
1861 1 23.4553 3.2783 7.43897 5.98522 -193720 -123784 -21055 142417 -11810.6 -26844.6 -7.41465 
1862 1 24.1423 2.03842 7.44145 5.97092 -185756 -131924 14028.4 128649 17997.4 -34251 -7.41687 
1863 1 23.4121 0.821936 7.43992 5.97758 -172321 -145381 -5589 144374 -15986.7 -29101.7 -7.41551 
2010 1 26.3688 8.15951 7.44706 5.97721 -237498 -72418.6 52477.6 126685 22660.3 -35867.4 -7.41956 
2011 1 25.6425 6.94063 7.44423 5.98953 -223840 -90591.7 -45030.4 147171 -7091.48 -22070.3 -7.41355 
2012 1 26.3293 5.70058 7.44561 5.97275 -218698 -94976.9 38909.5 138227 22024.3 -34909.1 -7.41864 
2013 1 25.6015 4.48255 7.44367 5.98351 -204877 -111461 -30545.8 156869 -11751.6 -24529 -7.41432 
2014 1 26.2887 3.24287 7.44588 5.9691 -197809 -118444 23271.6 144918 20611.6 -33436.6 -7.41763 
2015 1 25.5596 2.02563 7.44471 5.97479 -184419 -132773 -14388.2 161444 -15939.8 -26744.2 -7.41521 
2016 1 26.2475 0.786408 7.44753 5.96267 -175000 -142348 6292.69 146788 18461.2 -31483.1 -7.41659 
2163 1 27.7859 8.14782 7.4478 5.98698 -231209 -80392.8 -54407.7 155747 -7046.41 -19608.3 -7.41319 
2164 1 28.4733 6.90806 7.44884 5.96989 -226781 -83917.4 48277.5 148978 23385.8 -33014.6 -7.41941 
2165 1 27.7465 5.68928 7.44705 5.98172 -214092 -100278 -40112.6 168101 -11597.1 -21933.4 -7.41395 
2166 1 28.4341 4.44983 7.44899 5.96626 -207996 -106045 32753.2 158340 22585.7 -31853.4 -7.41839 
2167 1 27.7059 3.23184 7.4481 5.97309 -195247 -120791 -23781.3 175457 -15785.8 -24046.1 -7.41485 
2168 1 28.3941 1.9928 7.45075 5.96112 -187182 -128995 15492.3 162779 21036.7 -30252.5 -7.4173 
2169 1 27.6648 0.775523 7.45054 5.9653 -174724 -141661 -6170.19 177572 -19353.8 -25948.3 -7.41586 
2316 1 30.6162 8.11769 7.4512 5.968 -232102 -75029 57136.1 156798 24206 -30644.4 -7.42014 
2317 1 29.8904 6.89823 7.44941 5.97925 -221039 -90936.6 -49355.7 176192 -11329.3 -19261.8 -7.41356 
2318 1 30.5785 5.65905 7.45109 5.96363 -215977 -95605.2 42057.6 168723 23974.8 -29733.2 -7.41911 
2319 1 29.8513 4.44036 7.4503 5.97227 -204238 -110206 -33272.7 186152 -15502.6 -21233.8 -7.41444 
2320 1 30.5398 3.20152 7.45277 5.9595 -197515 -116965 24949.8 175796 22991.4 -28443.7 -7.41801 
2321 1 29.8114 1.98356 7.45281 5.96372 -185683 -129899 -15521.9 190984 -19147.8 -23021.2 -7.41545 
2322 1 30.5005 0.745133 7.4558 5.95398 -176857 -138830 6517.86 177938 21264.3 -26804.4 -7.41687 
2469 1 32.0333 8.10913 7.45112 5.97761 -225292 -83682.7 -58030 181216 -10943.5 -16645.9 -7.41319 
2470 1 32.722 6.87024 7.45256 5.96193 -221116 -87187.6 50915.5 176153 24856.7 -27271 -7.4198 
2471 1 31.9956 5.65093 7.45167 5.97213 -210927 -101323 -42502 193702 -15080.9 -18454.6 -7.41403 
2472 1 32.6846 4.41231 7.45396 5.95844 -205435 -106757 34283 185752 24395.8 -26239.5 -7.4187 
2473 1 31.957 3.19371 7.45405 5.96302 -194716 -119619 -25017.2 201195 -18795.7 -20108.9 -7.41501 
2474 1 32.6464 1.95545 7.45694 5.95251 -187476 -127013 15997.7 190494 23204.8 -24908.7 -7.41754 
2475 1 31.9178 0.737483 7.45778 5.95566 -176553 -138154 -6288.69 203480 -21860 -21605.6 -7.4161 
2622 1 34.8646 8.08312 7.45381 5.96106 -223504 -81080.3 59183.9 180729 25312.4 -24617.3 -7.42043 
2623 1 34.1391 6.86326 7.45265 5.97075 -214910 -94593.8 -51248.6 198284 -14521.6 -15793.5 -7.41363 
2624 1 34.8284 5.6249 7.45475 5.9569 -210762 -98692 43245.4 192792 25330.8 -23788.9 -7.41935 
2625 1 34.1017 4.40573 7.45467 5.96297 -201318 -111132 -34327 208292 -18288.6 -17305.4 -7.41457 
2626 1 34.7914 3.16765 7.45743 5.95184 -195681 -117020 25414.6 200063 24633.1 -22718.2 -7.4182 
2627 1 34.0636 1.9491 7.45825 5.95507 -185799 -128029 -15833.6 213220 -21493.6 -18682.3 -7.41563 
2628 1 34.7538 0.711372 7.46135 5.94694 -178152 -135674 6358.66 202466 23209.3 -21430.1 -7.41702 
2775 1 36.2817 8.0771 7.45361 5.96996 -216264 -90097.8 -59403.7 200154 -13833.7 -13296.2 -7.41325 
2776 1 36.9716 6.83902 7.45553 5.95613 -213314 -92897.7 51705.7 197075 25875 -21205.8 -7.41997 
2777 1 36.2456 5.61934 7.45509 5.96337 -205383 -104714 -43244.9 212528 -17627.7 -14658.1 -7.41413 
2778 1 36.9356 4.38148 7.45769 5.95157 -201263 -109122 34542.6 206792 25628.6 -20346.1 -7.41884 
2779 1 36.2086 3.1624 7.45826 5.9551 -192651 -119815 -25269.6 220040 -20959.6 -15912.5 -7.41515 
2780 1 36.899 1.92482 7.46126 5.94635 -186819 -125915 15867.8 211715 24680.2 -19312.7 -7.41766 
2781 1 36.171 0.706289 7.46265 5.94854 -177785 -135135 -6138.81 222464 -23634 -17051.1 -7.41627 
2927 1 38.4237 9.29216 7.45487 5.96983 -214794 -87665.2 -66937.4 199567 -13029.8 -10984.4 -7.4129 
2928 1 39.1141 8.05438 7.45662 5.95604 -212971 -89264.4 59615.8 198773 26095.5 -18571.3 -7.42056 
2929 1 38.3887 6.83429 7.45568 5.96402 -206731 -100439 -51664.4 214165 -16819.5 -12188.7 -7.41372 
2930 1 39.0792 5.59666 7.4581 5.95146 -204028 -103464 43259.4 210842 26262.9 -17878.9 -7.41945 
2931 1 38.3528 4.37714 7.45824 5.95557 -196878 -113636 -34403.5 224084 -20256.6 -13316.3 -7.41468 
2932 1 39.0435 3.13972 7.46108 5.94634 -192772 -118137 25173.1 218261 25748.9 -17055.9 -7.41828 
2933 1 38.3162 1.92072 7.46216 5.94863 -184986 -127018 -15695.8 229097 -23117.9 -14349.1 -7.41576 
2934 1 39.0072 0.683557 7.46513 5.94227 -178989 -133053 5986.47 220882 24532.2 -16120.4 -7.41709 
3080 1 41.2561 9.27073 7.45823 5.9566 -209962 -87966.6 66973.3 198127 26045 -15937 -7.4211 
3081 1 40.5313 8.05032 7.45673 5.96397 -205380 -98400.4 -59546.7 213383 -15875 -9905.99 -7.41334 
3082 1 41.2222 6.81294 7.45896 5.95159 -204100 -100018 51513.4 212430 26595 -15377.2 -7.42003 
3083 1 40.4964 5.59306 7.45853 5.95631 -198356 -109540 -43128.4 225595 -19388.7 -10900.2 -7.41423 
3084 1 41.1874 4.35582 7.46118 5.94623 -195974 -112545 34159.3 222194 26479.1 -14725.6 -7.41888 
3085 1 40.4607 3.13642 7.46175 5.94913 -189541 -121019 -25035.9 233097 -22420.7 -11823.7 -7.41525 
3086 1 41.1519 1.89938 7.46456 5.94223 -185406 -125466 15434.9 227313 25686.7 -13992.1 -7.4177 
3087 1 40.4245 0.68041 7.46599 5.94357 -178519 -132633 -5884.92 235717 -24802.3 -12665.2 -7.41638 
3233 1 42.6733 9.26717 7.45836 5.96451 -201435 -98348.5 -66892.8 210418 -14808.2 -7811.32 -7.41298 
3234 1 43.3648 8.03006 7.46043 5.95195 -201394 -98760.5 59292.1 211638 26670.2 -12877.2 -7.42059 
3235 1 42.6394 6.8099 7.45937 5.95729 -197294 -107703 -51396.5 224773 -18364.3 -8664.13 -7.41381 
3236 1 43.3308 5.57286 7.46181 5.94638 -196374 -109268 42768.5 223721 26922.9 -12366 -7.41947 
3237 1 42.6046 4.35315 7.46175 5.94989 -191418 -117195 -34054.5 234623 -21544.4 -9471.8 -7.41477 
3238 1 43.2961 3.11624 7.46435 5.94234 -189121 -120030 24655.6 231285 26519.6 -11800.2 -7.4183 
3239 1 42.5691 1.89693 7.46523 5.94406 -183469 -126767 -15378.7 239766 -24149 -10216.7 -7.41585 
3240 1 43.2609 0.660201 7.46773 5.93946 -179364 -130989 5552.42 234165 25434.4 -11190.5 -7.41711 
3387 1 44.782 8.02742 7.46087 5.95783 -193521 -107847 -59196 221755 -17194.4 -6605.5 -7.41342 
3389 1 44.7481 5.57066 7.46237 5.95086 -190488 -115365 -42698.1 233853 -20493.8 -7289.75 -7.41431 
3391 1 44.7133 3.11434 7.46494 5.9448 -185761 -123091 -24638.3 241428 -23306.8 -7931.21 -7.41533 
3393 1 44.6781 0.658429 7.46829 5.94034 -178817 -130817 -5602.54 244252 -25482.8 -8518.91 -7.41645 
3386 1 45.5071 9.24779 7.46256 5.95255 -196001 -99560.6 66602.4 208687 26519.8 -10395.4 -7.42111 
3388 1 45.4739 6.79062 7.46311 5.94668 -194006 -108021 50980 222963 27118.5 -10002.3 -7.42003 
3390 1 45.4399 4.33392 7.46473 5.9424 -189938 -116746 33589.3 232822 27076.5 -9576.63 -7.41888 
3392 1 45.4052 1.8777 7.46722 5.93971 -183483 -125761 14938.4 238184 26375.8 -9124.83 -7.4177 
3539 1 46.9244 9.24539 7.46306 5.95856 -187274 -110046 -66528.8 216667 -15893.4 -4718.36 -7.41306 
3540 1 47.6167 8.00884 7.46511 5.94722 -189118 -108956 58783.7 219991 27093.4 -7641.72 -7.42058 
3541 1 46.8911 6.78873 7.4637 5.95141 -187026 -115774 -50940.8 230912 -19277.3 -5271.69 -7.41389 
3542 1 47.5833 5.55216 7.46582 5.94263 -188065 -115725 42201.6 232145 27391.3 -7336.46 -7.41945 
3543 1 46.8571 4.33239 7.46532 5.94573 -185257 -121592 -33606.9 240814 -22277.4 -5801.86 -7.41484 
3544 1 47.5492 3.09587 7.46734 5.93969 -184912 -122696 24128.1 239920 27048.6 -7019.06 -7.41829 
3545 1 46.8224 1.87638 7.46772 5.94101 -181438 -127297 -15022.7 246095 -24709.3 -6294.49 -7.41591 
3546 1 47.5146 0.639944 7.46948 5.9381 -179241 -129642 5144.41 243061 26038.1 -6694.49 -7.41711 
3692 1 49.7593 9.2273 7.46775 5.94799 -181435 -111848 66175.8 214926 26866 -5280.24 -7.4211 
3693 1 49.034 8.00711 7.46573 5.95214 -181099 -118178 -58772.3 225903 -17905.3 -3410.54 -7.41348 
3694 1 49.7266 6.77075 7.46764 5.94308 -183390 -116750 50472.7 229315 27488.5 -5081.28 -7.42001 
3695 1 49.0006 5.55086 7.46643 5.94625 -182084 -122093 -42250.1 238053 -21064.4 -3822.29 -7.41438 
3696 1 49.6929 4.31448 7.46821 5.93979 -183391 -121773 33080.3 239382 27483.6 -4880.69 -7.41886 
3697 1 48.9664 3.09484 7.46784 5.94187 -181457 -126029 -24240 245736 -23739.8 -4211.5 -7.41539 
3698 1 49.6587 1.85848 7.46935 5.93819 -181056 -126873 14499.7 244982 26830 -4681.53 -7.41769 
3699 1 48.9318 0.639042 7.46981 5.93851 -178624 -129837 -5313.32 248790 -25790.8 -4568.5 -7.41649 
3845 1 51.1767 9.22558 7.46839 5.95305 -172521 -122453 -66185.6 218863 -16390.4 -1697.79 -7.41311 
3846 1 51.8697 7.98945 7.47012 5.94373 -176196 -119755 58385.8 224325 27384.4 -2802.64 -7.42056 
3847 1 51.1439 6.76952 7.46827 5.94693 -176259 -124714 -50544.4 233203 -19673.4 -1984.03 -7.41394 
3848 1 51.8366 5.5333 7.46982 5.94011 -179148 -122962 41763.9 236729 27703.3 -2706.56 -7.41943 
3849 1 51.1102 4.3136 7.46873 5.94233 -178567 -126825 -33214.5 243243 -22572.7 -2262.07 -7.41489 
3850 1 51.8027 3.07734 7.46998 5.93813 -180111 -126184 23707.3 244733 27387.4 -2617.86 -7.41827 
3851 1 51.076 1.8578 7.46968 5.93925 -178928 -128783 -14687.2 248723 -24910.7 -2519.98 -7.41595 
3852 1 51.7684 0.621542 7.47055 5.93782 -178713 -129371 4791.72 248133 26409.5 -2538.58 -7.41711 
3998 1 54.0129 9.20805 7.47312 5.94467 -166370 -124841 65918.3 217265 27089.2 -486.295 -7.42109 
3999 1 53.2871 7.98816 7.47075 5.94781 -168094 -129450 -58470.2 226299 -18112.2 -278.625 -7.41352 
4000 1 53.9802 6.75212 7.47211 5.94067 -172286 -126301 50150.4 231956 27723 -485.854 -7.41999 
4001 1 53.2539 5.53243 7.47036 5.94292 -173075 -129734 -41913.2 238615 -21207.5 -437.842 -7.41441 
4002 1 53.9466 4.29628 7.47138 5.93831 -176296 -127621 32728.1 242310 27731.2 -496.796 -7.41885 
4003 1 53.22 3.07673 7.47034 5.93961 -176561 -129874 -23906.8 246515 -23822.3 -587.928 -7.41542 
4004 1 53.9125 1.84052 7.47095 5.93746 -178118 -128957 14156.8 248177 27091 -521.137 -7.41768 
4005 1 53.1857 0.621051 7.47069 5.93783 -178010 -129986 -5022.16 249846 -25818.6 -720.639 -7.41652 
4151 1 55.4304 9.20655 7.47368 5.94891 -157323 -136006 -66005.4 217319 -16389.9 1299.41 -7.41314 
4152 1 56.1239 7.97072 7.47492 5.94147 -162709 -131578 58208.2 224979 27552.2 1796.48 -7.42054 
4153 1 55.3976 6.7511 7.47262 5.94372 -165047 -134759 -50304.9 231889 -19645.3 1268.91 -7.41396 
4154 1 56.0906 5.5151 7.47345 5.93873 -169673 -131196 41523.9 237746 27876.5 1693.62 -7.41942 
4155 1 55.3639 4.2956 7.47175 5.9401 -171394 -133153 -32933.7 242196 -22518.5 1236.36 -7.41491 
4156 1 56.0567 3.05948 7.47213 5.93716 -174852 -130742 23424.6 246068 27560.5 1574.89 -7.41825 
4157 1 55.3298 1.84003 7.47111 5.93809 -175944 -131377 -14391.4 247946 -24831.7 1212.23 -7.41597 
4158 1 56.0223 0.603833 7.47103 5.93721 -177644 -130161 4494.23 249784 26578.2 1437.07 -7.41709 
4304 1 58.2678 9.18888 7.478 5.94259 -150792 -138953 65891.6 215907 27193.3 4158.42 -7.42107 
4305 1 57.5414 7.96941 7.47534 5.94476 -154489 -141849 -58354.9 223039 -17888.7 2861.02 -7.41353 
4306 1 58.2348 6.73357 7.47604 5.93909 -160542 -136877 50052.3 230996 27831.3 3967.84 -7.41998 
4307 1 57.508 5.5142 7.47379 5.94079 -163506 -138498 -41727.8 235660 -20992.8 2958.23 -7.41442 
4308 1 58.2009 4.27818 7.47398 5.93707 -168656 -134574 32550.8 241735 27831.5 3761.64 -7.41883 
4309 1 57.474 3.05884 7.47229 5.93845 -171230 -134953 -23657.2 243880 -23615.2 3054.91 -7.41543 
4310 1 58.1666 1.82268 7.47197 5.93676 -174680 -132212 13910.6 247967 27171.6 3533.92 -7.41766 
4311 1 57.4396 0.603308 7.47097 5.93776 -176873 -131242 -4727.94 247502 -25615.7 3158.6 -7.41653 
4457 1 59.6854 9.18712 7.47823 5.94609 -141713 -150959 -66014.7 212028 -15943 4333.28 -7.41313 
4458 1 60.3792 7.95148 7.47889 5.9397 -148855 -144630 58252.1 222010 27598.1 6343.51 -7.42053 
4459 1 59.6522 6.7323 7.47627 5.94174 -153262 -146049 -50240.5 226967 -19239.8 4576.62 -7.41396 
4460 1 60.3455 5.49641 7.47633 5.93724 -159808 -140626 41479.6 235216 27912.3 6052.59 -7.4194 
4461 1 59.6183 4.27725 7.4741 5.93902 -163720 -140749 -32773.3 237632 -22154.8 4810 -7.41492 
4462 1 60.3111 3.04115 7.47358 5.93653 -169090 -136463 23274.4 243958 27566.5 5740.74 -7.41823 
4463 1 59.5839 1.82193 7.47191 5.93779 -172451 -135158 -14134.5 243705 -24503 5042.45 -7.41598 
4464 1 60.2764 0.585678 7.47087 5.93757 -176076 -132083 4244.59 248023 26537.2 5400.05 -7.41706 
4610 1 62.524 9.16861 7.48164 5.94071 -134815 -154360 66035.2 210838 27170.4 8842.45 -7.42105 
4611 1 61.7968 7.94969 7.47889 5.94299 -140563 -155620 -58407.7 216072 -17256.1 6080.91 -7.41352 
4612 1 62.4903 6.71395 7.4789 5.93774 -148408 -148745 50137.3 226423 27803.8 8464.13 -7.41996 
4613 1 61.7629 5.49503 7.47631 5.93984 -153586 -148610 -41680.5 229100 -20435.8 6470.98 -7.41442 
4614 1 62.4559 4.25902 7.47566 5.93656 -160538 -142774 32522.2 237644 27769.8 8069.86 -7.41881 
4615 1 61.7284 3.04003 7.47345 5.93806 -165415 -141244 -23480.4 237679 -23127.8 6852.01 -7.41543 
4616 1 62.4209 1.8038 7.47222 5.93719 -170736 -136608 13746.3 244282 27048.8 7646.9 -7.41763 
4617 1 61.6936 0.584668 7.47059 5.93776 -175266 -133703 -4421.89 241660 -25185.1 7229.21 -7.41654 
4763 1 63.9416 9.16615 7.48126 5.94463 -125774 -167253 -66129.7 202934 -15044.1 7449.11 -7.41311 
4764 1 64.6356 7.93059 7.4813 5.93867 -134794 -158919 58409.2 215340 27500.3 11018.1 -7.4205 
4765 1 63.9078 6.71198 7.47861 5.941 -141110 -158647 -50295.1 218293 -18445.8 8020.65 -7.41394 
4766 1 64.6011 5.47608 7.47791 5.93695 -149549 -151209 41561.1 229066 27782.9 10537 -7.41937 
4767 1 63.8733 4.25739 7.47536 5.93873 -155531 -149505 -32697.3 229379 -21466.3 8574.85 -7.4149 
4768 1 64.5659 3.0212 7.47399 5.9371 -162872 -143307 23217.9 238235 27367.2 10031.9 -7.4182 
4769 1 63.8382 1.80235 7.47184 5.93788 -168449 -140093 -13896.6 235820 -23907.1 9116.86 -7.41597 
4770 1 64.5304 0.565921 7.46993 5.93909 -174031 -135130 4029.9 242703 26235.6 9486.65 -7.41702 
4916 1 66.7813 9.14613 7.48309 5.94014 -118902 -170964 66128.2 201983 26989.3 13740.8 -7.42101 
4917 1 66.0532 7.92786 7.48058 5.94258 -126552 -170691 -58492.6 205240 -16176.4 9430.23 -7.41349 
4918 1 66.7467 6.69211 7.47991 5.93782 -136174 -161786 50252.4 218076 27599.9 13162.8 -7.41992 
4919 1 66.0186 5.47377 7.47729 5.93987 -143360 -159918 -41683.3 218658 -19495.3 10185.7 -7.41439 
4920 1 66.7114 4.23765 7.47586 5.9374 -152177 -152048 32548.7 229794 27493.9 12570.1 -7.41876 
4921 1 65.9833 3.01914 7.4734 5.93842 -159187 -148671 -23326.7 227651 -22319 10921.6 -7.41541 
4922 1 66.6755 1.78272 7.47136 5.93891 -166502 -142111 13621.9 236847 26656.5 11941.4 -7.41758 
4923 1 65.9477 0.563966 7.46933 5.93889 -173170 -137165 -4088.61 231938 -24489 11635.2 -7.41653 
5069 1 68.1991 9.14248 7.48176 5.94468 -109954 -184567 -66086.6 189785 -13627.1 10659.4 -7.41307 
5070 1 68.893 7.9069 7.48122 5.93928 -120775 -174072 58393.6 204675 27212 15973 -7.42044 
5071 1 68.1644 6.68895 7.47881 5.94162 -128893 -172244 -50283.8 205546 -17195 11648.3 -7.4139 
5072 1 68.8574 5.45294 7.47742 5.93822 -139177 -162745 41574.3 218868 27425.6 15281.4 -7.41931 
5073 1 68.1288 4.23483 7.47492 5.9395 -147165 -159296 -32592.9 217008 -20386.1 12610.1 -7.41487 
5074 1 68.8211 2.99844 7.47281 5.93916 -156398 -151082 23146.2 228492 26885.3 14562.5 -7.41813 
5075 1 68.0928 1.78008 7.47051 5.93933 -164155 -145936 -13630.4 223799 -22982.3 13541.2 -7.41595 
5076 1 68.7846 0.54336 7.46791 5.94208 -171615 -139046 3819.71 233314 25582 13791.5 -7.41694 
5222 1 71.0398 9.12024 7.48137 5.94147 -103795 -188205 65706.2 188874 26612.2 18985.7 -7.4209 
5223 1 70.3107 7.90273 7.47946 5.94381 -112726 -186497 -58274.7 190012 -14553 12914.2 -7.41344 
5224 1 71.004 6.66685 7.4782 5.93971 -124288 -175379 50052.8 205392 27158.2 18186 -7.41983 
5225 1 70.2749 5.44919 7.47594 5.94126 -133081 -171941 -41511.2 203788 -18075.7 14135.8 -7.41434 
5226 1 70.9674 4.21285 7.47387 5.93998 -143895 -161988 32408.8 217536 26922.3 17366 -7.41867 
5227 1 70.2385 2.99494 7.47157 5.94037 -152727 -156818 -23079.1 213112 -21098.8 15319.6 -7.41537 
5228 1 70.9303 1.7582 7.46891 5.94231 -162027 -148235 13435.8 224984 25897.2 16501 -7.41749 
5229 1 70.2019 0.539948 7.46688 5.94156 -170683 -141290 -3714.58 217714 -23447.2 16448.2 -7.4165 
5375 1 72.4577 9.11489 7.47882 5.94662 -95052 -202174 -65351 172038 -11566 13924.9 -7.41303 
5376 1 73.1513 7.87917 7.47777 5.94199 -107697 -189429 57664.6 189325 26692.9 21292 -7.42028 
5377 1 72.4217 6.66198 7.47602 5.94379 -117181 -186249 -49815 188036 -15362.1 15441.3 -7.41385 
5378 1 73.1143 5.42573 7.47408 5.94152 -129346 -174568 41133.3 203898 26769.8 20363.9 -7.41917 
5379 1 72.3849 4.20831 7.47205 5.94215 -138981 -169550 -32220.7 199792 -18792 16913 -7.41481 
5380 1 73.0767 2.97159 7.46943 5.94317 -150111 -159283 22839.2 213898 26026.5 19394.9 -7.41801 
5381 1 72.3476 1.75383 7.46743 5.94259 -159704 -152331 -13251.3 206878 -21614.9 18320.8 -7.4159 
5382 1 73.0387 0.516679 7.46441 5.94692 -168998 -143519 3559.96 219056 24465.5 18357.4 -7.41683 
5528 1 75.2992 9.08969 7.47584 5.94525 -90326.3 -204922 64017 170860 26048.4 24569 -7.42064 
5529 1 74.5691 7.87301 7.47478 5.94704 -99943.5 -202099 -57150.1 169783 -12229.8 16457.3 -7.4134 
5530 1 75.262 6.63686 7.47305 5.94398 -113474 -188700 48954.6 187560 26439.3 23543.8 -7.41961 
5531 1 74.532 5.41997 7.47152 5.9448 -123430 -183946 -40746.4 183716 -16022.2 18250.9 -7.41429 
5532 1 75.2238 4.18328 7.46902 5.94483 -136116 -171830 31717.7 200002 25979.3 22468.8 -7.41849 
5533 1 74.4941 2.96607 7.46732 5.94441 -146485 -165099 -22524.3 193286 -19315.8 19973.8 -7.41531 
5534 1 75.1852 1.72887 7.46433 5.94786 -157557 -154556 13020.1 207750 24669.1 21325.3 -7.41732 
5535 1 74.456 0.511235 7.46277 5.94622 -168011 -145860 -3297.08 198190 -21918 21586.4 -7.41642 
5681 1 76.7172 9.08206 7.47203 5.94997 -82112.6 -219045 -63088.3 149158 -8675.01 17101.3 -7.41302 
5682 1 77.4104 7.84605 7.47053 5.94747 -96751.1 -203861 55435.6 168638 25960 26843.7 -7.41996 
5683 1 76.6798 6.62969 7.46967 5.94762 -106759 -199674 -48252.9 165091 -12760.6 19250 -7.41381 
5684 1 77.3718 5.39306 7.46734 5.94748 -120879 -185761 39663.5 183275 25775.9 25681.1 -7.4189 
5685 1 76.6414 4.17642 7.46614 5.94724 -131453 -179499 -31184.8 176914 -16496.2 21318.7 -7.41475 
5686 1 77.3325 2.93921 7.46324 5.94968 -144375 -167209 21974.5 193458 24710.1 24435.3 -7.41778 
5687 1 76.6026 1.72216 7.462 5.94818 -155335 -158790 -12626.3 184207 -19619.2 23269.1 -7.4158 
5688 1 77.2928 0.484443 7.45885 5.95408 -166207 -148217 3202.02 198869 22777.4 23085.3 -7.41663 
5834 1 79.5594 9.0531 7.46652 5.95216 -80160.1 -219556 60108.3 147389 25385.7 30124.2 -7.42017 
5835 1 78.8283 7.83728 7.46634 5.95082 -89494.2 -216215 -54264 144063 -8997.15 19812.6 -7.4134 
5836 1 79.5205 6.60073 7.4642 5.95128 -105011 -200486 46200.7 163845 25454.3 28926.4 -7.41921 
5837 1 78.7895 5.38466 7.46363 5.94964 -115325 -194935 -38779.5 157811 -13117.5 22253.5 -7.41423 
5838 1 79.4806 4.14746 7.46085 5.95257 -129718 -180762 29978.9 176234 24614.8 27606.1 -7.41815 
5839 1 78.75 2.93103 7.46011 5.95053 -140954 -172958 -21347.4 167388 -16747.5 24567.9 -7.41521 
5840 1 79.4401 1.69325 7.457 5.95609 -153470 -160700 12184.9 184059 22878.5 26161.2 -7.41705 
5841 1 78.7101 0.476326 7.45638 5.95343 -165254 -150639 -2837.22 172439 -19681.8 26693.8 -7.41628 
5987 1 80.9775 9.04256 7.46166 5.95514 -72706.9 -233009 -58281.1 120991 -4743.22 19830 -7.41308 
5989 1 80.9383 6.59061 7.45969 5.95316 -98894.6 -210945 -44792.6 136361 -9166.59 22660.5 -7.41379 
5991 1 80.8982 4.13762 7.45685 5.95322 -125440 -188072 -28967.1 147863 -13260.3 25352.8 -7.41466 
5993 1 80.8575 1.68353 7.45364 5.95538 -151392 -164733 -11575 155124 -16750.3 27851.1 -7.41564 
5988 1 81.6699 7.80611 7.45967 5.95637 -89665.4 -215369 50828 142071 25074.4 32011.7 -7.41938 
5990 1 81.6295 5.35344 7.45702 5.95672 -114934 -194907 36517.5 156271 24427.3 30676.8 -7.41842 
5992 1 81.5883 2.89979 7.45378 5.95926 -139806 -174010 20207.3 166259 22859.4 29174.3 -7.41738 
5994 1 81.5467 0.445111 7.4505 5.964 -163359 -152871 2746.44 171666 20401.4 27500.7 -7.41633 
6140 1 83.8199 9.00909 7.45403 5.96284 -75699.3 -229639 53093.8 118455 24707.9 34661.8 -7.41939 
6141 1 83.0879 7.7941 7.45449 5.95792 -83233.6 -226697 -48705.9 113024 -4665.32 22417.8 -7.41345 
6142 1 83.7792 6.55698 7.45188 5.96221 -100669 -208772 41070.8 133999 24204.8 33398.4 -7.41854 
6143 1 83.0473 5.34174 7.4522 5.95712 -110025 -203351 -34936.4 126068 -9150.1 25484.2 -7.41418 
6144 1 83.7374 4.10389 7.44915 5.96373 -125832 -187452 26724.2 145770 22762.5 31903.2 -7.4176 
6145 1 83.0059 2.88828 7.4495 5.95842 -136801 -179387 -19184.8 135219 -13165.2 28351.1 -7.41505 
6146 1 83.6949 1.64977 7.4463 5.96741 -150305 -165857 10781.4 153287 20413.7 30195.8 -7.41661 
6147 1 82.9641 0.433647 7.44691 5.96182 -162516 -155122 -2324.76 140163 -16506.6 30943 -7.41602 
6293 1 85.238 8.99504 7.44845 5.964 -69190.1 -241257 -50083.2 88518.3 318.274 21423.7 -7.41322 
6294 1 85.9295 7.75798 7.44577 5.9691 -88471.4 -221449 43196.9 110099 24011 35457.8 -7.4185 
6295 1 85.1971 6.54327 7.44641 5.96233 -95393.7 -217881 -38735.5 102640 -4461.88 24832.4 -7.41381 