ITEM: TIMESTEP
0
ITEM: NUMBER OF ATOMS
15608
ITEM: BOX BOUNDS pp pp pp
0.0000000000000000e+00 1.0848182700000000e+02
0.0000000000000000e+00 1.8789603600000001e+02
0.0000000000000000e+00 1.8399999999999999e+01
ITEM: ATOMS id type x y z c_csym c_2[1] c_2[2] c_2[3] c_2[4] c_2[5] c_2[6] c_3 
173 1 0.806246 8.58742 7.5 6.03193 -145035 -132219 -153295 -445.87 15236.6 -2530.9 -7.41079 
174 1 0.0834048 7.36753 7.5 6.03192 -134409 -141846 -152774 155.828 15564.1 -516.166 -7.41083 
175 1 0.778445 6.13158 7.5 6.03193 -142144 -133379 -155451 -446.264 10872.5 -2165.74 -7.41069 
176 1 0.0556032 4.91169 7.5 6.03192 -134769 -140118 -155868 105.569 9856.76 -375.955 -7.41068 
177 1 0.750643 3.67574 7.5 6.03193 -139680 -134681 -157040 -447.282 6553.12 -1803.26 -7.41062 
178 1 0.0278016 2.45584 7.5 6.03192 -135612 -138439 -157562 53.6238 4706.31 -204.09 -7.41059 
179 1 0.722842 1.2199 7.5 6.03191 -137662 -136121 -157918 -447.781 2191.13 -1464.64 -7.41058 
180 1 0 0 7.5 6.03191 -136946 -136939 -158079 53.5125 0.0297236 0.0673414 -7.41057 
327 1 2.22413 8.57137 7.5 6.03194 -134416 -142860 -150537 2017.73 18347.6 -3951.22 -7.41094 
328 1 2.91917 7.33543 7.5 6.03194 -143520 -133120 -153420 -1308.19 13187.7 -7219.88 -7.41079 
329 1 2.19633 6.11553 7.5 6.03194 -134535 -141118 -154336 1840.51 12344.6 -3947.38 -7.41075 
330 1 2.89137 4.87958 7.5 6.03194 -140854 -134350 -155455 -1467.02 8810.67 -6512.09 -7.41069 
331 1 2.16852 3.65969 7.5 6.03194 -135137 -139407 -156624 1647.81 6923.38 -3943.36 -7.41064 
332 1 2.86356 2.42374 7.5 6.03192 -138622 -135726 -156845 -1628.6 4432.26 -5850.93 -7.41063 
333 1 2.14072 1.20384 7.5 6.03192 -136234 -137864 -157627 1498.74 2012.94 -3949.25 -7.41059 
480 1 5.05989 8.53927 7.5 6.03194 -145012 -133250 -149850 -1991.87 15845.9 -12687 -7.41097 
481 1 4.33705 7.31937 7.5 6.03194 -134596 -142480 -152175 3701.58 14880.1 -7482.23 -7.41085 
482 1 5.03209 6.08343 7.5 6.03194 -142173 -134401 -152457 -2306.96 11406.5 -11647.1 -7.41084 
483 1 4.30925 4.86353 7.5 6.03194 -134958 -140742 -154981 3380.19 9143.98 -7628.13 -7.41071 
484 1 5.00429 3.62758 7.5 6.03194 -139752 -135698 -154483 -2630.21 6967.76 -10653 -7.41074 
485 1 4.28145 2.40769 7.5 6.03192 -135789 -139061 -156386 3035 3955.35 -7810.1 -7.41065 
486 1 4.97649 1.17174 7.5 6.03192 -137795 -137233 -155776 -3008.56 2458.78 -9752.48 -7.41068 
633 1 6.47777 8.52322 7.5 6.03194 -134857 -144191 -149527 5666.47 17470 -11022.8 -7.41098 
634 1 7.17281 7.28727 7.5 6.03194 -143605 -134833 -147823 -2950.71 14327.5 -17235.5 -7.41108 
635 1 6.44997 6.06738 7.5 6.03194 -134988 -142437 -152777 5233.6 11413.9 -11333.3 -7.41082 
636 1 7.14501 4.83143 7.5 6.03194 -141021 -136051 -150604 -3436.8 9826.88 -15935.7 -7.41094 
637 1 6.42217 3.61153 7.5 6.03194 -135584 -140714 -154510 4755.55 5902.1 -11682.9 -7.41073 
638 1 7.11721 2.37559 7.5 6.03192 -138856 -137424 -152720 -3929.64 5267.02 -14719.4 -7.41083 
639 1 6.39437 1.15569 7.5 6.03192 -136657 -139161 -154946 4299.26 878.364 -12103.3 -7.41072 
787 1 8.59069 7.27122 7.5 6.03194 -135216 -144460 -150146 7183.4 13730.1 -15056.3 -7.41093 
789 1 8.56289 4.81538 7.5 6.03194 -135585 -142716 -152136 6590.32 7890.71 -15597.7 -7.41084 
791 1 8.53509 2.35954 7.5 6.03192 -136396 -141028 -152709 5944.36 2549.59 -16201.3 -7.41082 
786 1 9.31353 8.49112 7.5 6.03194 -145115 -135639 -141357 -3385.07 17500 -23212.3 -7.41141 
788 1 9.28573 6.03527 7.5 6.03194 -142404 -136770 -144995 -4029.8 12983 -21676.4 -7.41123 
790 1 9.25793 3.57943 7.5 6.03194 -140087 -138057 -148041 -4692.52 8376.93 -20183.6 -7.41107 
792 1 9.23013 1.12359 7.5 6.03192 -138209 -139588 -150328 -5410.62 3641.41 -18800.4 -7.41095 
939 1 10.7314 8.47506 7.5 6.03194 -135615 -146750 -147218 9192.13 16036.9 -18710.4 -7.41107 
940 1 11.4265 7.23912 7.5 6.03194 -143866 -137837 -137477 -4396.98 16350.1 -27753.2 -7.41161 
941 1 10.7036 6.01922 7.5 6.03194 -135779 -145012 -149391 8509.99 9909.43 -19499.4 -7.41096 
942 1 11.3987 4.78328 7.5 6.03194 -141430 -139037 -141542 -5226.29 11748.5 -26064.2 -7.4114 
943 1 10.6758 3.56338 7.5 6.03194 -136371 -143298 -150033 7745.05 4250.09 -20316.7 -7.41094 
944 1 11.3709 2.32743 7.5 6.03192 -139381 -140397 -144929 -6068.5 6998.84 -24431.4 -7.41122 
945 1 10.648 1.10754 7.5 6.03192 -137407 -141752 -149357 6973.8 -968.757 -21204.9 -7.41099 
1092 1 13.5672 8.44296 7.5 6.03194 -145368 -139216 -127937 -4534.94 19790.2 -33951.8 -7.41211 
1093 1 12.8443 7.22307 7.5 6.03194 -136138 -147525 -146410 10470.9 11896.4 -23251.1 -7.4111 
1094 1 13.5394 5.98712 7.5 6.03194 -142856 -140326 -133072 -5519.29 15285.5 -32181.4 -7.41184 
1095 1 12.8165 4.76722 7.5 6.03194 -136534 -145825 -147050 9615.48 5960.42 -24340.1 -7.41108 
1096 1 13.5116 3.53128 7.5 6.03194 -140698 -141593 -137630 -6533.61 10578.3 -30386.9 -7.4116 
1097 1 12.7887 2.31138 7.5 6.03192 -137328 -144169 -146257 8669.42 450.989 -25453.7 -7.41113 
1098 1 13.4838 1.07543 7.5 6.03192 -138937 -143103 -141420 -7603.19 5664.74 -28641.6 -7.41139 
1245 1 14.9851 8.42691 7.5 6.03194 -136621 -150142 -143341 12411.2 13749.2 -26654.9 -7.41123 
1246 1 15.6801 7.19096 7.5 6.03194 -144327 -141872 -122559 -5571.11 18845.3 -38273 -7.41239 
1247 1 14.9573 5.97107 7.5 6.03194 -136855 -148503 -143903 11504.7 7615.35 -28090.2 -7.41122 
1248 1 15.6523 4.73512 7.5 6.03194 -142098 -143050 -128320 -6744.24 14275 -36435.1 -7.41208 
1249 1 14.9295 3.51523 7.5 6.03194 -137464 -146865 -142929 10467.9 1859.49 -29486.1 -7.41128 
1250 1 15.6245 2.27928 7.5 6.03192 -140204 -144380 -133426 -7936.38 9457.16 -34555.8 -7.41181 
1251 1 14.9017 1.05938 7.5 6.03192 -138466 -145378 -140627 9388.52 -3511.34 -30883 -7.41142 
1398 1 17.8208 8.39481 7.5 6.03194 -145797 -143605 -110025 -5395.57 22257.5 -44026.4 -7.41305 
1399 1 17.098 7.17491 7.5 6.03194 -137289 -151204 -140753 13345.1 9116.18 -31342.9 -7.41136 
1400 1 17.793 5.93897 7.5 6.03194 -143548 -144697 -116972 -6702.95 17944.5 -42278.4 -7.41268 
1401 1 17.0702 4.71907 7.5 6.03194 -137749 -149644 -139528 12261.3 3190.6 -33088.1 -7.41144 
1402 1 17.7652 3.48312 7.5 6.03194 -141590 -145930 -123405 -8053.83 13317.2 -40383.9 -7.41233 
1403 1 17.0424 2.26323 7.5 6.03192 -138547 -148101 -136875 11041.4 -2379.43 -34763.2 -7.41159 
1404 1 17.7374 1.02728 7.5 6.03192 -139966 -147386 -129101 -9457.51 8403.82 -38411.4 -7.41202 
1551 1 19.2387 8.37876 7.5 6.03194 -137779 -153777 -137773 15054.5 10350 -33869.9 -7.41149 
1552 1 19.9337 7.14281 7.5 6.03194 -145002 -146448 -103660 -6428.27 21422.5 -47591.1 -7.41338 
1553 1 19.2109 5.92291 7.5 6.03194 -138136 -152357 -136228 13975.7 4352.4 -36025.2 -7.41159 
1554 1 19.9059 4.68697 7.5 6.03194 -143026 -147596 -111379 -7909.88 17100.8 -45809.9 -7.41296 
1555 1 19.1831 3.46707 7.5 6.03194 -138802 -150901 -133166 12714.6 -1343.8 -38035.9 -7.41177 
1556 1 19.8781 2.23113 7.5 6.03192 -141310 -148866 -118517 -9414.6 12440.3 -43843.2 -7.41257 
1557 1 19.1553 1.01123 7.5 6.03192 -139790 -149558 -128798 11368.6 -6699.62 -39928.6 -7.41201 
1704 1 22.0745 8.34665 7.5 6.03194 -146413 -148206 -88561.7 -5952.93 24546.1 -52061 -7.41419 
1705 1 21.3516 7.12676 7.5 6.03194 -138567 -154845 -133216 15526 5246.83 -38082.2 -7.41172 
1706 1 22.0467 5.89081 7.5 6.03194 -144473 -149279 -97473.2 -7527.11 20651.6 -50513.5 -7.4137 
1707 1 21.3238 4.67092 7.5 6.03194 -139145 -153548 -129690 14280 -487.384 -40474.3 -7.41193 
1708 1 22.0189 3.43497 7.5 6.03194 -142741 -150454 -105990 -9154.25 16351.1 -48674.9 -7.41324 
1709 1 21.296 2.21507 7.5 6.03192 -139986 -152219 -124771 12850.8 -5914.9 -42675.8 -7.41221 
1710 1 21.9911 0.979127 7.5 6.03192 -141257 -151809 -113861 -10829 11694.5 -46601.5 -7.4128 
1857 1 23.4923 8.3306 7.5 6.03194 -138975 -156947 -130675 16822 5790.35 -39100 -7.41184 
1858 1 24.1874 7.09466 7.5 6.03194 -145884 -150877 -81912.8 -6942.79 23821.3 -54210.6 -7.41453 
1859 1 23.4645 5.87476 7.5 6.03194 -139518 -155875 -126640 15651.1 108.385 -41893.2 -7.41207 
1860 1 24.1596 4.63881 7.5 6.03194 -144184 -151977 -91691.9 -8651.6 19989.3 -52610 -7.414 
1861 1 23.4367 3.41892 7.5 6.03194 -140293 -154714 -121133 14249.6 -5314.84 -44434.6 -7.41238 
1862 1 24.1318 2.18297 7.5 6.03192 -142650 -153148 -101025 -10382.6 15747.2 -50676.1 -7.41348 
1863 1 23.4089 0.963076 7.5 6.03192 -141304 -153609 -114380 12721.7 -10417.3 -46730.8 -7.41276 
2010 1 26.3281 8.2985 7.5 6.03194 -147207 -152290 -65011.9 -6205.52 26487.8 -56685.9 -7.41544 
2011 1 25.6053 7.07861 7.5 6.03194 -139856 -157735 -124200 16740.4 382.322 -42180.5 -7.41218 
2012 1 26.3003 5.84266 7.5 6.03194 -145596 -153331 -75887.8 -7947.34 23221.6 -55407.3 -7.41484 
2013 1 25.5775 4.62276 7.5 6.03194 -140613 -156811 -118082 15428.3 -4963.51 -45064.4 -7.41252 
2014 1 26.2725 3.38682 7.5 6.03194 -144093 -154416 -86544.4 -9744.09 19487.1 -53712.7 -7.41426 
2015 1 25.5497 2.16692 7.5 6.03192 -141547 -155793 -110639 13891.7 -10016.7 -47652.2 -7.41294 
2016 1 26.2447 0.930973 7.5 6.03192 -142733 -155617 -96701.2 -11579.2 15341.3 -51644 -7.4137 
2163 1 27.746 8.28245 7.5 6.03194 -140096 -159007 -122524 17469.4 307.606 -41315.6 -7.41226 
2164 1 28.441 7.0465 7.5 6.03194 -146929 -154428 -58920.7 -7093.21 25943.8 -56906.3 -7.41576 
2165 1 27.7182 5.82661 7.5 6.03194 -140883 -158373 -115794 16303.6 -4900.33 -44509.3 -7.41263 
2166 1 28.4132 4.59066 7.5 6.03194 -145506 -155452 -70716.7 -8906.68 22796.1 -55523.4 -7.41511 
2167 1 27.6904 3.37076 7.5 6.03194 -141822 -157590 -107661 14872.6 -9850.34 -47376.9 -7.41308 
2168 1 28.3854 2.13482 7.5 6.03192 -144137 -156480 -82250.4 -10736.3 19189.5 -53698.2 -7.41448 
2169 1 27.6626 0.914922 7.5 6.03192 -142905 -156799 -98374.1 13282.6 -14468.5 -49906.3 -7.4136 
2316 1 30.5818 8.25035 7.5 6.03194 -148136 -155198 -41188.5 -6146.39 28089.4 -57039.5 -7.41672 
2317 1 29.8589 7.03045 7.5 6.03194 -141043 -159307 -114409 16805.8 -5129.26 -42807.1 -7.4127 
2318 1 30.554 5.7945 7.5 6.03194 -146846 -156181 -53902.5 -7924.51 25586.8 -56007.2 -7.41602 
2319 1 29.8311 4.57461 7.5 6.03194 -142031 -158814 -105610 15536.1 -9937 -45909.1 -7.41318 
2320 1 30.5262 3.33866 7.5 6.03194 -145551 -157140 -66611 -9751.62 22580.3 -54487.7 -7.41532 
2321 1 29.8033 2.11877 7.5 6.03192 -143110 -158167 -95575.5 14016.3 -14430.4 -48657.6 -7.41373 
2322 1 30.4984 0.882819 7.5 6.03192 -144283 -158143 -79006 -11605 19121.6 -52510.8 -7.41464 
2469 1 31.9996 8.2343 7.5 6.03194 -141043 -159569 -114010 16885.1 -5615.51 -40083.4 -7.41272 
2470 1 32.6947 6.99835 7.5 6.03194 -148067 -156556 -36503.7 -6855.78 27808.5 -55152.9 -7.41697 
2471 1 31.9718 5.77845 7.5 6.03194 -142118 -159396 -104603 15820.4 -10260.4 -43343.1 -7.41323 
2472 1 32.6669 4.54251 7.5 6.03194 -146894 -157473 -50152 -8630.08 25441.9 -53969.5 -7.41622 
2473 1 31.944 3.32261 7.5 6.03194 -143269 -159022 -93870.4 14476.4 -14611.6 -46256.4 -7.41382 
2474 1 32.6391 2.08666 7.5 6.03192 -145656 -158324 -63748.9 -10409.5 22585.6 -52300.1 -7.41547 
2475 1 31.9162 0.866768 7.5 6.03192 -144471 -158576 -82094.3 12957.3 -18592.9 -48798.3 -7.41447 
2622 1 34.8354 8.20219 7.5 6.03194 -149127 -156566 -18937.3 -5757.66 29446.7 -53029.1 -7.41793 
2623 1 34.1126 6.9823 7.5 6.03194 -142036 -159327 -104696 15687 -10768.9 -39849.3 -7.41323 
2624 1 34.8076 5.74635 7.5 6.03194 -148125 -157456 -33270 -7430.29 27737.7 -52182.4 -7.41714 
2625 1 34.0848 4.52646 7.5 6.03194 -143291 -159256 -93347.6 14559.5 -14978.1 -42846.2 -7.41385 
2626 1 34.7798 3.29051 7.5 6.03194 -147000 -158261 -47822.4 -9140.33 25507.1 -50844 -7.41634 
2627 1 34.057 2.07061 7.5 6.03192 -144556 -158981 -80856.8 13177.1 -18824.6 -45492.7 -7.41453 
2628 1 34.752 0.834665 7.5 6.03192 -145782 -159042 -62261.3 -10864.9 22793 -49036.8 -7.41555 
2775 1 36.2533 8.18614 7.5 6.03194 -141757 -158648 -105876 15125 -11382.5 -35649.8 -7.41317 
2776 1 36.9483 6.9502 7.5 6.03194 -149203 -157102 -16365.4 -6211.03 29463.3 -49231.1 -7.41807 
2777 1 36.2255 5.7303 7.5 6.03194 -143137 -158887 -94030.4 14235.2 -15464.9 -38631.7 -7.41381 
2778 1 36.9205 4.49435 7.5 6.03194 -148235 -157885 -31610.4 -7805.39 27861.7 -48220.8 -7.41723 
2779 1 36.1977 3.27446 7.5 6.03194 -144528 -158888 -80929.4 13077.8 -19195.6 -41300.2 -7.41453 
2780 1 36.8927 2.03851 7.5 6.03192 -147085 -158541 -47013.5 -9392.93 25749.5 -46749 -7.41638 
2781 1 36.1699 0.818614 7.5 6.03192 -145883 -158770 -66892.2 11749.2 -22501.9 -43626.1 -7.41529 
2927 1 38.394 9.38999 7.5 6.03194 -141278 -157453 -108066 14152.5 -12004.4 -30988.9 -7.41307 
2928 1 39.089 8.15404 7.5 6.03194 -150093 -156454 178.312 -5022.5 30640.8 -45264 -7.41898 
2929 1 38.3662 6.93414 7.5 6.03194 -142783 -157987 -95874.1 13503.5 -15984.5 -33850.7 -7.41372 
2930 1 39.0612 5.6982 7.5 6.03194 -149324 -157228 -15491.9 -6461.25 29653.9 -44558.8 -7.41811 
2931 1 38.3384 4.4783 7.5 6.03194 -144314 -158271 -82302 12588.3 -19630.6 -36446.8 -7.41446 
2932 1 39.0334 3.24235 7.5 6.03194 -148321 -157864 -31591 -7922.08 28135.5 -43416.7 -7.41723 
2933 1 38.3106 2.02246 7.5 6.03192 -145785 -158318 -67667.7 11439 -22853.4 -38746.1 -7.41525 
2934 1 39.0056 0.786512 7.5 6.03192 -147113 -158425 -47762.2 -9391.28 26107.1 -41857.6 -7.41634 
3080 1 41.2298 9.35788 7.5 6.03194 -150772 -155579 16011.6 -3908.18 31310.4 -40449.7 -7.41985 
3081 1 40.5069 8.13799 7.5 6.03194 -142228 -156670 -98772.1 12388.7 -16439.1 -28745.7 -7.41358 
3082 1 41.202 6.90204 7.5 6.03194 -150234 -156353 176.529 -5159.36 30910.4 -40013.7 -7.41898 
3083 1 40.4791 5.68215 7.5 6.03194 -143898 -157220 -84898 11714.5 -20037 -31173.4 -7.41433 
3084 1 41.1742 4.4462 7.5 6.03194 -149416 -156990 -16349.2 -6456.75 29963.3 -39179 -7.41807 
3085 1 40.4513 3.2263 7.5 6.03194 -145528 -157516 -69821.1 10808.8 -23220.2 -33357 -7.41515 
3086 1 41.1464 1.99036 7.5 6.03192 -148312 -157458 -33215.3 -7738.65 28488.5 -37958.8 -7.41714 
3087 1 40.4235 0.77046 7.5 6.03192 -147050 -157666 -53897 9758.4 -25921.1 -35270.5 -7.41601 
3233 1 42.6476 9.34183 7.5 6.03194 -141493 -155075 -102567 10938.9 -16733.4 -23538.5 -7.41339 
3234 1 43.3427 8.10589 7.5 6.03194 -150937 -155341 15072.9 -3943.02 31672.7 -34747 -7.4198 
3235 1 42.6198 6.88599 7.5 6.03194 -143282 -155862 -88583.1 10486.1 -20317.9 -25710.3 -7.41414 
3236 1 43.3149 5.65004 7.5 6.03194 -150339 -155989 -1618.67 -5046.84 31263.7 -34187.4 -7.41888 
3237 1 42.592 4.43015 7.5 6.03194 -145064 -156397 -73246.6 9819.07 -23507.1 -27691.3 -7.41497 
3238 1 43.2871 3.1942 7.5 6.03194 -149412 -156465 -18909.8 -6159.96 30314.7 -33283.9 -7.41793 
3239 1 42.5642 1.9743 7.5 6.03192 -146732 -156682 -56907.2 8959.88 -26215.2 -29457.3 -7.41586 
3240 1 43.2593 0.738358 7.5 6.03192 -148187 -156834 -36423.3 -7283.87 28831.4 -32055.1 -7.41697 
3387 1 44.7606 8.08983 7.5 6.03194 -142488 -154342 -93178.4 8952.39 -20382.9 -20256 -7.41391 
3389 1 44.7328 5.63399 7.5 6.03194 -144400 -155088 -77785.7 8501.99 -23618.8 -21958 -7.41474 
3391 1 44.705 3.17815 7.5 6.03194 -146238 -155578 -61223 7877.64 -26385.9 -23498.2 -7.41563 
3393 1 44.6772 0.722307 7.5 6.03192 -147913 -155915 -43876.3 7154.41 -28621.5 -24859.5 -7.41657 
3386 1 45.4834 9.30973 7.5 6.03194 -151423 -154280 28917.5 -2846.68 31990.9 -28909.6 -7.42057 
3388 1 45.4556 6.85389 7.5 6.03194 -151063 -154946 12303.1 -3735.66 32080 -28588.2 -7.41965 
3390 1 45.4278 4.39804 7.5 6.03194 -150344 -155448 -5153.57 -4652.64 31620.4 -27971.1 -7.41869 
3392 1 45.4 1.9422 7.5 6.03192 -149256 -155757 -23088.3 -5553.33 30617.2 -27071.4 -7.41771 
3539 1 46.9013 9.29368 7.5 6.03194 -141558 -152800 -98476.7 7174.93 -20157.2 -14966.3 -7.41364 
3540 1 47.5963 8.05773 7.5 6.03194 -151575 -153947 25156.6 -2558.63 32463.3 -22511.5 -7.42036 
3541 1 46.8735 6.83784 7.5 6.03194 -143562 -153726 -83242.1 6906.98 -23469.6 -16328.2 -7.41446 
3542 1 47.5685 5.60189 7.5 6.03194 -151085 -154484 7776.11 -3259.4 32451.3 -22146.3 -7.41941 
3543 1 46.8457 4.38199 7.5 6.03194 -145542 -154406 -66667.1 6493.88 -26340 -17575.5 -7.41535 
3544 1 47.5407 3.14605 7.5 6.03194 -150199 -154829 -10322.6 -3962.75 31890.6 -21546 -7.41841 
3545 1 46.8179 1.92615 7.5 6.03192 -147372 -154837 -49126 5948.8 -28685.3 -18695 -7.4163 
3546 1 47.5129 0.690204 7.5 6.03192 -148947 -155053 -28746.6 -4689.33 30774.8 -20727.3 -7.41741 
3692 1 49.7371 9.26158 7.5 6.03194 -151871 -153065 36720.5 -1542.42 32470.1 -16068.4 -7.421 
3693 1 49.0142 8.04168 7.5 6.03194 -142592 -152440 -89396.1 5092.21 -22990.3 -10929.5 -7.41414 
3694 1 49.7093 6.80573 7.5 6.03194 -151618 -153643 19633.9 -2015.92 32860.7 -15917.6 -7.42006 
3695 1 48.9864 5.58584 7.5 6.03194 -144674 -153282 -73029.8 4855.68 -25996.1 -11831 -7.41501 
3696 1 49.6815 4.34989 7.5 6.03194 -150953 -154043 1610.87 -2503.02 32699.8 -15582.5 -7.41907 
3697 1 48.9586 3.13 7.5 6.03194 -146660 -153874 -55509.8 4516.26 -28497 -12649.3 -7.41596 
3698 1 49.6537 1.89405 7.5 6.03192 -149866 -154237 -16974.8 -2980.66 31982.2 -15074.6 -7.41805 
3699 1 48.9308 0.674153 7.5 6.03192 -148448 -154313 -37243.9 4139.34 -30433.8 -13379.2 -7.41695 
3845 1 51.1549 9.24553 7.5 6.03194 -141543 -151337 -96018.5 3119.39 -22130.5 -5850.28 -7.41379 
3846 1 51.85 8.00958 7.5 6.03194 -151939 -152981 30206.7 -950.42 32908.5 -9377.82 -7.42065 
3847 1 51.1271 6.78968 7.5 6.03194 -143674 -152315 -80082.5 3017.8 -25288.8 -6366.4 -7.41464 
3848 1 51.8222 5.55374 7.5 6.03194 -151505 -153442 12475.7 -1210.14 33101.3 -9269.13 -7.41967 
3849 1 51.0993 4.33384 7.5 6.03194 -145773 -153053 -62809.6 2850.77 -27978.7 -6836.33 -7.41557 
3850 1 51.7944 3.09789 7.5 6.03194 -150636 -153705 -6034.35 -1472.05 32739 -9036.59 -7.41866 
3851 1 51.0715 1.878 7.5 6.03192 -147702 -153548 -44589 2623.31 -30119.1 -7259.63 -7.41656 
3852 1 51.7666 0.64205 7.5 6.03192 -149365 -153840 -24921.9 -1777.87 31807.2 -8693.17 -7.41763 
3998 1 53.9907 9.21342 7.5 6.03194 -152062 -152529 39312 -83.0101 32661.3 -2612.09 -7.42115 
3999 1 53.2679 7.99353 7.5 6.03194 -142596 -151585 -87589.3 1037.23 -24170.2 -1251.28 -7.41424 
4000 1 53.9629 6.75758 7.5 6.03194 -151848 -153058 22061.7 -113.751 33159.7 -2685.3 -7.4202 
4001 1 53.2401 5.53768 7.5 6.03194 -144755 -152449 -70791.1 1002.57 -27067.9 -1336.84 -7.41514 
4002 1 53.9351 4.30174 7.5 6.03194 -151204 -153405 3842.19 -148.341 33105.3 -2686.37 -7.4192 
4003 1 53.2123 3.08184 7.5 6.03194 -146811 -153068 -52845.5 944.021 -29446 -1410.8 -7.41611 
4004 1 53.9073 1.84589 7.5 6.03192 -150117 -153542 -14969.1 -185.745 32487 -2623.93 -7.41817 
4005 1 53.1845 0.625999 7.5 6.03192 -148653 -153536 -34170.4 916.985 -31248 -1480.36 -7.41712 
4151 1 55.4086 9.19737 7.5 6.03194 -141495 -151141 -95314.2 -1031.56 -22607.6 3464.56 -7.41383 
4152 1 56.1036 7.96142 7.5 6.03194 -151994 -152892 30185.3 764.86 32947.5 4088.08 -7.42065 
4153 1 55.3808 6.74153 7.5 6.03194 -143655 -152113 -79213.6 -975.577 -25717.4 3791.86 -7.41469 
4154 1 56.0758 5.50558 7.5 6.03194 -151566 -153330 12444.7 960.201 33150.5 3902.64 -7.41967 
4155 1 55.353 4.28569 7.5 6.03194 -145781 -152846 -61776.8 -902.344 -28354 4101.4 -7.41563 
4156 1 56.048 3.04974 7.5 6.03194 -150703 -153566 -6076.48 1150.95 32796.7 3729.6 -7.41865 
4157 1 55.3252 1.82984 7.5 6.03192 -147733 -153335 -43396.8 -812.737 -30438.6 4381.28 -7.41662 
4158 1 56.0202 0.593897 7.5 6.03192 -149434 -153674 -24976.5 1272.5 31869.1 3561.05 -7.41762 
4304 1 58.2443 9.16527 7.5 6.03194 -151970 -152919 36689.7 1414.67 32545.3 10957.5 -7.421 
4305 1 57.5215 7.94537 7.5 6.03194 -142526 -152064 -87834.4 -3032.67 -23893.5 8502.47 -7.41423 
4306 1 58.2165 6.70943 7.5 6.03194 -151733 -153451 19586.7 1830.76 32953.6 10645.8 -7.42006 
4307 1 57.4937 5.48953 7.5 6.03194 -144663 -152896 -71137.7 -2866.36 -26796.2 9223.76 -7.41512 
4308 1 58.1887 4.25358 7.5 6.03194 -151081 -153802 1543.68 2252.13 32811 10292 -7.41907 
4309 1 57.4659 3.03369 7.5 6.03194 -146700 -153480 -53292.6 -2643.91 -29186.4 9885.61 -7.41608 
4310 1 58.1609 1.79774 7.5 6.03192 -150001 -153945 -17065.1 2656.57 32105.7 9891.15 -7.41805 
4311 1 57.4381 0.577845 7.5 6.03192 -148530 -153910 -34714.9 -2319.85 -31009.3 10468.9 -7.41709 
4457 1 59.6622 9.14922 7.5 6.03194 -141422 -152295 -96410.6 -5120.06 -21572.5 12746.4 -7.41376 
4458 1 60.3573 7.91327 7.5 6.03194 -151729 -153715 25108.8 2451.81 32601.2 17437.2 -7.42036 
4459 1 59.6344 6.69338 7.5 6.03194 -143510 -153211 -80678.9 -4899.09 -24737.3 13904.2 -7.4146 
4460 1 60.3295 5.45743 7.5 6.03194 -151263 -154184 7703.16 3095.46 32614.2 16966.4 -7.4194 
4461 1 59.6066 4.23753 7.5 6.03194 -145568 -153882 -63609.2 -4579.87 -27444.8 14975.9 -7.41552 
4462 1 60.3017 3.00159 7.5 6.03194 -150393 -154457 -10425.9 3733.32 32074.9 16393.1 -7.41841 
4463 1 59.5788 1.78169 7.5 6.03192 -147466 -154303 -45587.4 -4171.21 -29618.7 15938 -7.4165 
4464 1 60.2739 0.545743 7.5 6.03192 -149151 -154603 -28884.9 4277.59 30968.8 15714.7 -7.4174 
4610 1 62.498 9.11712 7.5 6.03194 -151601 -154047 28883 2824.19 32184.3 24144.6 -7.42057 
4611 1 61.7751 7.89722 7.5 6.03194 -142370 -153759 -90147.5 -6951.74 -22151.9 18082.9 -7.41408 
4612 1 62.4702 6.66127 7.5 6.03194 -151277 -154633 12242.8 3669.59 32298.2 23627.8 -7.41965 
4613 1 61.7473 5.44138 7.5 6.03194 -144389 -154500 -74089.5 -6572.27 -25177.6 19588.1 -7.41495 
4614 1 62.4424 4.20543 7.5 6.03194 -150587 -155045 -5247.3 4531.08 31866 22951 -7.41869 
4615 1 61.7195 2.98553 7.5 6.03194 -146325 -154985 -56872.5 -6061.86 -27718.5 20955.4 -7.41588 
4616 1 62.4146 1.74959 7.5 6.03192 -149518 -155258 -23222.4 5364.68 30881 22112.3 -7.4177 
4617 1 61.6917 0.529692 7.5 6.03192 -148079 -155313 -38898.7 -5386.06 -29720 22155.1 -7.41685 
4763 1 63.9159 9.10106 7.5 6.03194 -141290 -154489 -99286.5 -8976.04 -19024.2 21689.8 -7.41358 
4764 1 64.6109 7.86512 7.5 6.03194 -151167 -155056 15039.7 3976.98 31956.4 30121.9 -7.4198 
4765 1 63.8881 6.64522 7.5 6.03194 -143212 -155282 -84468.6 -8570.87 -22359.4 23647.1 -7.41438 
4766 1 64.5831 5.40927 7.5 6.03194 -150612 -155605 -1683.03 5039.88 31574 29415.5 -7.41888 
4767 1 63.8603 4.18938 7.5 6.03194 -145120 -155820 -68303.7 -7994.07 -25273 25440.5 -7.41525 
4768 1 64.5553 2.95343 7.5 6.03194 -149720 -155973 -19014.7 6099.64 30648.8 28489.5 -7.41793 
4769 1 63.8325 1.73354 7.5 6.03192 -146897 -156105 -51159.7 -7263.69 -27690.2 27036.7 -7.41618 
4770 1 64.5275 0.497589 7.5 6.03192 -148518 -156227 -36577.7 7048.59 29174.3 27345 -7.41697 
4916 1 66.7516 9.06896 7.5 6.03194 -150992 -155358 16013.4 4035.69 31676.5 36271 -7.41985 
4917 1 66.0288 7.84907 7.5 6.03194 -142080 -156165 -94475.4 -10524.2 -18976 27068 -7.41383 
4918 1 66.7238 6.61312 7.5 6.03194 -150514 -156033 154.925 5265.33 31292.7 35608.7 -7.41898 
4919 1 66.001 5.39322 7.5 6.03194 -143903 -156735 -79602.3 -9915.87 -22258.4 29300.3 -7.41463 
4920 1 66.696 4.15728 7.5 6.03194 -149749 -156557 -16405.7 6525.86 30368.8 34670.8 -7.41807 
4921 1 65.9732 2.93738 7.5 6.03194 -145670 -157045 -63544.1 -9114.73 -25101.2 31309.3 -7.4155 
4922 1 66.6682 1.70143 7.5 6.03192 -148684 -156900 -33318.2 7754.92 28908.6 33457.6 -7.41714 
4923 1 65.9454 0.481538 7.5 6.03192 -147303 -157202 -46678.7 -8096.67 -27448.3 33057.7 -7.41641 
5069 1 68.1695 9.05291 7.5 6.03194 -141037 -157084 -103834 -12379.3 -15028 29764.6 -7.41331 
5070 1 68.8646 7.81696 7.5 6.03194 -150355 -156232 204.213 5229.55 31105.8 41334.4 -7.41898 
5071 1 68.1417 6.59707 7.5 6.03194 -142717 -157660 -90481 -11772.5 -18665.1 32436.1 -7.41403 
5072 1 68.8368 5.36112 7.5 6.03194 -149657 -156896 -15489.4 6652.99 30132.7 40455.9 -7.41811 
5073 1 68.1139 4.14122 7.5 6.03194 -144413 -157978 -75757.3 -10935.5 -21932.9 34863 -7.41482 
5074 1 68.809 2.90528 7.5 6.03194 -148713 -157407 -31625.5 8081.02 28629.7 39249.7 -7.41723 
5075 1 68.0861 1.68538 7.5 6.03192 -146025 -158050 -60004.3 -9896.32 -24755.9 37005.6 -7.41568 
5076 1 68.7811 0.449435 7.5 6.03192 -147550 -157831 -47847.8 9391.11 26603.3 37720 -7.41634 
5222 1 71.0053 9.02081 7.5 6.03194 -150206 -156122 -1543 4969.96 31078.4 46395.7 -7.41888 
5223 1 70.2824 7.80091 7.5 6.03194 -141604 -158528 -100649 -13506.5 -14501.8 34756.1 -7.41347 
5224 1 70.9775 6.56496 7.5 6.03194 -149505 -156901 -16303.9 6507.97 30018.2 45635.5 -7.41807 
5225 1 70.2546 5.34507 7.5 6.03194 -143173 -158827 -87494.3 -12668.9 -18182.6 37589.5 -7.41418 
5226 1 70.9497 4.10912 7.5 6.03194 -148617 -157567 -31570.4 8093.13 28425.2 44503.8 -7.41723 
5227 1 70.2268 2.88923 7.5 6.03194 -144732 -158877 -73107.2 -11594.3 -21481.7 40122.2 -7.41496 
5228 1 70.9219 1.65328 7.5 6.03192 -147535 -158091 -47010.8 9651.29 26317.9 43002.4 -7.41638 
5229 1 70.199 0.433384 7.5 6.03192 -146222 -158792 -57833.9 -10269.7 -24338.6 42313.4 -7.41579 
5375 1 72.4232 9.00476 7.5 6.03194 -140599 -159285 -109820 -15060.2 -9799.8 36191 -7.41296 
5376 1 73.1182 7.76881 7.5 6.03194 -149367 -156510 -18827.3 6133.96 30079.6 50012.2 -7.41793 
5377 1 72.3954 6.54891 7.5 6.03194 -141991 -159534 -98448.8 -14254.9 -13869.5 39398.7 -7.41357 
5378 1 73.0904 5.31297 7.5 6.03194 -148466 -157301 -33161.5 7824.64 28364.2 49005.8 -7.41714 
5379 1 72.3676 4.09307 7.5 6.03194 -143440 -159539 -85664.3 -13181.8 -17632.1 42297.4 -7.41427 
5380 1 73.0626 2.85712 7.5 6.03194 -147432 -157986 -47731.6 9531.93 26135.8 47595.4 -7.41634 
5381 1 72.3398 1.63723 7.5 6.03192 -144869 -159322 -71775.8 -11877.7 -21008.7 44846.9 -7.41503 
5382 1 73.0348 0.401281 7.5 6.03192 -146289 -158630 -62206.6 11123.3 23415.8 45787.8 -7.41555 
5528 1 75.2589 8.97265 7.5 6.03194 -149319 -155691 -22978.6 5586.61 30342.4 53421.2 -7.41771 
5529 1 74.5361 7.75276 7.5 6.03194 -140905 -160054 -108324 -15634.3 -9038.87 40234.9 -7.41303 
5530 1 75.2311 6.51681 7.5 6.03194 -148333 -156569 -36343.8 7324.46 28489.1 52568.8 -7.41697 
5531 1 74.5083 5.29692 7.5 6.03194 -142194 -159984 -97354.3 -14597.7 -13238.7 43452.2 -7.41363 
5532 1 75.2033 4.06097 7.5 6.03194 -147273 -157388 -49986.2 9124.75 26115.7 51292 -7.41622 
5533 1 74.4805 2.84107 7.5 6.03194 -143534 -159696 -85084.5 -13302.7 -17118.2 46323.5 -7.4143 
5534 1 75.1755 1.60513 7.5 6.03192 -146136 -158120 -63594.9 10907.6 23255.7 49596.1 -7.41548 
5535 1 74.4527 0.38523 7.5 6.03192 -144888 -159314 -71825.5 -11745 -20611.5 48810.7 -7.41502 
5681 1 76.6768 8.9566 7.5 6.03194 -139945 -160362 -116848 -16751.3 -3763.01 40091.5 -7.41257 
5682 1 77.3718 7.72066 7.5 6.03194 -148291 -155369 -41003 6653.21 28811.8 55053.2 -7.41673 
5683 1 76.649 6.50076 7.5 6.03194 -141032 -160188 -107872 -15783.4 -8361.39 43555.9 -7.41305 
5684 1 77.344 5.26481 7.5 6.03194 -147135 -156279 -53685.9 8486.2 26287 53927.9 -7.41603 
5685 1 76.6212 4.04492 7.5 6.03194 -142231 -159807 -97425.6 -14534.7 -12712.4 46687.2 -7.41363 
5686 1 77.3162 2.80897 7.5 6.03194 -145966 -157146 -66379 10348.3 23274.6 52377.8 -7.41533 
5687 1 76.5934 1.58907 7.5 6.03192 -143488 -159249 -85782.6 -13049.9 -16733.8 49452.7 -7.41426 
5688 1 77.2884 0.353128 7.5 6.03192 -144808 -158034 -78777.7 12104 19807.8 50414 -7.41465 
5834 1 79.5126 8.9245 7.5 6.03194 -148414 -153733 -46973.1 5875.97 29314.3 56382.2 -7.41641 
5835 1 78.7897 7.7046 7.5 6.03194 -139986 -160148 -116947 -16685.7 -3087.35 42636.9 -7.41256 
5836 1 79.4848 6.46866 7.5 6.03194 -147094 -154690 -58684.9 7682.25 26647.8 55401.1 -7.41577 
5837 1 78.7619 5.24876 7.5 6.03194 -141001 -159647 -108490 -15517.2 -7865.69 45943.2 -7.41303 
5838 1 79.457 4.01281 7.5 6.03194 -145818 -155652 -70437.9 9560.08 23487.9 54004.8 -7.41512 
5839 1 78.7341 2.79292 7.5 6.03194 -142141 -158977 -98655.7 -14093.4 -12375.3 48913 -7.41357 
5840 1 79.4292 1.55697 7.5 6.03192 -144586 -156594 -81943.9 11431.3 19878.2 52206.1 -7.41449 
5841 1 78.7063 0.337076 7.5 6.03192 -143386 -158275 -87719.3 -12414.5 -16547.8 51518.4 -7.41417 
5987 1 80.9304 8.90845 7.5 6.03194 -139085 -159872 -124354 -17262.6 2473.29 40786 -7.41216 
5989 1 80.9026 6.45261 7.5 6.03194 -139881 -159234 -118012 -16202.4 -2678.96 44164.9 -7.41251 
5991 1 80.8748 3.99676 7.5 6.03194 -140857 -158438 -110137 -14873.8 -7625.06 47243.1 -7.41295 
5993 1 80.847 1.54092 7.5 6.03192 -141977 -157531 -100971 -13325.2 -12283.1 50004 -7.41345 
5988 1 81.6255 7.6725 7.5 6.03194 -147218 -152685 -64791.3 6779.85 27168.9 55682 -7.41545 
5990 1 81.5977 5.21666 7.5 6.03194 -145769 -153693 -75598.9 8613.64 23880.5 54423.4 -7.41486 
5992 1 81.5699 2.76082 7.5 6.03194 -144425 -154725 -86198.3 10484.1 20145.6 52788.5 -7.41427 
5994 1 81.5421 0.304974 7.5 6.03192 -143213 -155852 -96312.3 12261.8 15999.6 50794.5 -7.41372 
6140 1 83.7662 8.87635 7.5 6.03194 -147563 -150351 -71781.3 5843.74 27802.3 54812.9 -7.41508 
6141 1 83.0434 7.65645 7.5 6.03194 -138899 -158602 -125784 -16553.3 2728.02 41490.1 -7.4121 
6142 1 83.7384 6.4205 7.5 6.03194 -145888 -151363 -81651.6 7580.23 24413.3 53658.3 -7.41454 
6143 1 83.0156 5.20061 7.5 6.03194 -139675 -157669 -119972 -15348.4 -2595.69 44567.8 -7.41242 
6144 1 83.7106 3.96466 7.5 6.03194 -144365 -152442 -91347.4 9389.78 20581.5 52163.7 -7.41401 
6145 1 82.9878 2.74477 7.5 6.03194 -140654 -156628 -112709 -13913.6 -7678.16 47380.7 -7.41282 
6146 1 83.6828 1.50882 7.5 6.03192 -143001 -153571 -100605 11202 16350.1 50352.3 -7.4135 
6147 1 82.96 0.288923 7.5 6.03192 -141833 -155623 -104243 -12248.2 -12456.3 49917.5 -7.41329 
6293 1 85.1841 8.8603 7.5 6.03194 -138078 -157796 -131669 -16549.9 8227.71 38108.5 -7.41179 
6294 1 85.8791 7.62435 7.5 6.03194 -146226 -148772 -88362.4 6523.82 25034.7 51804.9 -7.41419 
6295 1 85.1563 6.40445 7.5 6.03194 -138625 -156721 -127977 -15488.6 2586.45 41074.8 -7.412 
6296 1 85.8513 5.16851 7.5 6.03194 -144472 -149853 -97170.2 8221.38 21138.9 50413.7 -7.41371 
6297 1 85.1285 3.94861 7.5 6.03194 -139424 -155548 -122698 -14194 -2855.73 43827.6 -7.41229 
6298 1 85.8235 2.71266 7.5 6.03194 -142928 -151020 -105586 9957.01 16859.3 48755.1 -7.41325 
6299 1 85.1007 1.49277 7.5 6.03192 -140455 -154329 -116055 -12712.5 -8025.68 46371.9 -7.41266 
6300 1 85.7957 0.25682 7.5 6.03192 -141624 -152346 -113360 11612.8 12220 46854.4 -7.41282 
6446 1 88.0199 8.82819 7.5 6.03194 -146820 -146038 -95488.5 5495.11 25694 49010.2 -7.41382 
6447 1 87.297 7.6083 7.5 6.03194 -137733 -155656 -134046 -15282 7794.76 36993.9 -7.41168 
6448 1 87.9921 6.37235 7.5 6.03194 -144796 -147086 -103433 7042.15 21764.7 47683.8 -7.41339 
6449 1 87.2692 5.15245 7.5 6.03194 -138324 -154354 -130785 -14145.9 2054.13 39579.3 -7.41187 
6450 1 87.9643 3.91651 7.5 6.03194 -143019 -148253 -111031 8653.26 17472.8 46139.5 -7.41298 